20
	Energy:      20.8772401
N         -1.89184        0.17318        0.18304
C         -0.61220       -0.52828        0.35957
N          0.06809       -0.69395       -0.93223
H         -0.74137       -1.49485        0.90363
C         -3.01414       -0.77117        0.07999
C          1.20726       -1.61101       -0.78323
H         -3.13526       -1.35774        1.01890
H         -2.84887       -1.47345       -0.76515
H         -3.95863       -0.22075       -0.11913
H          1.92460       -1.24447       -0.01445
H          1.74100       -1.72232       -1.75190
H          0.84815       -2.62124       -0.49153
C         -2.09038        1.10259        1.29792
H         -1.25818        1.83968        1.32480
H         -2.13032        0.56406        2.27083
H         -3.03254        1.67413        1.15546
C          0.55000        0.61780       -1.39089
H          1.07993        0.51835       -2.36251
H          1.24231        1.07548       -0.64727
H         -0.30338        1.31020       -1.55615
