
                                 *****************
                                 * O   R   C   A *
                                 *****************

                                            #,                                       
                                            ###                                      
                                            ####                                     
                                            #####                                    
                                            ######                                   
                                           ########,                                 
                                     ,,################,,,,,                         
                               ,,#################################,,                 
                          ,,##########################################,,             
                       ,#########################################, ''#####,          
                    ,#############################################,,   '####,        
                  ,##################################################,,,,####,       
                ,###########''''           ''''###############################       
              ,#####''   ,,,,##########,,,,          '''####'''          '####       
            ,##' ,,,,###########################,,,                        '##       
           ' ,,###''''                  '''############,,,                           
         ,,##''                                '''############,,,,        ,,,,,,###''
      ,#''                                            '''#######################'''  
     '                                                          ''''####''''         
             ,#######,   #######,   ,#######,      ##                                
            ,#'     '#,  ##    ##  ,#'     '#,    #''#        ######   ,####,        
            ##       ##  ##   ,#'  ##            #'  '#       #        #'  '#        
            ##       ##  #######   ##           ,######,      #####,   #    #        
            '#,     ,#'  ##    ##  '#,     ,#' ,#      #,         ##   #,  ,#        
             '#######'   ##     ##  '#######'  #'      '#     #####' # '####'        



                  #######################################################
                  #                        -***-                        #
                  #          Department of theory and spectroscopy      #
                  #    Directorship and core code : Frank Neese         #
                  #        Max Planck Institute fuer Kohlenforschung    #
                  #                Kaiser Wilhelm Platz 1               #
                  #                 D-45470 Muelheim/Ruhr               #
                  #                      Germany                        #
                  #                                                     #
                  #                  All rights reserved                #
                  #                        -***-                        #
                  #######################################################


                         Program Version 5.0.4 -  RELEASE  -


 With contributions from (in alphabetic order):
   Daniel Aravena         : Magnetic Suceptibility
   Michael Atanasov       : Ab Initio Ligand Field Theory (pilot matlab implementation)
   Alexander A. Auer      : GIAO ZORA, VPT2 properties, NMR spectrum
   Ute Becker             : Parallelization
   Giovanni Bistoni       : ED, misc. LED, open-shell LED, HFLD
   Martin Brehm           : Molecular dynamics
   Dmytro Bykov           : SCF Hessian
   Vijay G. Chilkuri      : MRCI spin determinant printing, contributions to CSF-ICE
   Dipayan Datta          : RHF DLPNO-CCSD density
   Achintya Kumar Dutta   : EOM-CC, STEOM-CC
   Dmitry Ganyushin       : Spin-Orbit,Spin-Spin,Magnetic field MRCI
   Miquel Garcia          : C-PCM and meta-GGA Hessian, CC/C-PCM, Gaussian charge scheme
   Yang Guo               : DLPNO-NEVPT2, F12-NEVPT2, CIM, IAO-localization
   Andreas Hansen         : Spin unrestricted coupled pair/coupled cluster methods
   Benjamin Helmich-Paris : MC-RPA, TRAH-SCF, COSX integrals
   Lee Huntington         : MR-EOM, pCC
   Robert Izsak           : Overlap fitted RIJCOSX, COSX-SCS-MP3, EOM
   Marcus Kettner         : VPT2
   Christian Kollmar      : KDIIS, OOCD, Brueckner-CCSD(T), CCSD density, CASPT2, CASPT2-K
   Simone Kossmann        : Meta GGA functionals, TD-DFT gradient, OOMP2, MP2 Hessian
   Martin Krupicka        : Initial AUTO-CI
   Lucas Lang             : DCDCAS
   Marvin Lechner         : AUTO-CI (C++ implementation), FIC-MRCC
   Dagmar Lenk            : GEPOL surface, SMD
   Dimitrios Liakos       : Extrapolation schemes; Compound Job, initial MDCI parallelization
   Dimitrios Manganas     : Further ROCIS development; embedding schemes
   Dimitrios Pantazis     : SARC Basis sets
   Anastasios Papadopoulos: AUTO-CI, single reference methods and gradients
   Taras Petrenko         : DFT Hessian,TD-DFT gradient, ASA, ECA, R-Raman, ABS, FL, XAS/XES, NRVS
   Peter Pinski           : DLPNO-MP2, DLPNO-MP2 Gradient
   Christoph Reimann      : Effective Core Potentials
   Marius Retegan         : Local ZFS, SOC
   Christoph Riplinger    : Optimizer, TS searches, QM/MM, DLPNO-CCSD(T), (RO)-DLPNO pert. Triples
   Tobias Risthaus        : Range-separated hybrids, TD-DFT gradient, RPA, STAB
   Michael Roemelt        : Original ROCIS implementation
   Masaaki Saitow         : Open-shell DLPNO-CCSD energy and density
   Barbara Sandhoefer     : DKH picture change effects
   Avijit Sen             : IP-ROCIS
   Kantharuban Sivalingam : CASSCF convergence, NEVPT2, FIC-MRCI
   Bernardo de Souza      : ESD, SOC TD-DFT
   Georgi Stoychev        : AutoAux, RI-MP2 NMR, DLPNO-MP2 response
   Willem Van den Heuvel  : Paramagnetic NMR
   Boris Wezisla          : Elementary symmetry handling
   Frank Wennmohs         : Technical directorship


 We gratefully acknowledge several colleagues who have allowed us to
 interface, adapt or use parts of their codes:
   Stefan Grimme, W. Hujo, H. Kruse, P. Pracht,  : VdW corrections, initial TS optimization,
                  C. Bannwarth, S. Ehlert          DFT functionals, gCP, sTDA/sTD-DF
   Ed Valeev, F. Pavosevic, A. Kumar             : LibInt (2-el integral package), F12 methods
   Garnet Chan, S. Sharma, J. Yang, R. Olivares  : DMRG
   Ulf Ekstrom                                   : XCFun DFT Library
   Mihaly Kallay                                 : mrcc  (arbitrary order and MRCC methods)
   Jiri Pittner, Ondrej Demel                    : Mk-CCSD
   Frank Weinhold                                : gennbo (NPA and NBO analysis)
   Christopher J. Cramer and Donald G. Truhlar   : smd solvation model
   Lars Goerigk                                  : TD-DFT with DH, B97 family of functionals
   V. Asgeirsson, H. Jonsson                     : NEB implementation
   FAccTs GmbH                                   : IRC, NEB, NEB-TS, DLPNO-Multilevel, CI-OPT
                                                   MM, QMMM, 2- and 3-layer-ONIOM, Crystal-QMMM,
                                                   LR-CPCM, SF, NACMEs, symmetry and pop. for TD-DFT,
                                                   nearIR, NL-DFT gradient (VV10), updates on ESD,
                                                   ML-optimized integration grids
   S Lehtola, MJT Oliveira, MAL Marques          : LibXC Library
   Liviu Ungur et al                             : ANISO software


 Your calculation uses the libint2 library for the computation of 2-el integrals
 For citations please refer to: http://libint.valeyev.net

 Your ORCA version has been built with support for libXC version: 5.1.0
 For citations please refer to: https://tddft.org/programs/libxc/

 This ORCA versions uses:
   CBLAS   interface :  Fast vector & matrix operations
   LAPACKE interface :  Fast linear algebra routines
   SCALAPACK package :  Parallel linear algebra routines
   Shared memory     :  Shared parallel matrices
   BLAS/LAPACK       :  OpenBLAS 0.3.15  USE64BITINT DYNAMIC_ARCH NO_AFFINITY SkylakeX SINGLE_THREADED
        Core in use  :  SkylakeX
   Copyright (c) 2011-2014, The OpenBLAS Project




***************************************
The coordinates will be read from file: 3_prot.xyz
***************************************


Your calculation utilizes the atom-pairwise dispersion correction
based on tight binding partial charges (D4)
Cite in your paper:
E.Caldeweyher, C.Bannwarth, S.Grimme, J.Chem.Phys., (2017), 147, 034112.
E.Caldeweyher, S.Ehlert, A.Hansen, H.Neugebauer, S.Grimme, J.Chem.Phys., (2018), in progress.
   

XCFun DFT library Copyright 2009-2010 Ulf Ekstrom and contributors.
See http://admol.org/xcfun for more information.
This is free software; see the source code for copying conditions.
There is ABSOLUTELY NO WARRANTY; not even for MERCHANTABILITY or FITNESS FOR A PARTICULAR PURPOSE.
For details see the documentation.
Scientific users of this library should cite U. Ekstrom, L. Visscher, R. Bast, A. J. Thorvaldsen and K. Ruud;
J.Chem.Theor.Comp. 2010, DOI: 10.1021/ct100117s
XCFun Version 0.99 

================================================================================

----- Orbital basis set information -----
Your calculation utilizes the basis: def2-TZVP
   F. Weigend and R. Ahlrichs, Phys. Chem. Chem. Phys. 7, 3297 (2005).

----- AuxJ basis set information -----
Your calculation utilizes the auxiliary basis: def2/J
   F. Weigend, Phys. Chem. Chem. Phys. 8, 1057 (2006).

================================================================================
                                        WARNINGS
                       Please study these warnings very carefully!
================================================================================


WARNING: Geometry Optimization
  ===> : Switching off AutoStart
         For restart on a previous wavefunction, please use MOREAD

INFO   : the flag for use of the SHARK integral package has been found!

================================================================================
                                       INPUT FILE
================================================================================
NAME = 3_prot.inp
|  1> # ORCA 5.0.4 - /users/bwb16179/postgrad/2024_06/pKa_Reviewer_Comments/Gas_Z=1/3_prot.inp # write input file
|  2> # Basic Mode
|  3> #
|  4> ! Opt Freq wB97X Def2-TZVP D4 SlowConv TightSCF Defgrid2 Def2/J RIJCOSX 
|  5> 
|  6> %PAL NPROCS 4 END
|  7> 
|  8> %maxcore 4500
|  9> 
| 10> %geom
| 11> Maxiter 150
| 12> END
| 13> 
| 14> * xyzfile 1 1 3_prot.xyz
| 15> 
| 16>                          ****END OF INPUT****
================================================================================

                       *****************************
                       * Geometry Optimization Run *
                       *****************************

Geometry optimization settings:
Update method            Update   .... BFGS
Choice of coordinates    CoordSys .... Z-matrix Internals
Initial Hessian          InHess   .... Almoef's Model

Convergence Tolerances:
Energy Change            TolE     ....  5.0000e-06 Eh
Max. Gradient            TolMAXG  ....  3.0000e-04 Eh/bohr
RMS Gradient             TolRMSG  ....  1.0000e-04 Eh/bohr
Max. Displacement        TolMAXD  ....  4.0000e-03 bohr
RMS Displacement         TolRMSD  ....  2.0000e-03 bohr
Strict Convergence                ....  False
------------------------------------------------------------------------------
                        ORCA OPTIMIZATION COORDINATE SETUP
------------------------------------------------------------------------------

The optimization will be done in new redundant internal coordinates
Making redundant internal coordinates   ...  (new redundants) done
Evaluating the initial hessian          ...  (Almloef) done
Evaluating the coordinates              ...  done
Calculating the B-matrix                .... done
Calculating the G-matrix                .... done
Diagonalizing the G-matrix              .... done
The first mode is                       ....   33
The number of degrees of freedom        ....   42

    -----------------------------------------------------------------
                    Redundant Internal Coordinates


    -----------------------------------------------------------------
         Definition                    Initial Value    Approx d2E/dq
    -----------------------------------------------------------------
      1. B(C   2,N   0)                  1.3816         0.577179   
      2. B(C   3,C   2)                  1.3685         0.676187   
      3. B(C   3,N   1)                  1.3816         0.577199   
      4. B(C   4,N   0)                  1.3317         0.693287   
      5. B(C   4,N   1)                  1.3316         0.693484   
      6. B(Cl  5,C   2)                  1.6834         0.477102   
      7. B(Cl  6,C   3)                  1.6833         0.477257   
      8. B(C   7,N   0)                  1.4626         0.428603   
      9. B(C   8,N   1)                  1.4626         0.428556   
     10. B(H   9,C   7)                  1.0962         0.351975   
     11. B(H  10,C   8)                  1.0962         0.352034   
     12. B(H  11,C   7)                  1.0978         0.349954   
     13. B(H  12,C   8)                  1.0976         0.350237   
     14. B(H  13,C   8)                  1.0979         0.349859   
     15. B(H  14,C   7)                  1.0976         0.350156   
     16. B(H  15,C   4)                  1.0899         0.360276   
     17. A(C   2,N   0,C   4)          108.3215         0.431510   
     18. A(C   4,N   0,C   7)          126.3065         0.409197   
     19. A(C   2,N   0,C   7)          125.3720         0.396185   
     20. A(C   3,N   1,C   8)          125.3054         0.396180   
     21. A(C   4,N   1,C   8)          126.3740         0.409210   
     22. A(C   3,N   1,C   4)          108.3205         0.431534   
     23. A(N   0,C   2,Cl  5)          123.0048         0.424647   
     24. A(C   3,C   2,Cl  5)          130.0435         0.439779   
     25. A(N   0,C   2,C   3)          106.9517         0.432405   
     26. A(C   2,C   3,Cl  6)          130.1134         0.439805   
     27. A(N   1,C   3,C   2)          106.9578         0.432407   
     28. A(N   1,C   3,Cl  6)          122.9288         0.424674   
     29. A(N   0,C   4,H  15)          125.2570         0.357470   
     30. A(N   1,C   4,H  15)          125.2946         0.357487   
     31. A(N   0,C   4,N   1)          109.4484         0.446041   
     32. A(N   0,C   7,H   9)          108.5854         0.328515   
     33. A(H  11,C   7,H  14)          109.7882         0.288271   
     34. A(H   9,C   7,H  14)          109.6620         0.288531   
     35. A(N   0,C   7,H  14)          109.4493         0.328234   
     36. A(H   9,C   7,H  11)          109.7401         0.288505   
     37. A(N   0,C   7,H  11)          109.5960         0.328203   
     38. A(N   1,C   8,H  10)          108.6228         0.328518   
     39. A(H  12,C   8,H  13)          109.7687         0.288269   
     40. A(H  10,C   8,H  13)          109.7844         0.288500   
     41. A(N   1,C   8,H  13)          109.6317         0.328182   
     42. A(H  10,C   8,H  12)          109.6842         0.288549   
     43. A(N   1,C   8,H  12)          109.3292         0.328241   
     44. D(Cl  5,C   2,N   0,C   7)     -0.0329         0.026703   
     45. D(Cl  5,C   2,N   0,C   4)    179.8695         0.026703   
     46. D(C   3,C   2,N   0,C   4)     -0.0737         0.026703   
     47. D(C   3,C   2,N   0,C   7)   -179.9761         0.026703   
     48. D(Cl  6,C   3,C   2,Cl  5)      0.1492         0.032022   
     49. D(Cl  6,C   3,C   2,N   0)   -179.9130         0.032022   
     50. D(Cl  6,C   3,N   1,C   4)    179.9233         0.026705   
     51. D(C   2,C   3,N   1,C   8)   -179.9979         0.026705   
     52. D(C   2,C   3,N   1,C   4)     -0.0848         0.026705   
     53. D(N   1,C   3,C   2,N   0)      0.0958         0.032022   
     54. D(Cl  6,C   3,N   1,C   8)      0.0102         0.026705   
     55. D(N   1,C   3,C   2,Cl  5)   -179.8419         0.032022   
     56. D(H  15,C   4,N   0,C   2)   -179.9823         0.039698   
     57. D(N   1,C   4,N   0,C   7)    179.9225         0.039698   
     58. D(N   1,C   4,N   0,C   2)      0.0213         0.039698   
     59. D(H  15,C   4,N   1,C   8)     -0.0449         0.039723   
     60. D(H  15,C   4,N   1,C   3)   -179.9569         0.039723   
     61. D(N   0,C   4,N   1,C   8)    179.9515         0.039723   
     62. D(N   0,C   4,N   1,C   3)      0.0395         0.039723   
     63. D(H  15,C   4,N   0,C   7)     -0.0811         0.039698   
     64. D(H  14,C   7,N   0,C   4)    121.9904         0.015662   
     65. D(H  14,C   7,N   0,C   2)    -58.1246         0.015662   
     66. D(H  11,C   7,N   0,C   4)   -117.5575         0.015662   
     67. D(H  11,C   7,N   0,C   2)     62.3275         0.015662   
     68. D(H   9,C   7,N   0,C   4)      2.3071         0.015662   
     69. D(H   9,C   7,N   0,C   2)   -177.8079         0.015662   
     70. D(H  12,C   8,N   1,C   4)    123.6039         0.015658   
     71. D(H  12,C   8,N   1,C   3)    -56.4985         0.015658   
     72. D(H  10,C   8,N   1,C   4)      3.9421         0.015658   
     73. D(H  13,C   8,N   1,C   3)     63.8773         0.015658   
     74. D(H  10,C   8,N   1,C   3)   -176.1603         0.015658   
     75. D(H  13,C   8,N   1,C   4)   -116.0203         0.015658   
    -----------------------------------------------------------------

Number of atoms                         .... 16
Number of degrees of freedom            .... 75

         *************************************************************
         *                GEOMETRY OPTIMIZATION CYCLE   1            *
         *************************************************************
---------------------------------
CARTESIAN COORDINATES (ANGSTROEM)
---------------------------------
  N      0.140856    1.104048    1.008475
  N     -0.159610   -1.049146    1.038425
  C      0.047792    0.691943   -0.306922
  C     -0.139943   -0.663471   -0.288075
  C      0.012096    0.035099    1.792155
  Cl     0.158120    1.752042   -1.609957
  Cl    -0.323620   -1.750745   -1.559957
  C      0.343949    2.483114    1.451323
  C     -0.337609   -2.419484    1.517759
  H      0.415236    2.491899    2.545180
  H     -0.377841   -2.404740    2.613088
  H     -0.504167    3.101663    1.130050
  H     -1.276274   -2.824878    1.118758
  H      0.505507   -3.039023    1.185178
  H      1.273710    2.873119    1.017484
  H      0.042638    0.046329    2.881536

----------------------------
CARTESIAN COORDINATES (A.U.)
----------------------------
  NO LB      ZA    FRAG     MASS         X           Y           Z
   0 N     7.0000    0    14.007    0.266179    2.086348    1.905742
   1 N     7.0000    0    14.007   -0.301619   -1.982599    1.962339
   2 C     6.0000    0    12.011    0.090314    1.307583   -0.579999
   3 C     6.0000    0    12.011   -0.264454   -1.253778   -0.544383
   4 C     6.0000    0    12.011    0.022858    0.066327    3.386682
   5 Cl   17.0000    0    35.453    0.298803    3.310880   -3.042378
   6 Cl   17.0000    0    35.453   -0.611553   -3.308429   -2.947892
   7 C     6.0000    0    12.011    0.649969    4.692405    2.742603
   8 C     6.0000    0    12.011   -0.637989   -4.572162    2.868149
   9 H     1.0000    0     1.008    0.784682    4.709007    4.809693
  10 H     1.0000    0     1.008   -0.714016   -4.544300    4.938021
  11 H     1.0000    0     1.008   -0.952738    5.861294    2.135485
  12 H     1.0000    0     1.008   -2.411808   -5.338246    2.114146
  13 H     1.0000    0     1.008    0.955270   -5.742921    2.239662
  14 H     1.0000    0     1.008    2.406963    5.429408    1.922766
  15 H     1.0000    0     1.008    0.080574    0.087549    5.445314

--------------------------------
INTERNAL COORDINATES (ANGSTROEM)
--------------------------------
 N      0   0   0     0.000000000000     0.00000000     0.00000000
 N      1   0   0     2.174263374408     0.00000000     0.00000000
 C      1   2   0     1.381579062786    73.04690169     0.00000000
 C      3   1   2     1.368483376234   106.95168493   359.93909671
 C      2   1   3     1.331607706256    35.27697571   180.02110577
 Cl     3   1   2     1.683413902940   123.00481348   179.88229277
 Cl     4   3   1     1.683325819124   130.11341288   180.08696402
 C      1   2   3     1.462595005498   161.58099189   179.78115003
 C      2   1   3     1.462624682480   161.65098097   179.89700834
 H      8   1   2     1.096212638608   108.58541186     2.44883257
 H      9   2   1     1.096166783661   108.62278171     4.03108161
 H      8   1   2     1.097779556826   109.59602318   242.58420692
 H      9   2   1     1.097560055515   109.32922128   123.69296002
 H      9   2   1     1.097853944538   109.63166272   244.06872453
 H      8   1   2     1.097622747153   109.44926642   122.13210689
 H      5   2   1     1.089866913813   125.29463208   180.00360020

---------------------------
INTERNAL COORDINATES (A.U.)
---------------------------
 N      0   0   0     0.000000000000     0.00000000     0.00000000
 N      1   0   0     4.108762320647     0.00000000     0.00000000
 C      1   2   0     2.610806061026    73.04690169     0.00000000
 C      3   1   2     2.586058799907   106.95168493   359.93909671
 C      2   1   3     2.516373882643    35.27697571   180.02110577
 Cl     3   1   2     3.181191246591   123.00481348   179.88229277
 Cl     4   3   1     3.181024792303   130.11341288   180.08696402
 C      1   2   3     2.763904005233   161.58099189   179.78115003
 C      2   1   3     2.763960086602   161.65098097   179.89700834
 H      8   1   2     2.071541671512   108.58541186     2.44883257
 H      9   2   1     2.071455018220   108.62278171     4.03108161
 H      8   1   2     2.074502717819   109.59602318   242.58420692
 H      9   2   1     2.074087920455   109.32922128   123.69296002
 H      9   2   1     2.074643290222   109.63166272   244.06872453
 H      8   1   2     2.074206390481   109.44926642   122.13210689
 H      5   2   1     2.059549989529   125.29463208   180.00360020

---------------------
BASIS SET INFORMATION
---------------------
There are 4 groups of distinct atoms

 Group   1 Type N   : 11s6p2d1f contracted to 5s3p2d1f pattern {62111/411/11/1}
 Group   2 Type C   : 11s6p2d1f contracted to 5s3p2d1f pattern {62111/411/11/1}
 Group   3 Type Cl  : 14s9p3d1f contracted to 5s5p2d1f pattern {73211/51111/21/1}
 Group   4 Type H   : 5s1p contracted to 3s1p pattern {311/1}

Atom   0N    basis set group =>   1
Atom   1N    basis set group =>   1
Atom   2C    basis set group =>   2
Atom   3C    basis set group =>   2
Atom   4C    basis set group =>   2
Atom   5Cl   basis set group =>   3
Atom   6Cl   basis set group =>   3
Atom   7C    basis set group =>   2
Atom   8C    basis set group =>   2
Atom   9H    basis set group =>   4
Atom  10H    basis set group =>   4
Atom  11H    basis set group =>   4
Atom  12H    basis set group =>   4
Atom  13H    basis set group =>   4
Atom  14H    basis set group =>   4
Atom  15H    basis set group =>   4
---------------------------------
AUXILIARY/J BASIS SET INFORMATION
---------------------------------
There are 4 groups of distinct atoms

 Group   1 Type N   : 12s5p4d2f1g contracted to 6s4p3d1f1g pattern {711111/2111/211/2/1}
 Group   2 Type C   : 12s5p4d2f1g contracted to 6s4p3d1f1g pattern {711111/2111/211/2/1}
 Group   3 Type Cl  : 14s5p5d2f1g contracted to 8s4p3d1f1g pattern {71111111/2111/311/2/1}
 Group   4 Type H   : 5s2p1d contracted to 3s1p1d pattern {311/2/1}

Atom   0N    basis set group =>   1
Atom   1N    basis set group =>   1
Atom   2C    basis set group =>   2
Atom   3C    basis set group =>   2
Atom   4C    basis set group =>   2
Atom   5Cl   basis set group =>   3
Atom   6Cl   basis set group =>   3
Atom   7C    basis set group =>   2
Atom   8C    basis set group =>   2
Atom   9H    basis set group =>   4
Atom  10H    basis set group =>   4
Atom  11H    basis set group =>   4
Atom  12H    basis set group =>   4
Atom  13H    basis set group =>   4
Atom  14H    basis set group =>   4
Atom  15H    basis set group =>   4


           ************************************************************
           *        Program running with 4 parallel MPI-processes     *
           *              working on a common directory               *
           ************************************************************
------------------------------------------------------------------------------
                           ORCA GTO INTEGRAL CALCULATION
                           -- RI-GTO INTEGRALS CHOSEN --
------------------------------------------------------------------------------
------------------------------------------------------------------------------
                   ___                                                        
                  /   \      - P O W E R E D   B Y -                         
                 /     \                                                     
                 |  |  |   _    _      __       _____    __    __             
                 |  |  |  | |  | |    /  \     |  _  \  |  |  /  |          
                  \  \/   | |  | |   /    \    | | | |  |  | /  /          
                 / \  \   | |__| |  /  /\  \   | |_| |  |  |/  /          
                |  |  |   |  __  | /  /__\  \  |    /   |      \           
                |  |  |   | |  | | |   __   |  |    \   |  |\   \          
                \     /   | |  | | |  |  |  |  | |\  \  |  | \   \       
                 \___/    |_|  |_| |__|  |__|  |_| \__\ |__|  \__/        
                                                                              
                      - O R C A' S   B I G   F R I E N D -                    
                                      &                                       
                       - I N T E G R A L  F E E D E R -                       
                                                                              
 v1 FN, 2020, v2 2021                                                         
------------------------------------------------------------------------------


Reading SHARK input file 3_prot.SHARKINP.tmp ... ok
----------------------
SHARK INTEGRAL PACKAGE
----------------------

Number of atoms                             ...     16
Number of basis functions                   ...    333
Number of shells                            ...    131
Maximum angular momentum                    ...      3
Integral batch strategy                     ... SHARK/LIBINT Hybrid
RI-J (if used) integral strategy            ... SPLIT-RIJ (Revised 2003 algorithm where possible)
Printlevel                                  ...      1
Contraction scheme used                     ... SEGMENTED contraction
Coulomb Range Separation                    ... NOT USED
Exchange Range Separation                   ... Long Range
   Mu parameter                             ...  0.300000
   Scaling (regular/separated)              ...  0.157706  0.842294
Finite Nucleus Model                        ... NOT USED
Auxiliary Coulomb fitting basis             ... AVAILABLE
   # of basis functions in Aux-J            ...    522
   # of shells in Aux-J                     ...    174
   Maximum angular momentum in Aux-J        ...      4
Auxiliary J/K fitting basis                 ... NOT available
Auxiliary Correlation fitting basis         ... NOT available
Auxiliary 'external' fitting basis          ... NOT available
Integral threshold                          ...     2.500000e-11
Primitive cut-off                           ...     2.500000e-12
Primitive pair pre-selection threshold      ...     2.500000e-12

Calculating pre-screening integrals         ... done (  0.1 sec) Dimension = 131
Organizing shell pair data                  ... done (  0.1 sec)
Shell pair information
Total number of shell pairs                 ...      8646
Shell pairs after pre-screening             ...      7639
Total number of primitive shell pairs       ...     28213
Primitive shell pairs kept                  ...     17920
          la=0 lb=0:   1853 shell pairs
          la=1 lb=0:   2182 shell pairs
          la=1 lb=1:    673 shell pairs
          la=2 lb=0:   1078 shell pairs
          la=2 lb=1:    638 shell pairs
          la=2 lb=2:    168 shell pairs
          la=3 lb=0:    532 shell pairs
          la=3 lb=1:    314 shell pairs
          la=3 lb=2:    156 shell pairs
          la=3 lb=3:     45 shell pairs

Calculating one electron integrals          ... done (  0.0 sec)
Calculating RI/J V-Matrix + Cholesky decomp.... done (  0.0 sec)
Calculating Nuclear repulsion               ... done (  0.0 sec) ENN=    622.743349424410 Eh

SHARK setup successfully completed in   0.4 seconds

Maximum memory used throughout the entire GTOINT-calculation: 22.5 MB


           ************************************************************
           *        Program running with 4 parallel MPI-processes     *
           *              working on a common directory               *
           ************************************************************
-------------------------------------------------------------------------------
                                 ORCA SCF
-------------------------------------------------------------------------------

------------
SCF SETTINGS
------------
Hamiltonian:
 Density Functional     Method          .... DFT(GTOs)
 Exchange Functional    Exchange        .... WB97X
 Correlation Functional Correlation     .... WB97X
 Gradients option       PostSCFGGA      .... off
 Hybrid DFT is turned on
   Fraction HF Exchange ScalHFX         ....  0.157706
   Scaling of DF-GGA-X  ScalDFX         ....  0.000000
   Scaling of DF-GGA-C  ScalDFC         ....  1.000000
   Scaling of DF-LDA-C  ScalLDAC        ....  1.000000
   Perturbative correction              ....  0.000000
   Density functional embedding theory  .... OFF
 Long-range corrected/Screened/Range-Separated Hybrid DFT is turned on
   Amount of maximum screened exact exchange              ....  0.842294
   Range separation parameter mu (erf(mu*r12)/r12)        ....  0.300000
 RI-approximation to the Coulomb term is turned on
   Number of AuxJ basis functions       .... 522
   RIJ-COSX (HFX calculated with COS-X)).... on


General Settings:
 Integral files         IntName         .... 3_prot
 Hartree-Fock type      HFTyp           .... RHF
 Total Charge           Charge          ....    1
 Multiplicity           Mult            ....    1
 Number of Electrons    NEL             ....   84
 Basis Dimension        Dim             ....  333
 Nuclear Repulsion      ENuc            ....    622.7433494244 Eh

Convergence Acceleration:
 DIIS                   CNVDIIS         .... on
   Start iteration      DIISMaxIt       ....     0
   Startup error        DIISStart       ....  0.200000
   # of expansion vecs  DIISMaxEq       ....     5
   Bias factor          DIISBfac        ....   1.050
   Max. coefficient     DIISMaxC        ....  10.000
 Trust-Rad. Augm. Hess. CNVTRAH         .... auto
   Auto Start mean grad. ratio tolernc. ....  1.125000
   Auto Start start iteration           ....    20
   Auto Start num. interpolation iter.  ....    10
   Max. Number of Micro iterations      ....    16
   Max. Number of Macro iterations      .... Maxiter - #DIIS iter
   Number of Davidson start vectors     ....     2
   Converg. threshold I  (grad. norm)   ....   1.000e-05
   Converg. threshold II (energy diff.) ....   1.000e-08
   Grad. Scal. Fac. for Micro threshold ....   0.100
   Minimum threshold for Micro iter.    ....   0.010
   NR start threshold (gradient norm)   ....   0.001
   Initial trust radius                 ....   0.400
   Minimum AH scaling param. (alpha)    ....   1.000
   Maximum AH scaling param. (alpha)    .... 1000.000
   Orbital update algorithm             .... Taylor
   White noise on init. David. guess    .... on
   Maximum white noise                  ....   0.010
   Quad. conv. algorithm                .... NR
 SOSCF                  CNVSOSCF        .... on
   Start iteration      SOSCFMaxIt      ....   150
   Startup grad/error   SOSCFStart      ....  0.001000
 Level Shifting         CNVShift        .... on
   Level shift para.    LevelShift      ....    0.2500
   Turn off err/grad.   ShiftErr        ....    0.0000
 Zerner damping         CNVZerner       .... off
 Static damping         CNVDamp         .... on
   Fraction old density DampFac         ....    0.8500
   Max. Damping (<1)    DampMax         ....    0.9800
   Min. Damping (>=0)   DampMin         ....    0.0000
   Turn off err/grad.   DampErr         ....    0.0300
 Fernandez-Rico         CNVRico         .... off

SCF Procedure:
 Maximum # iterations   MaxIter         ....   125
 SCF integral mode      SCFMode         .... Direct
   Integral package                     .... SHARK and LIBINT hybrid scheme
 Reset frequency        DirectResetFreq ....    20
 Integral Threshold     Thresh          ....  2.500e-11 Eh
 Primitive CutOff       TCut            ....  2.500e-12 Eh

Convergence Tolerance:
 Convergence Check Mode ConvCheckMode   .... Total+1el-Energy
 Convergence forced     ConvForced      .... 0
 Energy Change          TolE            ....  1.000e-08 Eh
 1-El. energy change                    ....  1.000e-05 Eh
 Orbital Gradient       TolG            ....  1.000e-05
 Orbital Rotation angle TolX            ....  1.000e-05
 DIIS Error             TolErr          ....  5.000e-07


Diagonalization of the overlap matrix:
Smallest eigenvalue                        ... 7.037e-05
Time for diagonalization                   ...    0.018 sec
Threshold for overlap eigenvalues          ... 1.000e-08
Number of eigenvalues below threshold      ... 0
Time for construction of square roots      ...    0.009 sec
Total time needed                          ...    0.028 sec

Time for model grid setup =    0.154 sec

------------------------------
INITIAL GUESS: MODEL POTENTIAL
------------------------------
Loading Hartree-Fock densities                     ... done
Calculating cut-offs                               ... done
Initializing the effective Hamiltonian             ... done
Setting up the integral package (SHARK)            ... done
Starting the Coulomb interaction                   ... done (   0.2 sec)
Reading the grid                                   ... done
Mapping shells                                     ... done
Starting the XC term evaluation                    ... done (   0.2 sec)
  promolecular density results
     # of electrons  =     84.994085533
     EX              =    -95.604193198
     EC              =     -3.061552483
     EX+EC           =    -98.665745681
Transforming the Hamiltonian                       ... done (   0.0 sec)
Diagonalizing the Hamiltonian                      ... done (   0.0 sec)
Back transforming the eigenvectors                 ... done (   0.0 sec)
Now organizing SCF variables                       ... done
                      ------------------
                      INITIAL GUESS DONE (   0.6 sec)
                      ------------------
-------------------
DFT GRID GENERATION
-------------------

General Integration Accuracy     IntAcc      ... 4.388
Radial Grid Type                 RadialGrid  ... OptM3 with GC (2021)
Angular Grid (max. ang.)         AngularGrid ... 4 (Lebedev-302)
Angular grid pruning method      GridPruning ... 4 (adaptive)
Weight generation scheme         WeightScheme... Becke
Basis function cutoff            BFCut       ... 1.0000e-11
Integration weight cutoff        WCut        ... 1.0000e-14
Angular grids for H and He will be reduced by one unit
Partially contracted basis set               ... off
Rotationally invariant grid construction     ... off

Total number of grid points                  ...    79197
Total number of batches                      ...     1247
Average number of points per batch           ...       63
Average number of grid points per atom       ...     4950
Time for grid setup =    0.630 sec

--------------------
COSX GRID GENERATION
--------------------

GRIDX 1
-------
General Integration Accuracy     IntAcc      ... 3.816
Radial Grid Type                 RadialGrid  ... OptM3 with GC (2021)
Angular Grid (max. ang.)         AngularGrid ... 1 (Lebedev-50)
Angular grid pruning method      GridPruning ... 4 (adaptive)
Weight generation scheme         WeightScheme... Becke
Basis function cutoff            BFCut       ... 1.0000e-11
Integration weight cutoff        WCut        ... 1.0000e-14
Angular grids for H and He will be reduced by one unit
Partially contracted basis set               ... on
Rotationally invariant grid construction     ... off

Total number of grid points                  ...     9939
Total number of batches                      ...      165
Average number of points per batch           ...       60
Average number of grid points per atom       ...      621
UseSFitting                                  ... on

GRIDX 2
-------
General Integration Accuracy     IntAcc      ... 4.020
Radial Grid Type                 RadialGrid  ... OptM3 with GC (2021)
Angular Grid (max. ang.)         AngularGrid ... 2 (Lebedev-110)
Angular grid pruning method      GridPruning ... 4 (adaptive)
Weight generation scheme         WeightScheme... Becke
Basis function cutoff            BFCut       ... 1.0000e-11
Integration weight cutoff        WCut        ... 1.0000e-14
Angular grids for H and He will be reduced by one unit
Partially contracted basis set               ... on
Rotationally invariant grid construction     ... off

Total number of grid points                  ...    21775
Total number of batches                      ...      349
Average number of points per batch           ...       62
Average number of grid points per atom       ...     1361
UseSFitting                                  ... on

GRIDX 3
-------
General Integration Accuracy     IntAcc      ... 4.338
Radial Grid Type                 RadialGrid  ... OptM3 with GC (2021)
Angular Grid (max. ang.)         AngularGrid ... 3 (Lebedev-194)
Angular grid pruning method      GridPruning ... 4 (adaptive)
Weight generation scheme         WeightScheme... Becke
Basis function cutoff            BFCut       ... 1.0000e-11
Integration weight cutoff        WCut        ... 1.0000e-14
Angular grids for H and He will be reduced by one unit
Partially contracted basis set               ... on
Rotationally invariant grid construction     ... off

Total number of grid points                  ...    49101
Total number of batches                      ...      774
Average number of points per batch           ...       63
Average number of grid points per atom       ...     3069
UseSFitting                                  ... on

Time for X-Grid setup             =    0.744 sec

--------------
SCF ITERATIONS
--------------
ITER       Energy         Delta-E        Max-DP      RMS-DP      [F,P]     Damp
               ***  Starting incremental Fock matrix formation  ***
  0  -1224.3845378159   0.000000000000 0.01105838  0.00024376  0.1119502 0.8500
  1  -1224.3995215083  -0.014983692467 0.01219567  0.00024589  0.0899182 0.8500
                               ***Turning on DIIS***
  2  -1224.4109974094  -0.011475901104 0.01170023  0.00021565  0.0688792 0.8500
  3  -1224.4196758701  -0.008678460685 0.01192319  0.00018978  0.0520935 0.8500
  4  -1224.4264830393  -0.006807169146 0.01153398  0.00016987  0.0413932 0.8500
  5  -1224.4319130358  -0.005429996480 0.01052894  0.00015034  0.0343069 0.8500
  6  -1224.4363725360  -0.004459500278 0.06220712  0.00087668  0.0289891 0.0000
  7  -1224.4603411263  -0.023968590299 0.00335881  0.00004234  0.0010235 0.0000
                      *** Initiating the SOSCF procedure ***
                           *** Shutting down DIIS ***
                      *** Re-Reading the Fockian *** 
                      *** Removing any level shift *** 
ITER      Energy       Delta-E        Grad      Rot      Max-DP    RMS-DP
  8  -1224.46036162  -0.0000204972  0.000502  0.000502  0.001598  0.000019
               *** Restarting incremental Fock matrix formation ***
  9  -1224.46035117   0.0000104494  0.000332  0.000603  0.000557  0.000009
 10  -1224.46035241  -0.0000012407  0.000089  0.000371  0.000598  0.000007
 11  -1224.46035278  -0.0000003619  0.000024  0.000055  0.000155  0.000002
 12  -1224.46035281  -0.0000000372  0.000009  0.000021  0.000019  0.000000
                 **** Energy Check signals convergence ****
              ***Rediagonalizing the Fockian in SOSCF/NRSCF***

               *****************************************************
               *                     SUCCESS                       *
               *           SCF CONVERGED AFTER  13 CYCLES          *
               *****************************************************

Old exchange energy                            =    -26.436981508 Eh
New exchange energy                            =    -26.436978089 Eh
Exchange energy change after final integration =      0.000003419 Eh
Total energy after final integration           =  -1224.460349400 Eh
Final COS-X integration done in                =    18.253 sec

----------------
TOTAL SCF ENERGY
----------------

Total Energy       :        -1224.46034940 Eh          -33319.26003 eV

Components:
Nuclear Repulsion  :          622.74334942 Eh           16945.70804 eV
Electronic Energy  :        -1847.20369882 Eh          -50264.96807 eV
One Electron Energy:        -2903.62911460 Eh          -79011.76509 eV
Two Electron Energy:         1056.42541577 Eh           28746.79702 eV
Max COSX asymmetry :            0.00000116 Eh               0.00003 eV

Virial components:
Potential Energy   :        -2446.10471095 Eh          -66561.89313 eV
Kinetic Energy     :         1221.64436155 Eh           33242.63310 eV
Virial Ratio       :            2.00230508


DFT components:
N(Alpha)           :       41.999974758554 electrons
N(Beta)            :       41.999974758554 electrons
N(Total)           :       83.999949517109 electrons
E(XC)              :      -73.396717136991 Eh       
DFET-embed. en.    :        0.000000000000 Eh       

---------------
SCF CONVERGENCE
---------------

  Last Energy change         ...   -5.1041e-09  Tolerance :   1.0000e-08
  Last MAX-Density change    ...    3.5527e-15  Tolerance :   1.0000e-07
  Last RMS-Density change    ...    2.1795e-17  Tolerance :   5.0000e-09
  Last Orbital Gradient      ...    5.9795e-06  Tolerance :   1.0000e-05
  Last Orbital Rotation      ...    1.0213e-05  Tolerance :   1.0000e-05

             **** THE GBW FILE WAS UPDATED (3_prot.gbw) ****
             **** DENSITY 3_prot.scfp WAS UPDATED ****
             **** ENERGY FILE WAS UPDATED (3_prot.en.tmp) ****
             **** THE GBW FILE WAS UPDATED (3_prot.gbw) ****
             **** DENSITY 3_prot.scfp WAS UPDATED ****
----------------
ORBITAL ENERGIES
----------------

  NO   OCC          E(Eh)            E(eV) 
   0   2.0000    -101.678897     -2766.8234 
   1   2.0000    -101.678866     -2766.8226 
   2   2.0000     -14.673081      -399.2748 
   3   2.0000     -14.673049      -399.2740 
   4   2.0000     -10.540729      -286.8278 
   5   2.0000     -10.536353      -286.7087 
   6   2.0000     -10.535696      -286.6909 
   7   2.0000     -10.473319      -284.9935 
   8   2.0000     -10.473301      -284.9930 
   9   2.0000      -9.727663      -264.7032 
  10   2.0000      -9.727627      -264.7022 
  11   2.0000      -7.489708      -203.8053 
  12   2.0000      -7.489675      -203.8044 
  13   2.0000      -7.478906      -203.5114 
  14   2.0000      -7.478871      -203.5104 
  15   2.0000      -7.478732      -203.5066 
  16   2.0000      -7.478699      -203.5057 
  17   2.0000      -1.396627       -38.0042 
  18   2.0000      -1.277527       -34.7633 
  19   2.0000      -1.198971       -32.6257 
  20   2.0000      -1.159888       -31.5622 
  21   2.0000      -1.094357       -29.7790 
  22   2.0000      -1.047070       -28.4922 
  23   2.0000      -1.004129       -27.3237 
  24   2.0000      -0.920155       -25.0387 
  25   2.0000      -0.913121       -24.8473 
  26   2.0000      -0.837425       -22.7875 
  27   2.0000      -0.814610       -22.1667 
  28   2.0000      -0.772955       -21.0332 
  29   2.0000      -0.761775       -20.7290 
  30   2.0000      -0.744987       -20.2721 
  31   2.0000      -0.743156       -20.2223 
  32   2.0000      -0.730979       -19.8910 
  33   2.0000      -0.692542       -18.8450 
  34   2.0000      -0.689345       -18.7580 
  35   2.0000      -0.682883       -18.5822 
  36   2.0000      -0.642906       -17.4944 
  37   2.0000      -0.629925       -17.1411 
  38   2.0000      -0.598128       -16.2759 
  39   2.0000      -0.598087       -16.2748 
  40   2.0000      -0.570428       -15.5221 
  41   2.0000      -0.501527       -13.6473 
  42   0.0000      -0.111813        -3.0426 
  43   0.0000      -0.078658        -2.1404 
  44   0.0000      -0.051629        -1.4049 
  45   0.0000      -0.030773        -0.8374 
  46   0.0000      -0.019969        -0.5434 
  47   0.0000      -0.005661        -0.1540 
  48   0.0000      -0.003533        -0.0961 
  49   0.0000       0.026914         0.7324 
  50   0.0000       0.032250         0.8776 
  51   0.0000       0.049560         1.3486 
  52   0.0000       0.053184         1.4472 
  53   0.0000       0.058552         1.5933 
  54   0.0000       0.064598         1.7578 
  55   0.0000       0.081616         2.2209 
  56   0.0000       0.081996         2.2312 
  57   0.0000       0.084860         2.3092 
  58   0.0000       0.104046         2.8312 
  59   0.0000       0.117667         3.2019 
  60   0.0000       0.124332         3.3833 
  61   0.0000       0.140104         3.8124 
  62   0.0000       0.164461         4.4752 
  63   0.0000       0.169426         4.6103 
  64   0.0000       0.172859         4.7037 
  65   0.0000       0.189651         5.1607 
  66   0.0000       0.193661         5.2698 
  67   0.0000       0.210063         5.7161 
  68   0.0000       0.236885         6.4460 
  69   0.0000       0.241268         6.5652 
  70   0.0000       0.245544         6.6816 
  71   0.0000       0.252813         6.8794 
  72   0.0000       0.256554         6.9812 
  73   0.0000       0.266415         7.2495 
  74   0.0000       0.287177         7.8145 
  75   0.0000       0.294755         8.0207 
  76   0.0000       0.301822         8.2130 
  77   0.0000       0.308387         8.3916 
  78   0.0000       0.320615         8.7244 
  79   0.0000       0.324212         8.8222 
  80   0.0000       0.324986         8.8433 
  81   0.0000       0.350732         9.5439 
  82   0.0000       0.361352         9.8329 
  83   0.0000       0.363849         9.9008 
  84   0.0000       0.367599        10.0029 
  85   0.0000       0.388656        10.5759 
  86   0.0000       0.397108        10.8058 
  87   0.0000       0.402208        10.9446 
  88   0.0000       0.418262        11.3815 
  89   0.0000       0.422509        11.4970 
  90   0.0000       0.428651        11.6642 
  91   0.0000       0.436578        11.8799 
  92   0.0000       0.453918        12.3517 
  93   0.0000       0.454845        12.3770 
  94   0.0000       0.458049        12.4642 
  95   0.0000       0.478988        13.0339 
  96   0.0000       0.488223        13.2852 
  97   0.0000       0.496565        13.5122 
  98   0.0000       0.527549        14.3553 
  99   0.0000       0.552741        15.0408 
 100   0.0000       0.559600        15.2275 
 101   0.0000       0.562382        15.3032 
 102   0.0000       0.566538        15.4163 
 103   0.0000       0.585294        15.9267 
 104   0.0000       0.602831        16.4039 
 105   0.0000       0.627182        17.0665 
 106   0.0000       0.630248        17.1499 
 107   0.0000       0.632720        17.2172 
 108   0.0000       0.646595        17.5947 
 109   0.0000       0.659220        17.9383 
 110   0.0000       0.669701        18.2235 
 111   0.0000       0.686657        18.6849 
 112   0.0000       0.763787        20.7837 
 113   0.0000       0.768456        20.9108 
 114   0.0000       0.774713        21.0810 
 115   0.0000       0.814634        22.1673 
 116   0.0000       0.824919        22.4472 
 117   0.0000       0.841934        22.9102 
 118   0.0000       0.876251        23.8440 
 119   0.0000       0.881551        23.9882 
 120   0.0000       0.904797        24.6208 
 121   0.0000       0.941572        25.6215 
 122   0.0000       0.971189        26.4274 
 123   0.0000       0.988627        26.9019 
 124   0.0000       0.992569        27.0092 
 125   0.0000       0.994178        27.0529 
 126   0.0000       0.997473        27.1426 
 127   0.0000       1.019450        27.7407 
 128   0.0000       1.036640        28.2084 
 129   0.0000       1.050586        28.5879 
 130   0.0000       1.058037        28.7907 
 131   0.0000       1.062173        28.9032 
 132   0.0000       1.119165        30.4540 
 133   0.0000       1.140900        31.0455 
 134   0.0000       1.220381        33.2082 
 135   0.0000       1.240726        33.7619 
 136   0.0000       1.265462        34.4350 
 137   0.0000       1.270476        34.5714 
 138   0.0000       1.343767        36.5658 
 139   0.0000       1.372816        37.3562 
 140   0.0000       1.400837        38.1187 
 141   0.0000       1.409039        38.3419 
 142   0.0000       1.428906        38.8825 
 143   0.0000       1.433473        39.0068 
 144   0.0000       1.452012        39.5113 
 145   0.0000       1.453472        39.5510 
 146   0.0000       1.460683        39.7472 
 147   0.0000       1.470625        40.0177 
 148   0.0000       1.482049        40.3286 
 149   0.0000       1.497525        40.7497 
 150   0.0000       1.503698        40.9177 
 151   0.0000       1.520234        41.3677 
 152   0.0000       1.550961        42.2038 
 153   0.0000       1.554715        42.3059 
 154   0.0000       1.560097        42.4524 
 155   0.0000       1.572666        42.7944 
 156   0.0000       1.595367        43.4122 
 157   0.0000       1.614848        43.9423 
 158   0.0000       1.647232        44.8235 
 159   0.0000       1.659838        45.1665 
 160   0.0000       1.696398        46.1613 
 161   0.0000       1.708264        46.4842 
 162   0.0000       1.722862        46.8815 
 163   0.0000       1.731462        47.1155 
 164   0.0000       1.742007        47.4024 
 165   0.0000       1.746787        47.5325 
 166   0.0000       1.763398        47.9845 
 167   0.0000       1.766523        48.0695 
 168   0.0000       1.791818        48.7578 
 169   0.0000       1.792710        48.7821 
 170   0.0000       1.811586        49.2958 
 171   0.0000       1.825958        49.6868 
 172   0.0000       1.830174        49.8016 
 173   0.0000       1.852667        50.4136 
 174   0.0000       1.883367        51.2490 
 175   0.0000       1.904454        51.8228 
 176   0.0000       1.922694        52.3192 
 177   0.0000       1.938437        52.7475 
 178   0.0000       1.958285        53.2876 
 179   0.0000       1.966858        53.5209 
 180   0.0000       2.000010        54.4230 
 181   0.0000       2.003180        54.5093 
 182   0.0000       2.015334        54.8400 
 183   0.0000       2.026854        55.1535 
 184   0.0000       2.028273        55.1921 
 185   0.0000       2.037519        55.4437 
 186   0.0000       2.047147        55.7057 
 187   0.0000       2.062904        56.1345 
 188   0.0000       2.078641        56.5627 
 189   0.0000       2.119394        57.6716 
 190   0.0000       2.122544        57.7573 
 191   0.0000       2.129765        57.9539 
 192   0.0000       2.169978        59.0481 
 193   0.0000       2.171099        59.0786 
 194   0.0000       2.183590        59.4185 
 195   0.0000       2.186501        59.4977 
 196   0.0000       2.197803        59.8053 
 197   0.0000       2.205012        60.0014 
 198   0.0000       2.216445        60.3125 
 199   0.0000       2.236034        60.8456 
 200   0.0000       2.242666        61.0260 
 201   0.0000       2.249901        61.2229 
 202   0.0000       2.255039        61.3627 
 203   0.0000       2.259688        61.4892 
 204   0.0000       2.297257        62.5115 
 205   0.0000       2.304123        62.6984 
 206   0.0000       2.317573        63.0644 
 207   0.0000       2.335205        63.5442 
 208   0.0000       2.368563        64.4519 
 209   0.0000       2.392538        65.1043 
 210   0.0000       2.409461        65.5648 
 211   0.0000       2.417681        65.7884 
 212   0.0000       2.461817        66.9894 
 213   0.0000       2.471819        67.2616 
 214   0.0000       2.508735        68.2662 
 215   0.0000       2.511570        68.3433 
 216   0.0000       2.514164        68.4139 
 217   0.0000       2.517642        68.5085 
 218   0.0000       2.542771        69.1923 
 219   0.0000       2.553809        69.4927 
 220   0.0000       2.579649        70.1958 
 221   0.0000       2.596871        70.6645 
 222   0.0000       2.692254        73.2600 
 223   0.0000       2.735964        74.4494 
 224   0.0000       2.738712        74.5241 
 225   0.0000       2.741712        74.6058 
 226   0.0000       2.788622        75.8823 
 227   0.0000       2.830831        77.0308 
 228   0.0000       2.839778        77.2743 
 229   0.0000       2.869904        78.0941 
 230   0.0000       2.876505        78.2737 
 231   0.0000       2.897638        78.8487 
 232   0.0000       2.947432        80.2037 
 233   0.0000       2.949951        80.2723 
 234   0.0000       2.981724        81.1368 
 235   0.0000       3.003549        81.7307 
 236   0.0000       3.019179        82.1560 
 237   0.0000       3.023807        82.2820 
 238   0.0000       3.026388        82.3522 
 239   0.0000       3.047755        82.9336 
 240   0.0000       3.057707        83.2044 
 241   0.0000       3.088534        84.0433 
 242   0.0000       3.100824        84.3777 
 243   0.0000       3.118028        84.8459 
 244   0.0000       3.135081        85.3099 
 245   0.0000       3.140193        85.4490 
 246   0.0000       3.143201        85.5309 
 247   0.0000       3.172419        86.3259 
 248   0.0000       3.189227        86.7833 
 249   0.0000       3.222602        87.6915 
 250   0.0000       3.242460        88.2318 
 251   0.0000       3.246470        88.3409 
 252   0.0000       3.267830        88.9222 
 253   0.0000       3.277117        89.1749 
 254   0.0000       3.288275        89.4785 
 255   0.0000       3.296176        89.6935 
 256   0.0000       3.309253        90.0494 
 257   0.0000       3.381442        92.0137 
 258   0.0000       3.402474        92.5860 
 259   0.0000       3.414910        92.9244 
 260   0.0000       3.421600        93.1065 
 261   0.0000       3.443581        93.7046 
 262   0.0000       3.459612        94.1408 
 263   0.0000       3.470156        94.4277 
 264   0.0000       3.509218        95.4907 
 265   0.0000       3.511333        95.5482 
 266   0.0000       3.524218        95.8989 
 267   0.0000       3.541002        96.3556 
 268   0.0000       3.580402        97.4277 
 269   0.0000       3.635415        98.9247 
 270   0.0000       3.647126        99.2433 
 271   0.0000       3.684403       100.2577 
 272   0.0000       3.776849       102.7733 
 273   0.0000       3.827659       104.1559 
 274   0.0000       3.829265       104.1996 
 275   0.0000       3.889668       105.8433 
 276   0.0000       3.905891       106.2847 
 277   0.0000       3.966873       107.9441 
 278   0.0000       4.044794       110.0645 
 279   0.0000       4.071030       110.7784 
 280   0.0000       4.105290       111.7106 
 281   0.0000       4.116455       112.0144 
 282   0.0000       4.119772       112.1047 
 283   0.0000       4.158357       113.1546 
 284   0.0000       4.159825       113.1946 
 285   0.0000       4.207566       114.4937 
 286   0.0000       4.307336       117.2086 
 287   0.0000       4.329454       117.8104 
 288   0.0000       4.338741       118.0631 
 289   0.0000       4.384819       119.3170 
 290   0.0000       4.516350       122.8961 
 291   0.0000       4.590692       124.9191 
 292   0.0000       4.632836       126.0659 
 293   0.0000       4.671967       127.1307 
 294   0.0000       4.731980       128.7637 
 295   0.0000       4.811057       130.9155 
 296   0.0000       4.838239       131.6552 
 297   0.0000       4.842531       131.7720 
 298   0.0000       4.927157       134.0748 
 299   0.0000       4.933766       134.2546 
 300   0.0000       4.984965       135.6478 
 301   0.0000       5.027998       136.8188 
 302   0.0000       5.033774       136.9759 
 303   0.0000       5.101476       138.8182 
 304   0.0000       5.138231       139.8184 
 305   0.0000       5.151032       140.1667 
 306   0.0000       5.248121       142.8086 
 307   0.0000       5.278215       143.6275 
 308   0.0000       5.341587       145.3520 
 309   0.0000       5.419595       147.4747 
 310   0.0000       5.456400       148.4762 
 311   0.0000       5.594494       152.2339 
 312   0.0000       5.650261       153.7514 
 313   0.0000       5.696096       154.9986 
 314   0.0000       5.746788       156.3780 
 315   0.0000       5.914917       160.9531 
 316   0.0000       5.977476       162.6554 
 317   0.0000       6.042804       164.4330 
 318   0.0000      10.652512       289.8696 
 319   0.0000      10.686909       290.8056 
 320   0.0000      10.715078       291.5721 
 321   0.0000      10.793373       293.7026 
 322   0.0000      11.272831       306.7493 
 323   0.0000      11.360728       309.1411 
 324   0.0000      22.244698       605.3090 
 325   0.0000      22.312767       607.1613 
 326   0.0000      22.341218       607.9355 
 327   0.0000      22.692892       617.5050 
 328   0.0000      22.860722       622.0719 
 329   0.0000      25.801966       702.1072 
 330   0.0000      26.364913       717.4258 
 331   0.0000      32.664321       888.8414 
 332   0.0000      32.806524       892.7109 

                    ********************************
                    * MULLIKEN POPULATION ANALYSIS *
                    ********************************

-----------------------
MULLIKEN ATOMIC CHARGES
-----------------------
   0 N :   -0.069457
   1 N :   -0.069195
   2 C :    0.035876
   3 C :    0.034911
   4 C :    0.114989
   5 Cl:    0.098379
   6 Cl:    0.098323
   7 C :   -0.304629
   8 C :   -0.304768
   9 H :    0.165335
  10 H :    0.165562
  11 H :    0.195961
  12 H :    0.193571
  13 H :    0.196497
  14 H :    0.194257
  15 H :    0.254387
Sum of atomic charges:    1.0000000

--------------------------------
MULLIKEN REDUCED ORBITAL CHARGES
--------------------------------
  0 N s       :     3.461762  s :     3.461762
      pz      :     1.069370  p :     3.502964
      px      :     1.383625
      py      :     1.049968
      dz2     :     0.021778  d :     0.099003
      dxz     :     0.019779
      dyz     :     0.026178
      dx2y2   :     0.013383
      dxy     :     0.017885
      f0      :     0.000706  f :     0.005728
      f+1     :     0.000654
      f-1     :     0.001171
      f+2     :     0.000725
      f-2     :     0.000721
      f+3     :     0.000918
      f-3     :     0.000833
  1 N s       :     3.461748  s :     3.461748
      pz      :     1.069012  p :     3.502728
      px      :     1.383641
      py      :     1.050075
      dz2     :     0.021948  d :     0.098991
      dxz     :     0.019575
      dyz     :     0.026150
      dx2y2   :     0.013395
      dxy     :     0.017923
      f0      :     0.000680  f :     0.005727
      f+1     :     0.000677
      f-1     :     0.001213
      f+2     :     0.000713
      f-2     :     0.000677
      f+3     :     0.000921
      f-3     :     0.000846
  2 C s       :     3.057869  s :     3.057869
      pz      :     0.728616  p :     2.699099
      px      :     1.050678
      py      :     0.919805
      dz2     :     0.050020  d :     0.192095
      dxz     :     0.037808
      dyz     :     0.047937
      dx2y2   :     0.021639
      dxy     :     0.034692
      f0      :     0.003248  f :     0.015061
      f+1     :     0.002507
      f-1     :     0.002494
      f+2     :     0.002188
      f-2     :     0.001389
      f+3     :     0.002093
      f-3     :     0.001142
  3 C s       :     3.058419  s :     3.058419
      pz      :     0.729441  p :     2.699519
      px      :     1.050689
      py      :     0.919389
      dz2     :     0.050206  d :     0.192086
      dxz     :     0.037380
      dyz     :     0.047399
      dx2y2   :     0.022051
      dxy     :     0.035051
      f0      :     0.003157  f :     0.015065
      f+1     :     0.002565
      f-1     :     0.002590
      f+2     :     0.002124
      f-2     :     0.001316
      f+3     :     0.002130
      f-3     :     0.001183
  4 C s       :     3.083672  s :     3.083672
      pz      :     0.977502  p :     2.652625
      px      :     0.940708
      py      :     0.734415
      dz2     :     0.025610  d :     0.132890
      dxz     :     0.013893
      dyz     :     0.029811
      dx2y2   :     0.018263
      dxy     :     0.045315
      f0      :     0.001970  f :     0.015823
      f+1     :     0.000610
      f-1     :     0.003997
      f+2     :     0.001914
      f-2     :     0.003580
      f+3     :     0.002211
      f-3     :     0.001541
  5 Cls       :     5.878508  s :     5.878508
      pz      :     3.448131  p :    10.947817
      px      :     3.892540
      py      :     3.607145
      dz2     :     0.013350  d :     0.068598
      dxz     :     0.012063
      dyz     :     0.028252
      dx2y2   :     0.006810
      dxy     :     0.008123
      f0      :     0.000805  f :     0.006698
      f+1     :     0.000471
      f-1     :     0.002326
      f+2     :     0.001451
      f-2     :     0.001084
      f+3     :     0.000298
      f-3     :     0.000262
  6 Cls       :     5.878511  s :     5.878511
      pz      :     3.469791  p :    10.947841
      px      :     3.886742
      py      :     3.591309
      dz2     :     0.012276  d :     0.068624
      dxz     :     0.011834
      dyz     :     0.028319
      dx2y2   :     0.007438
      dxy     :     0.008757
      f0      :     0.000760  f :     0.006701
      f+1     :     0.000442
      f-1     :     0.002208
      f+2     :     0.001503
      f-2     :     0.001144
      f+3     :     0.000340
      f-3     :     0.000304
  7 C s       :     3.330598  s :     3.330598
      pz      :     1.073794  p :     2.908976
      px      :     1.109257
      py      :     0.725925
      dz2     :     0.011443  d :     0.060065
      dxz     :     0.004682
      dyz     :     0.010932
      dx2y2   :     0.010499
      dxy     :     0.022510
      f0      :     0.001001  f :     0.004989
      f+1     :     0.000008
      f-1     :     0.000673
      f+2     :     0.000610
      f-2     :     0.000254
      f+3     :     0.001237
      f-3     :     0.001206
  8 C s       :     3.330871  s :     3.330871
      pz      :     1.066945  p :     2.908868
      px      :     1.111076
      py      :     0.730848
      dz2     :     0.011649  d :     0.060037
      dxz     :     0.004652
      dyz     :     0.010965
      dx2y2   :     0.010322
      dxy     :     0.022450
      f0      :     0.000996  f :     0.004991
      f+1     :    -0.000025
      f-1     :     0.000728
      f+2     :     0.000605
      f-2     :     0.000302
      f+3     :     0.001208
      f-3     :     0.001178
  9 H s       :     0.812306  s :     0.812306
      pz      :     0.015049  p :     0.022359
      px      :     0.004271
      py      :     0.003039
 10 H s       :     0.812086  s :     0.812086
      pz      :     0.015127  p :     0.022352
      px      :     0.004234
      py      :     0.002991
 11 H s       :     0.782156  s :     0.782156
      pz      :     0.004642  p :     0.021883
      px      :     0.010073
      py      :     0.007167
 12 H s       :     0.784490  s :     0.784490
      pz      :     0.005080  p :     0.021940
      px      :     0.011904
      py      :     0.004955
 13 H s       :     0.781627  s :     0.781627
      pz      :     0.004661  p :     0.021876
      px      :     0.010031
      py      :     0.007183
 14 H s       :     0.783823  s :     0.783823
      pz      :     0.005350  p :     0.021919
      px      :     0.011770
      py      :     0.004799
 15 H s       :     0.723859  s :     0.723859
      pz      :     0.016210  p :     0.021754
      px      :     0.003776
      py      :     0.001767


                     *******************************
                     * LOEWDIN POPULATION ANALYSIS *
                     *******************************

----------------------
LOEWDIN ATOMIC CHARGES
----------------------
   0 N :    0.258354
   1 N :    0.258334
   2 C :   -0.523521
   3 C :   -0.523584
   4 C :   -0.141170
   5 Cl:    0.550178
   6 Cl:    0.550332
   7 C :   -0.225819
   8 C :   -0.225873
   9 H :    0.141152
  10 H :    0.141137
  11 H :    0.142698
  12 H :    0.142374
  13 H :    0.142754
  14 H :    0.142483
  15 H :    0.170173

-------------------------------
LOEWDIN REDUCED ORBITAL CHARGES
-------------------------------
  0 N s       :     2.859110  s :     2.859110
      pz      :     1.153544  p :     3.522640
      px      :     1.210790
      py      :     1.158306
      dz2     :     0.079409  d :     0.335423
      dxz     :     0.062049
      dyz     :     0.105167
      dx2y2   :     0.041411
      dxy     :     0.047387
      f0      :     0.003261  f :     0.024473
      f+1     :     0.002062
      f-1     :     0.006581
      f+2     :     0.003410
      f-2     :     0.004167
      f+3     :     0.002667
      f-3     :     0.002324
  1 N s       :     2.859098  s :     2.859098
      pz      :     1.152808  p :     3.522638
      px      :     1.210949
      py      :     1.158882
      dz2     :     0.080086  d :     0.335453
      dxz     :     0.061414
      dyz     :     0.104651
      dx2y2   :     0.041622
      dxy     :     0.047681
      f0      :     0.003063  f :     0.024476
      f+1     :     0.002255
      f-1     :     0.006890
      f+2     :     0.003197
      f-2     :     0.003957
      f+3     :     0.002735
      f-3     :     0.002379
  2 C s       :     2.772179  s :     2.772179
      pz      :     0.926427  p :     2.969534
      px      :     0.986502
      py      :     1.056605
      dz2     :     0.190435  d :     0.694472
      dxz     :     0.112403
      dyz     :     0.204040
      dx2y2   :     0.081379
      dxy     :     0.106215
      f0      :     0.021670  f :     0.087336
      f+1     :     0.014110
      f-1     :     0.016748
      f+2     :     0.012316
      f-2     :     0.009121
      f+3     :     0.007074
      f-3     :     0.006297
  3 C s       :     2.772180  s :     2.772180
      pz      :     0.924661  p :     2.969509
      px      :     0.986952
      py      :     1.057895
      dz2     :     0.189982  d :     0.694542
      dxz     :     0.111864
      dyz     :     0.202690
      dx2y2   :     0.082533
      dxy     :     0.107472
      f0      :     0.021256  f :     0.087354
      f+1     :     0.014400
      f-1     :     0.017314
      f+2     :     0.011924
      f-2     :     0.008699
      f+3     :     0.007264
      f-3     :     0.006497
  4 C s       :     2.762313  s :     2.762313
      pz      :     0.983185  p :     2.766463
      px      :     0.900523
      py      :     0.882756
      dz2     :     0.134577  d :     0.522346
      dxz     :     0.033429
      dyz     :     0.138402
      dx2y2   :     0.084589
      dxy     :     0.131349
      f0      :     0.008002  f :     0.090048
      f+1     :     0.001464
      f-1     :     0.027604
      f+2     :     0.014588
      f-2     :     0.023415
      f+3     :     0.007166
      f-3     :     0.007807
  5 Cls       :     5.511992  s :     5.511992
      pz      :     3.437590  p :    10.811096
      px      :     3.807895
      py      :     3.565611
      dz2     :     0.021637  d :     0.112398
      dxz     :     0.020585
      dyz     :     0.045149
      dx2y2   :     0.010991
      dxy     :     0.014037
      f0      :     0.001730  f :     0.014336
      f+1     :     0.001113
      f-1     :     0.004758
      f+2     :     0.002930
      f-2     :     0.002640
      f+3     :     0.000653
      f-3     :     0.000512
  6 Cls       :     5.511881  s :     5.511881
      pz      :     3.455199  p :    10.811010
      px      :     3.803132
      py      :     3.552679
      dz2     :     0.019919  d :     0.112435
      dxz     :     0.020113
      dyz     :     0.045301
      dx2y2   :     0.012025
      dxy     :     0.015077
      f0      :     0.001620  f :     0.014342
      f+1     :     0.001023
      f-1     :     0.004556
      f+2     :     0.003052
      f-2     :     0.002746
      f+3     :     0.000737
      f-3     :     0.000607
  7 C s       :     2.840588  s :     2.840588
      pz      :     1.088218  p :     3.066221
      px      :     1.111356
      py      :     0.866647
      dz2     :     0.063739  d :     0.282146
      dxz     :     0.016872
      dyz     :     0.049144
      dx2y2   :     0.060051
      dxy     :     0.092339
      f0      :     0.004839  f :     0.036865
      f+1     :     0.000500
      f-1     :     0.004841
      f+2     :     0.007399
      f-2     :     0.005062
      f+3     :     0.006889
      f-3     :     0.007334
  8 C s       :     2.840641  s :     2.840641
      pz      :     1.083848  p :     3.066238
      px      :     1.112597
      py      :     0.869793
      dz2     :     0.064820  d :     0.282126
      dxz     :     0.015788
      dyz     :     0.050343
      dx2y2   :     0.058972
      dxy     :     0.092204
      f0      :     0.004753  f :     0.036868
      f+1     :     0.000488
      f-1     :     0.004935
      f+2     :     0.007527
      f-2     :     0.005391
      f+3     :     0.006649
      f-3     :     0.007126
  9 H s       :     0.797206  s :     0.797206
      pz      :     0.039396  p :     0.061642
      px      :     0.013382
      py      :     0.008865
 10 H s       :     0.797205  s :     0.797205
      pz      :     0.039475  p :     0.061658
      px      :     0.013319
      py      :     0.008865
 11 H s       :     0.795003  s :     0.795003
      pz      :     0.014674  p :     0.062299
      px      :     0.029132
      py      :     0.018493
 12 H s       :     0.795234  s :     0.795234
      pz      :     0.015866  p :     0.062392
      px      :     0.033374
      py      :     0.013152
 13 H s       :     0.794969  s :     0.794969
      pz      :     0.014731  p :     0.062277
      px      :     0.028977
      py      :     0.018569
 14 H s       :     0.795154  s :     0.795154
      pz      :     0.016585  p :     0.062362
      px      :     0.032981
      py      :     0.012795
 15 H s       :     0.766553  s :     0.766553
      pz      :     0.043932  p :     0.063274
      px      :     0.012868
      py      :     0.006474


                      *****************************
                      * MAYER POPULATION ANALYSIS *
                      *****************************

  NA   - Mulliken gross atomic population
  ZA   - Total nuclear charge
  QA   - Mulliken gross atomic charge
  VA   - Mayer's total valence
  BVA  - Mayer's bonded valence
  FA   - Mayer's free valence

  ATOM       NA         ZA         QA         VA         BVA        FA
  0 N      7.0695     7.0000    -0.0695     3.4458     3.4458     0.0000
  1 N      7.0692     7.0000    -0.0692     3.4459     3.4459    -0.0000
  2 C      5.9641     6.0000     0.0359     4.1331     4.1331    -0.0000
  3 C      5.9651     6.0000     0.0349     4.1332     4.1332    -0.0000
  4 C      5.8850     6.0000     0.1150     3.8695     3.8695    -0.0000
  5 Cl    16.9016    17.0000     0.0984     1.4152     1.4152    -0.0000
  6 Cl    16.9017    17.0000     0.0983     1.4153     1.4153     0.0000
  7 C      6.3046     6.0000    -0.3046     3.7841     3.7841    -0.0000
  8 C      6.3048     6.0000    -0.3048     3.7839     3.7839     0.0000
  9 H      0.8347     1.0000     0.1653     0.9639     0.9639    -0.0000
 10 H      0.8344     1.0000     0.1656     0.9639     0.9639     0.0000
 11 H      0.8040     1.0000     0.1960     0.9481     0.9481    -0.0000
 12 H      0.8064     1.0000     0.1936     0.9497     0.9497     0.0000
 13 H      0.8035     1.0000     0.1965     0.9478     0.9478     0.0000
 14 H      0.8057     1.0000     0.1943     0.9492     0.9492    -0.0000
 15 H      0.7456     1.0000     0.2544     0.9310     0.9310    -0.0000

  Mayer bond orders larger than 0.100000
B(  0-N ,  2-C ) :   1.1482 B(  0-N ,  4-C ) :   1.3868 B(  0-N ,  7-C ) :   0.8543 
B(  1-N ,  3-C ) :   1.1484 B(  1-N ,  4-C ) :   1.3869 B(  1-N ,  8-C ) :   0.8541 
B(  2-C ,  3-C ) :   1.5533 B(  2-C ,  5-Cl) :   1.3369 B(  3-C ,  6-Cl) :   1.3369 
B(  4-C , 15-H ) :   0.8930 B(  7-C ,  9-H ) :   0.9537 B(  7-C , 11-H ) :   0.9513 
B(  7-C , 14-H ) :   0.9515 B(  8-C , 10-H ) :   0.9537 B(  8-C , 12-H ) :   0.9515 
B(  8-C , 13-H ) :   0.9512 

-------
TIMINGS
-------

Total SCF time: 0 days 0 hours 1 min 46 sec 

Total time                  ....     106.771 sec
Sum of individual times     ....     106.109 sec  ( 99.4%)

Fock matrix formation       ....     103.568 sec  ( 97.0%)
  Split-RI-J                ....       4.981 sec  (  4.8% of F)
  Chain of spheres X        ....      89.037 sec  ( 86.0% of F)
  XC integration            ....       9.047 sec  (  8.7% of F)
    Basis function eval.    ....       2.113 sec  ( 23.4% of XC)
    Density eval.           ....       2.300 sec  ( 25.4% of XC)
    XC-Functional eval.     ....       0.638 sec  (  7.0% of XC)
    XC-Potential eval.      ....       3.055 sec  ( 33.8% of XC)
Diagonalization             ....       0.250 sec  (  0.2%)
Density matrix formation    ....       0.018 sec  (  0.0%)
Population analysis         ....       0.044 sec  (  0.0%)
Initial guess               ....       0.407 sec  (  0.4%)
Orbital Transformation      ....       0.000 sec  (  0.0%)
Orbital Orthonormalization  ....       0.000 sec  (  0.0%)
DIIS solution               ....       0.143 sec  (  0.1%)
SOSCF solution              ....       0.151 sec  (  0.1%)
Grid generation             ....       1.528 sec  (  1.4%)

Maximum memory used throughout the entire SCF-calculation: 83.8 MB


-------------------------------------------------------------------------------
                          DFT DISPERSION CORRECTION                            
                                                                               
                                 DFTD4 V2.5                                    
-------------------------------------------------------------------------------
The WB97X functional is recognized
Active option DFTDOPT                   ...         5   

Starting D4
-------------------------   ----------------
Dispersion correction           -0.002507232
-------------------------   ----------------


-------------------------   --------------------
FINAL SINGLE POINT ENERGY     -1224.462856631797
-------------------------   --------------------



           ************************************************************
           *        Program running with 4 parallel MPI-processes     *
           *              working on a common directory               *
           ************************************************************
------------------------------------------------------------------------------
                         ORCA SCF GRADIENT CALCULATION
------------------------------------------------------------------------------

 ... reading COSX grid (gridx3)
Gradient of the Kohn-Sham DFT energy:
Kohn-Sham wavefunction type      ... RKS
Hartree-Fock exchange scaling    ...    0.158
Number of operators              ...    1
Number of atoms                  ...   16
Basis set dimensions             ...  333
Integral neglect threshold       ... 2.5e-11
Integral primitive cutoff        ... 2.5e-12
SHARK Integral package           ... ON

Nuc. rep. gradient       (SHARK) ... done (  0.0 sec)
HCore & Overlap gradient (SHARK) ... done (  0.2 sec)
RI-J gradient            (SHARK) ... done (  1.4 sec)
COSX-gradient                    ... done ( 20.0 sec)
Exchange-correlation gradient    ... done
Dispersion correction            ... Starting D4
Starting D4


------------------- 
Dispersion Gradient 
------------------- 
   1  :    0.000001754    0.000011325    0.000006002
   2  :   -0.000001407   -0.000011200    0.000006326
   3  :    0.000000748    0.000005878   -0.000002437
   4  :   -0.000000870   -0.000005917   -0.000002248
   5  :    0.000000238    0.000000093    0.000008411
   6  :    0.000003607    0.000033634   -0.000039681
   7  :   -0.000005815   -0.000034433   -0.000038680
   8  :    0.000005545    0.000036951    0.000014860
   9  :   -0.000004698   -0.000036653    0.000015821
  10  :    0.000001597    0.000009676    0.000006163
  11  :   -0.000001301   -0.000009537    0.000006427
  12  :    0.000000048    0.000008957    0.000002515
  13  :   -0.000002276   -0.000008540    0.000002494
  14  :    0.000000127   -0.000008916    0.000002756
  15  :    0.000002443    0.000008594    0.000002268
  16  :    0.000000260    0.000000088    0.000009004

  |G| =    0.000077842

Starting D4
Starting D4
done

------------------
CARTESIAN GRADIENT
------------------

   1   N   :    0.000676775    0.004850529    0.000370135
   2   N   :   -0.000622043   -0.004880938    0.000625065
   3   C   :    0.000793014    0.005967526   -0.000473462
   4   C   :   -0.000842928   -0.005907480   -0.000485419
   5   C   :   -0.000043610   -0.000022340   -0.001665850
   6   Cl  :    0.000292714    0.002742080   -0.003142371
   7   Cl  :   -0.000500512   -0.002702801   -0.003128431
   8   C   :   -0.000919589   -0.004966854   -0.001854636
   9   C   :    0.000843239    0.004989154   -0.001982322
  10   H   :    0.000411728    0.000336576    0.006072044
  11   H   :   -0.000237793   -0.000220940    0.006072955
  12   H   :   -0.004815398    0.003755091   -0.001751825
  13   H   :   -0.005386107   -0.002496727   -0.002318500
  14   H   :    0.004804622   -0.003766965   -0.001819433
  15   H   :    0.005346242    0.002426916   -0.002479739
  16   H   :    0.000232727    0.000101943    0.007999380

Difference to translation invariance:
           :    0.0000330805    0.0002047698    0.0000375911

Difference to rotation invariance:
           :    0.0007987311    0.0002269920    0.0018492853

Norm of the cartesian gradient     ...    0.0227485311
RMS gradient                       ...    0.0032834676
MAX gradient                       ...    0.0079993801

-------
TIMINGS
-------

Total SCF gradient time            ...       25.034 sec

One electron gradient       ....       0.227 sec  (  0.9%)
RI-J Coulomb gradient       ....       1.448 sec  (  5.8%)
COSX gradient               ....      19.958 sec  ( 79.7%)
XC gradient                 ....       2.654 sec  ( 10.6%)

Maximum memory used throughout the entire SCFGRAD-calculation: 55.4 MB
------------------------------------------------------------------------------
                         ORCA GEOMETRY RELAXATION STEP
------------------------------------------------------------------------------

Reading the OPT-File                    .... done
Getting information on internals        .... done
[...]
     37       0.024427   0.019514   0.375278   0.386099   0.106188  -0.104205
     38      -0.310734  -0.349932  -0.042758  -0.160960  -0.283516   0.362907
     39      -0.111645  -0.128523   0.288911   0.238591  -0.008088   0.029395
     40       0.020664   0.052476   0.284365   0.303907  -0.097558   0.231385
     41      -0.342614  -0.389611   0.067331  -0.053489   0.204055  -0.431035
     42      -0.140931   0.169757   0.204247  -0.113369  -0.115894  -0.070620
     43      -0.026058   0.032808  -0.397275   0.382139  -0.131513  -0.070349
     44      -0.324356   0.364342  -0.045952   0.184894  -0.408383  -0.238308
     45       0.003643   0.048916  -0.003792   0.004695  -0.000897  -0.009247
     46      -0.003689   0.357831  -0.000459   0.020797   0.006964   0.001706
     47       0.192853  -0.004980  -0.141472  -0.005463   0.019410   0.001218
                 36         37         38         39         40         41    
      0       0.008850   0.002576  -0.009954   0.034060  -0.021146   0.000020
      1       0.081224   0.002973  -0.086656   0.256465  -0.177199  -0.000169
      2       0.013490   0.065690   0.055019  -0.044221   0.123626   0.000305
      3      -0.011249  -0.000073   0.012824   0.036030   0.028257   0.000013
      4      -0.079890   0.005321   0.087422   0.256280   0.183330   0.000204
      5       0.013611  -0.064740   0.055404   0.036182   0.119496   0.000149
      6       0.000951  -0.002056  -0.012128  -0.008315   0.069779  -0.000027
      7       0.013568  -0.003845  -0.092279  -0.054008   0.522805  -0.000018
      8      -0.042161  -0.056232   0.026617  -0.033280  -0.102941  -0.000766
      9      -0.003092   0.001463   0.013473  -0.005812  -0.075184   0.000001
     10      -0.014767  -0.000058   0.092978  -0.048851  -0.525696   0.000048
     11      -0.040035   0.057819   0.021572   0.035796  -0.088096  -0.000218
     12       0.001524  -0.001835  -0.002748  -0.060210  -0.003917  -0.000075
     13      -0.000096  -0.011955  -0.000696  -0.432001  -0.004403  -0.000488
     14       0.055143  -0.001641  -0.103020   0.006301  -0.127713  -0.000398
     15      -0.000241  -0.000146   0.000494   0.000387  -0.002643  -0.000007
     16      -0.002717  -0.001548   0.004889   0.002605  -0.022956  -0.000058
     17       0.003791   0.002451  -0.006342   0.001622   0.018906   0.000038
     18       0.000406  -0.000280  -0.000849   0.000247   0.003680   0.000004
     19       0.002761  -0.001787  -0.004953   0.002357   0.023434   0.000029
     20       0.003648  -0.002638  -0.006108  -0.001876   0.018238   0.000016
     21      -0.000860   0.000579   0.000690  -0.002014   0.004100   0.004836
     22       0.024074  -0.005714  -0.006019  -0.020328   0.034910   0.044029
     23       0.036289   0.017848   0.011662   0.005834  -0.023741   0.009828
     24      -0.004529   0.000988  -0.000730  -0.001831  -0.005367  -0.001018
     25      -0.024022  -0.005354   0.006596  -0.020105  -0.035559  -0.012306
     26       0.036933  -0.018014   0.012131  -0.005214  -0.022967   0.003004
     27       0.039648  -0.043892  -0.029250  -0.006531  -0.028092  -0.032077
     28      -0.485321  -0.367598  -0.183453  -0.054129  -0.215765   0.002399
     29       0.024042   0.010717   0.006808   0.006975  -0.026758  -0.510818
     30       0.061293  -0.048263   0.027459  -0.010195   0.023007   0.004539
     31       0.473066  -0.370512   0.197728  -0.057386   0.215017  -0.003637
     32       0.019053  -0.002099   0.001957  -0.005474  -0.032384  -0.142672
     33       0.037945   0.248333   0.288720  -0.122715   0.102928   0.456623
     34      -0.147541   0.197606   0.311818  -0.226749   0.174792  -0.324778
     35      -0.398308  -0.271904  -0.163063  -0.074764  -0.032658   0.171911
     36       0.093518  -0.212320   0.227696   0.055665   0.059592   0.135531
     37       0.097811   0.252468  -0.389281  -0.244069  -0.209726   0.056438
     38      -0.328571   0.247247  -0.147275   0.089528  -0.014558   0.056607
     39      -0.043967   0.245863  -0.299525  -0.117788  -0.103777  -0.128038
     40       0.114497   0.193042  -0.321072  -0.223694  -0.175805   0.092050
     41      -0.325746   0.255426  -0.157906   0.082227  -0.026677   0.050817
     42      -0.092800  -0.221702  -0.221148   0.052276  -0.058250  -0.481516
     43      -0.061748   0.262098   0.373566  -0.244646   0.201784  -0.195311
     44      -0.251257  -0.238896  -0.141148  -0.081998  -0.020788   0.222765
     45       0.003476   0.022444  -0.004174   0.084627  -0.004519   0.000305
     46       0.003976   0.155786  -0.004606   0.606157   0.002355   0.000855
     47       0.072440  -0.004491  -0.126058  -0.008294  -0.176300   0.006728
                 42         43         44         45         46         47    
      0       0.000021  -0.000458  -0.000101  -0.000061   0.000009  -0.000411
      1       0.000135  -0.000008   0.000008  -0.000565   0.000180  -0.003321
      2       0.000007   0.000008   0.000002  -0.000220   0.000038   0.002304
      3       0.000036   0.000264  -0.000387   0.000012  -0.000040   0.000537
      4      -0.000072   0.000017  -0.000030   0.000172  -0.000567   0.003369
      5      -0.000260  -0.000010   0.000016  -0.000039   0.000243   0.002216
      6      -0.000005  -0.000125  -0.000001  -0.000084   0.000003   0.000205
      7       0.000050  -0.000013  -0.000011  -0.000729   0.000056   0.001090
      8      -0.000213  -0.000017  -0.000006  -0.000003   0.000082   0.002133
      9       0.000014   0.000090  -0.000085  -0.000000  -0.000072  -0.000087
     10       0.000027   0.000007  -0.000028   0.000044  -0.000732  -0.001047
     11       0.000764  -0.000017   0.000030  -0.000081   0.000021   0.002163
     12      -0.000105   0.000056   0.000147  -0.000004   0.000039  -0.002573
     13      -0.000853  -0.000012  -0.000031   0.000294   0.000314  -0.000958
     14       0.000233  -0.000110   0.000065  -0.000949   0.000941  -0.092882
     15      -0.000001   0.000002   0.000001   0.000007   0.000001  -0.000001
     16      -0.000002  -0.000004  -0.000001   0.000050  -0.000003  -0.000012
     17       0.000002  -0.000005  -0.000002  -0.000022   0.000007   0.000008
     18      -0.000009  -0.000001   0.000002   0.000000   0.000008   0.000001
     19      -0.000052   0.000003  -0.000005  -0.000002   0.000051   0.000013
     20      -0.000032  -0.000004   0.000008  -0.000007   0.000020   0.000008
     21       0.001354   0.086743   0.037495  -0.004667   0.000047  -0.000032
     22       0.012322  -0.012138  -0.005240  -0.026586   0.000126   0.000100
     23       0.002765   0.000864   0.000331   0.091242  -0.000580  -0.001112
     24       0.003638  -0.037305   0.086498  -0.000036  -0.010825  -0.000020
     25       0.043883   0.005303  -0.012281  -0.000216  -0.028015  -0.000120
     26      -0.010764   0.002818  -0.006468  -0.000553  -0.090335  -0.001105
     27      -0.009007   0.008420   0.003665  -0.052929   0.000340   0.000818
     28       0.000687  -0.001293  -0.000559   0.005123  -0.000030   0.001171
     29      -0.143461  -0.064786  -0.027590  -0.839985   0.005353   0.010608
     30      -0.016229  -0.004050   0.009414  -0.000159  -0.026949  -0.000473
     31       0.013062  -0.000416   0.000955   0.000141   0.022676  -0.000947
     32       0.510575  -0.041717   0.096062   0.005127   0.838076   0.010564
     33       0.127832  -0.508911  -0.219677  -0.256310   0.001309   0.000427
     34      -0.090843   0.369621   0.159444   0.175773  -0.000825   0.001160
     35       0.048145  -0.200353  -0.086537  -0.082483   0.000415   0.000500
     36      -0.483420   0.227042  -0.526042   0.002383   0.390531   0.000284
     37      -0.201075   0.098329  -0.227567   0.001009   0.157622  -0.001190
     38      -0.201997   0.099540  -0.230758   0.000912   0.151730   0.000711
     39       0.456720   0.220178  -0.509861  -0.001829  -0.234110  -0.000334
     40      -0.328073  -0.161596   0.373955   0.001331   0.160747  -0.001185
     41      -0.181335  -0.090879   0.210566   0.000627   0.078565   0.000498
     42      -0.134773  -0.529239  -0.228633   0.365882  -0.002258  -0.000205
     43      -0.054600  -0.223120  -0.096275   0.143266  -0.000835   0.001209
     44       0.062373   0.255480   0.110418  -0.156937   0.000978   0.000656
     45       0.000120  -0.000124  -0.000367   0.000485   0.000031   0.027583
     46       0.001367   0.000055   0.000178   0.001152   0.000950   0.010235
     47      -0.003784   0.000889  -0.000532   0.009035  -0.009094   0.995097


-----------
IR SPECTRUM
-----------

 Mode   freq       eps      Int      T**2         TX        TY        TZ
       cm**-1   L/(mol*cm) km/mol    a.u.
----------------------------------------------------------------------------
  6:    112.95   0.000000    0.00  0.000001  (-0.000267  0.000100  0.000832)
  7:    132.02   0.000063    0.32  0.000149  ( 0.012047 -0.001835 -0.000240)
  8:    135.72   0.000039    0.20  0.000090  ( 0.008949 -0.001421  0.002867)
  9:    175.93   0.000178    0.90  0.000316  (-0.004729  0.000875  0.017100)
 10:    179.18   0.000794    4.02  0.001384  (-0.036843  0.005083 -0.000691)
 11:    240.06   0.000002    0.01  0.000002  ( 0.001140  0.000084  0.000833)
 12:    275.84   0.000531    2.68  0.000601  ( 0.001334  0.000191  0.024477)
 13:    288.28   0.000188    0.95  0.000203  (-0.014042  0.002153  0.001176)
 14:    325.99   0.000000    0.00  0.000000  ( 0.000053 -0.000075  0.000592)
 15:    445.77   0.001567    7.92  0.001097  (-0.004745 -0.032775  0.000467)
 16:    548.51   0.001663    8.40  0.000946  ( 0.000837  0.000298  0.030745)
 17:    561.18   0.000000    0.00  0.000000  (-0.000166 -0.000431 -0.000156)
 18:    645.43   0.002274   11.49  0.001099  (-0.032699  0.004591  0.003023)
 19:    646.25   0.000309    1.56  0.000149  (-0.008038  0.000997 -0.009151)
 20:    714.10   0.000000    0.00  0.000000  (-0.000061 -0.000048  0.000025)
 21:    860.17   0.002495   12.61  0.000905  ( 0.029704 -0.004708 -0.000769)
 22:    865.11   0.000217    1.10  0.000078  (-0.002499 -0.008493  0.000168)
 23:   1114.72   0.000276    1.40  0.000077  ( 0.000491  0.006347 -0.006068)
 24:   1116.69   0.000569    2.88  0.000159  (-0.001657 -0.012191 -0.002764)
 25:   1128.70   0.001262    6.38  0.000349  (-0.000607 -0.000362 -0.018669)
 26:   1161.18   0.000000    0.00  0.000000  (-0.000017 -0.000146 -0.000061)
 27:   1167.37   0.000028    0.14  0.000007  (-0.000723  0.002618 -0.000137)
 28:   1206.97   0.019540   98.75  0.005052  (-0.009717 -0.070405  0.000991)
 29:   1249.43   0.001121    5.67  0.000280  ( 0.002361  0.016564 -0.000235)
 30:   1384.93   0.001245    6.29  0.000281  ( 0.000302  0.000092  0.016748)
 31:   1436.90   0.000849    4.29  0.000184  ( 0.002074  0.013420  0.000112)
 32:   1463.61   0.003560   17.99  0.000759  ( 0.000907  0.000946  0.027520)
 33:   1470.57   0.002470   12.48  0.000524  ( 0.003603 -0.022534  0.001866)
 34:   1483.81   0.000561    2.83  0.000118  (-0.009308  0.000041 -0.005596)
 35:   1485.28   0.007107   35.91  0.001493  (-0.038610  0.000751 -0.001371)
 36:   1492.32   0.007052   35.64  0.001475  ( 0.003152 -0.000880 -0.038261)
 37:   1518.57   0.000350    1.77  0.000072  (-0.000477  0.008472  0.000078)
 38:   1526.47   0.000151    0.76  0.000031  (-0.000009 -0.000174 -0.005545)
 39:   1645.08   0.018817   95.09  0.003570  (-0.008086 -0.059186  0.001088)
 40:   1653.97   0.015685   79.26  0.002959  (-0.001535 -0.000960 -0.054370)
 41:   3106.01   0.000248    1.25  0.000025  ( 0.000441  0.002212  0.004448)
 42:   3106.14   0.000216    1.09  0.000022  ( 0.000481  0.003842 -0.002583)
 43:   3199.36   0.000006    0.03  0.000001  (-0.000654  0.000103  0.000328)
 44:   3199.44   0.000029    0.15  0.000003  (-0.001666  0.000076 -0.000169)
 45:   3210.62   0.000012    0.06  0.000001  ( 0.000262  0.000568  0.000860)
 46:   3211.37   0.000011    0.06  0.000001  ( 0.000260  0.000570 -0.000837)
 47:   3299.14   0.007028   35.52  0.000665  ( 0.000712  0.000247  0.025772)

* The epsilon (eps) is given for a Dirac delta lineshape.
** The dipole moment derivative (T) already includes vibrational overlap.

The first frequency considered to be a vibration is 6
The total number of vibrations considered is 42


--------------------------
THERMOCHEMISTRY AT 298.15K
--------------------------

Temperature         ... 298.15 K
Pressure            ... 1.00 atm
Total Mass          ... 166.03 AMU

Throughout the following assumptions are being made:
  (1) The electronic state is orbitally nondegenerate
  (2) There are no thermally accessible electronically excited states
  (3) Hindered rotations indicated by low frequency modes are not
      treated as such but are treated as vibrations and this may
      cause some error
  (4) All equations used are the standard statistical mechanics
      equations for an ideal gas
  (5) All vibrations are strictly harmonic

freq.     112.95  E(vib)   ...       0.45 
freq.     132.02  E(vib)   ...       0.42 
freq.     135.72  E(vib)   ...       0.42 
freq.     175.93  E(vib)   ...       0.38 
freq.     179.18  E(vib)   ...       0.37 
freq.     240.06  E(vib)   ...       0.31 
freq.     275.84  E(vib)   ...       0.28 
freq.     288.28  E(vib)   ...       0.27 
freq.     325.99  E(vib)   ...       0.24 
freq.     445.77  E(vib)   ...       0.17 
freq.     548.51  E(vib)   ...       0.12 
freq.     561.18  E(vib)   ...       0.11 
freq.     645.43  E(vib)   ...       0.09 
freq.     646.25  E(vib)   ...       0.09 
freq.     714.10  E(vib)   ...       0.07 
freq.     860.17  E(vib)   ...       0.04 
freq.     865.11  E(vib)   ...       0.04 
freq.    1114.72  E(vib)   ...       0.01 
freq.    1116.69  E(vib)   ...       0.01 
freq.    1128.70  E(vib)   ...       0.01 
freq.    1161.18  E(vib)   ...       0.01 
freq.    1167.37  E(vib)   ...       0.01 
freq.    1206.97  E(vib)   ...       0.01 
freq.    1249.43  E(vib)   ...       0.01 
freq.    1384.93  E(vib)   ...       0.00 
freq.    1436.90  E(vib)   ...       0.00 
freq.    1463.61  E(vib)   ...       0.00 
freq.    1470.57  E(vib)   ...       0.00 
freq.    1483.81  E(vib)   ...       0.00 
freq.    1485.28  E(vib)   ...       0.00 
freq.    1492.32  E(vib)   ...       0.00 
freq.    1518.57  E(vib)   ...       0.00 
freq.    1526.47  E(vib)   ...       0.00 
freq.    1645.08  E(vib)   ...       0.00 
freq.    1653.97  E(vib)   ...       0.00 
freq.    3106.01  E(vib)   ...       0.00 
freq.    3106.14  E(vib)   ...       0.00 
freq.    3199.36  E(vib)   ...       0.00 
freq.    3199.44  E(vib)   ...       0.00 
freq.    3210.62  E(vib)   ...       0.00 
freq.    3211.37  E(vib)   ...       0.00 
freq.    3299.14  E(vib)   ...       0.00 

------------
INNER ENERGY
------------

The inner energy is: U= E(el) + E(ZPE) + E(vib) + E(rot) + E(trans)
    E(el)   - is the total energy from the electronic structure calculation
              = E(kin-el) + E(nuc-el) + E(el-el) + E(nuc-nuc)
    E(ZPE)  - the the zero temperature vibrational energy from the frequency calculation
    E(vib)  - the the finite temperature correction to E(ZPE) due to population
              of excited vibrational states
    E(rot)  - is the rotational thermal energy
    E(trans)- is the translational thermal energy

Summary of contributions to the inner energy U:
Electronic energy                ...  -1224.46351972 Eh
Zero point energy                ...      0.12345654 Eh      77.47 kcal/mol
Thermal vibrational correction   ...      0.00636119 Eh       3.99 kcal/mol
Thermal rotational correction    ...      0.00141627 Eh       0.89 kcal/mol
Thermal translational correction ...      0.00141627 Eh       0.89 kcal/mol
-----------------------------------------------------------------------
Total thermal energy                  -1224.33086945 Eh


Summary of corrections to the electronic energy:
(perhaps to be used in another calculation)
Total thermal correction                  0.00919374 Eh       5.77 kcal/mol
Non-thermal (ZPE) correction              0.12345654 Eh      77.47 kcal/mol
-----------------------------------------------------------------------
Total correction                          0.13265027 Eh      83.24 kcal/mol


--------
ENTHALPY
--------

The enthalpy is H = U + kB*T
                kB is Boltzmann's constant
Total free energy                 ...  -1224.33086945 Eh 
Thermal Enthalpy correction       ...      0.00094421 Eh       0.59 kcal/mol
-----------------------------------------------------------------------
Total Enthalpy                    ...  -1224.32992524 Eh


Note: Only C1 symmetry has been detected, increase convergence thresholds 
      if your molecule has a higher symmetry. Symmetry factor of 1.0 is   
      used for the rotational entropy correction. 
 

Note: Rotational entropy computed according to Herzberg 
Infrared and Raman Spectra, Chapter V,1, Van Nostrand Reinhold, 1945 
Point Group:  C1, Symmetry Number:   1  
Rotational constants in cm-1:     0.051501     0.036599     0.021570 

Vibrational entropy computed according to the QRRHO of S. Grimme
Chem.Eur.J. 2012 18 9955


-------
ENTROPY
-------

The entropy contributions are T*S = T*(S(el)+S(vib)+S(rot)+S(trans))
     S(el)   - electronic entropy
     S(vib)  - vibrational entropy
     S(rot)  - rotational entropy
     S(trans)- translational entropy
The entropies will be listed as multiplied by the temperature to get
units of energy

Electronic entropy                ...      0.00000000 Eh      0.00 kcal/mol
Vibrational entropy               ...      0.01103407 Eh      6.92 kcal/mol
Rotational entropy                ...      0.01428380 Eh      8.96 kcal/mol
Translational entropy             ...      0.01958930 Eh     12.29 kcal/mol
-----------------------------------------------------------------------
Final entropy term                ...      0.04490717 Eh     28.18 kcal/mol

In case the symmetry of your molecule has not been determined correctly
or in case you have a reason to use a different symmetry number we print 
out the resulting rotational entropy values for sn=1,12 :
 --------------------------------------------------------
|  sn= 1 | S(rot)=       0.01428380 Eh      8.96 kcal/mol|
|  sn= 2 | S(rot)=       0.01362934 Eh      8.55 kcal/mol|
|  sn= 3 | S(rot)=       0.01324651 Eh      8.31 kcal/mol|
|  sn= 4 | S(rot)=       0.01297488 Eh      8.14 kcal/mol|
|  sn= 5 | S(rot)=       0.01276420 Eh      8.01 kcal/mol|
|  sn= 6 | S(rot)=       0.01259205 Eh      7.90 kcal/mol|
|  sn= 7 | S(rot)=       0.01244651 Eh      7.81 kcal/mol|
|  sn= 8 | S(rot)=       0.01232043 Eh      7.73 kcal/mol|
|  sn= 9 | S(rot)=       0.01220922 Eh      7.66 kcal/mol|
|  sn=10 | S(rot)=       0.01210974 Eh      7.60 kcal/mol|
|  sn=11 | S(rot)=       0.01201975 Eh      7.54 kcal/mol|
|  sn=12 | S(rot)=       0.01193760 Eh      7.49 kcal/mol|
 --------------------------------------------------------


-------------------
GIBBS FREE ENERGY
-------------------

The Gibbs free energy is G = H - T*S

Total enthalpy                    ...  -1224.32992524 Eh 
Total entropy correction          ...     -0.04490717 Eh    -28.18 kcal/mol
-----------------------------------------------------------------------
Final Gibbs free energy         ...  -1224.37483241 Eh

For completeness - the Gibbs free energy minus the electronic energy
G-E(el)                           ...      0.08868731 Eh     55.65 kcal/mol


Timings for individual modules:

Sum of individual times         ...     1239.856 sec (=  20.664 min)
GTO integral calculation        ...        2.872 sec (=   0.048 min)   0.2 %
SCF iterations                  ...      336.483 sec (=   5.608 min)  27.1 %
SCF Gradient evaluation         ...       76.678 sec (=   1.278 min)   6.2 %
Geometry relaxation             ...        0.141 sec (=   0.002 min)   0.0 %
Analytical frequency calculation...      823.682 sec (=  13.728 min)  66.4 %
                             ****ORCA TERMINATED NORMALLY****
TOTAL RUN TIME: 0 days 0 hours 20 minutes 41 seconds 365 msec
