
                                 *****************
                                 * O   R   C   A *
                                 *****************

                                            #,                                       
                                            ###                                      
                                            ####                                     
                                            #####                                    
                                            ######                                   
                                           ########,                                 
                                     ,,################,,,,,                         
                               ,,#################################,,                 
                          ,,##########################################,,             
                       ,#########################################, ''#####,          
                    ,#############################################,,   '####,        
                  ,##################################################,,,,####,       
                ,###########''''           ''''###############################       
              ,#####''   ,,,,##########,,,,          '''####'''          '####       
            ,##' ,,,,###########################,,,                        '##       
           ' ,,###''''                  '''############,,,                           
         ,,##''                                '''############,,,,        ,,,,,,###''
      ,#''                                            '''#######################'''  
     '                                                          ''''####''''         
             ,#######,   #######,   ,#######,      ##                                
            ,#'     '#,  ##    ##  ,#'     '#,    #''#        ######   ,####,        
            ##       ##  ##   ,#'  ##            #'  '#       #        #'  '#        
            ##       ##  #######   ##           ,######,      #####,   #    #        
            '#,     ,#'  ##    ##  '#,     ,#' ,#      #,         ##   #,  ,#        
             '#######'   ##     ##  '#######'  #'      '#     #####' # '####'        



                  #######################################################
                  #                        -***-                        #
                  #          Department of theory and spectroscopy      #
                  #    Directorship and core code : Frank Neese         #
                  #        Max Planck Institute fuer Kohlenforschung    #
                  #                Kaiser Wilhelm Platz 1               #
                  #                 D-45470 Muelheim/Ruhr               #
                  #                      Germany                        #
                  #                                                     #
                  #                  All rights reserved                #
                  #                        -***-                        #
                  #######################################################


                         Program Version 5.0.4 -  RELEASE  -


 With contributions from (in alphabetic order):
   Daniel Aravena         : Magnetic Suceptibility
   Michael Atanasov       : Ab Initio Ligand Field Theory (pilot matlab implementation)
   Alexander A. Auer      : GIAO ZORA, VPT2 properties, NMR spectrum
   Ute Becker             : Parallelization
   Giovanni Bistoni       : ED, misc. LED, open-shell LED, HFLD
   Martin Brehm           : Molecular dynamics
   Dmytro Bykov           : SCF Hessian
   Vijay G. Chilkuri      : MRCI spin determinant printing, contributions to CSF-ICE
   Dipayan Datta          : RHF DLPNO-CCSD density
   Achintya Kumar Dutta   : EOM-CC, STEOM-CC
   Dmitry Ganyushin       : Spin-Orbit,Spin-Spin,Magnetic field MRCI
   Miquel Garcia          : C-PCM and meta-GGA Hessian, CC/C-PCM, Gaussian charge scheme
   Yang Guo               : DLPNO-NEVPT2, F12-NEVPT2, CIM, IAO-localization
   Andreas Hansen         : Spin unrestricted coupled pair/coupled cluster methods
   Benjamin Helmich-Paris : MC-RPA, TRAH-SCF, COSX integrals
   Lee Huntington         : MR-EOM, pCC
   Robert Izsak           : Overlap fitted RIJCOSX, COSX-SCS-MP3, EOM
   Marcus Kettner         : VPT2
   Christian Kollmar      : KDIIS, OOCD, Brueckner-CCSD(T), CCSD density, CASPT2, CASPT2-K
   Simone Kossmann        : Meta GGA functionals, TD-DFT gradient, OOMP2, MP2 Hessian
   Martin Krupicka        : Initial AUTO-CI
   Lucas Lang             : DCDCAS
   Marvin Lechner         : AUTO-CI (C++ implementation), FIC-MRCC
   Dagmar Lenk            : GEPOL surface, SMD
   Dimitrios Liakos       : Extrapolation schemes; Compound Job, initial MDCI parallelization
   Dimitrios Manganas     : Further ROCIS development; embedding schemes
   Dimitrios Pantazis     : SARC Basis sets
   Anastasios Papadopoulos: AUTO-CI, single reference methods and gradients
   Taras Petrenko         : DFT Hessian,TD-DFT gradient, ASA, ECA, R-Raman, ABS, FL, XAS/XES, NRVS
   Peter Pinski           : DLPNO-MP2, DLPNO-MP2 Gradient
   Christoph Reimann      : Effective Core Potentials
   Marius Retegan         : Local ZFS, SOC
   Christoph Riplinger    : Optimizer, TS searches, QM/MM, DLPNO-CCSD(T), (RO)-DLPNO pert. Triples
   Tobias Risthaus        : Range-separated hybrids, TD-DFT gradient, RPA, STAB
   Michael Roemelt        : Original ROCIS implementation
   Masaaki Saitow         : Open-shell DLPNO-CCSD energy and density
   Barbara Sandhoefer     : DKH picture change effects
   Avijit Sen             : IP-ROCIS
   Kantharuban Sivalingam : CASSCF convergence, NEVPT2, FIC-MRCI
   Bernardo de Souza      : ESD, SOC TD-DFT
   Georgi Stoychev        : AutoAux, RI-MP2 NMR, DLPNO-MP2 response
   Willem Van den Heuvel  : Paramagnetic NMR
   Boris Wezisla          : Elementary symmetry handling
   Frank Wennmohs         : Technical directorship


 We gratefully acknowledge several colleagues who have allowed us to
 interface, adapt or use parts of their codes:
   Stefan Grimme, W. Hujo, H. Kruse, P. Pracht,  : VdW corrections, initial TS optimization,
                  C. Bannwarth, S. Ehlert          DFT functionals, gCP, sTDA/sTD-DF
   Ed Valeev, F. Pavosevic, A. Kumar             : LibInt (2-el integral package), F12 methods
   Garnet Chan, S. Sharma, J. Yang, R. Olivares  : DMRG
   Ulf Ekstrom                                   : XCFun DFT Library
   Mihaly Kallay                                 : mrcc  (arbitrary order and MRCC methods)
   Jiri Pittner, Ondrej Demel                    : Mk-CCSD
   Frank Weinhold                                : gennbo (NPA and NBO analysis)
   Christopher J. Cramer and Donald G. Truhlar   : smd solvation model
   Lars Goerigk                                  : TD-DFT with DH, B97 family of functionals
   V. Asgeirsson, H. Jonsson                     : NEB implementation
   FAccTs GmbH                                   : IRC, NEB, NEB-TS, DLPNO-Multilevel, CI-OPT
                                                   MM, QMMM, 2- and 3-layer-ONIOM, Crystal-QMMM,
                                                   LR-CPCM, SF, NACMEs, symmetry and pop. for TD-DFT,
                                                   nearIR, NL-DFT gradient (VV10), updates on ESD,
                                                   ML-optimized integration grids
   S Lehtola, MJT Oliveira, MAL Marques          : LibXC Library
   Liviu Ungur et al                             : ANISO software


 Your calculation uses the libint2 library for the computation of 2-el integrals
 For citations please refer to: http://libint.valeyev.net

 Your ORCA version has been built with support for libXC version: 5.1.0
 For citations please refer to: https://tddft.org/programs/libxc/

 This ORCA versions uses:
   CBLAS   interface :  Fast vector & matrix operations
   LAPACKE interface :  Fast linear algebra routines
   SCALAPACK package :  Parallel linear algebra routines
   Shared memory     :  Shared parallel matrices
   BLAS/LAPACK       :  OpenBLAS 0.3.15  USE64BITINT DYNAMIC_ARCH NO_AFFINITY SkylakeX SINGLE_THREADED
        Core in use  :  SkylakeX
   Copyright (c) 2011-2014, The OpenBLAS Project




***************************************
The coordinates will be read from file: 10_prot.xyz
***************************************


Your calculation utilizes the atom-pairwise dispersion correction
based on tight binding partial charges (D4)
Cite in your paper:
E.Caldeweyher, C.Bannwarth, S.Grimme, J.Chem.Phys., (2017), 147, 034112.
E.Caldeweyher, S.Ehlert, A.Hansen, H.Neugebauer, S.Grimme, J.Chem.Phys., (2018), in progress.
   

XCFun DFT library Copyright 2009-2010 Ulf Ekstrom and contributors.
See http://admol.org/xcfun for more information.
This is free software; see the source code for copying conditions.
There is ABSOLUTELY NO WARRANTY; not even for MERCHANTABILITY or FITNESS FOR A PARTICULAR PURPOSE.
For details see the documentation.
Scientific users of this library should cite U. Ekstrom, L. Visscher, R. Bast, A. J. Thorvaldsen and K. Ruud;
J.Chem.Theor.Comp. 2010, DOI: 10.1021/ct100117s
XCFun Version 0.99 

================================================================================

----- Orbital basis set information -----
Your calculation utilizes the basis: def2-TZVP
   F. Weigend and R. Ahlrichs, Phys. Chem. Chem. Phys. 7, 3297 (2005).

----- AuxJ basis set information -----
Your calculation utilizes the auxiliary basis: def2/J
   F. Weigend, Phys. Chem. Chem. Phys. 8, 1057 (2006).

================================================================================
                                        WARNINGS
                       Please study these warnings very carefully!
================================================================================


WARNING: Geometry Optimization
  ===> : Switching off AutoStart
         For restart on a previous wavefunction, please use MOREAD

INFO   : the flag for use of the SHARK integral package has been found!

================================================================================
                                       INPUT FILE
================================================================================
NAME = 10_prot.inp
|  1> # ORCA 5.0.4 - /users/bwb16179/postgrad/2024_06/pKa_Reviewer_Comments/Gas_Z=1/10_prot.inp # write input file
|  2> # Basic Mode
|  3> #
|  4> ! Opt Freq wB97X Def2-TZVP D4 SlowConv TightSCF Defgrid2 Def2/J RIJCOSX 
|  5> 
|  6> %PAL NPROCS 4 END
|  7> 
|  8> %maxcore 4500
|  9> 
| 10> %geom
| 11> Maxiter 150
| 12> END
| 13> 
| 14> * xyzfile 1 1 10_prot.xyz
| 15> 
| 16>                          ****END OF INPUT****
================================================================================

                       *****************************
                       * Geometry Optimization Run *
                       *****************************

Geometry optimization settings:
Update method            Update   .... BFGS
Choice of coordinates    CoordSys .... Z-matrix Internals
Initial Hessian          InHess   .... Almoef's Model

Convergence Tolerances:
Energy Change            TolE     ....  5.0000e-06 Eh
Max. Gradient            TolMAXG  ....  3.0000e-04 Eh/bohr
RMS Gradient             TolRMSG  ....  1.0000e-04 Eh/bohr
Max. Displacement        TolMAXD  ....  4.0000e-03 bohr
RMS Displacement         TolRMSD  ....  2.0000e-03 bohr
Strict Convergence                ....  False
------------------------------------------------------------------------------
                        ORCA OPTIMIZATION COORDINATE SETUP
------------------------------------------------------------------------------

The optimization will be done in new redundant internal coordinates
Making redundant internal coordinates   ...  (new redundants) done
Evaluating the initial hessian          ...  (Almloef) done
Evaluating the coordinates              ...  done
Calculating the B-matrix                .... done
Calculating the G-matrix                .... done
Diagonalizing the G-matrix              .... done
The first mode is                       ....   53
The number of degrees of freedom        ....   57

    -----------------------------------------------------------------
                    Redundant Internal Coordinates


    -----------------------------------------------------------------
         Definition                    Initial Value    Approx d2E/dq
    -----------------------------------------------------------------
      1. B(C   3,C   0)                  1.5201         0.387407   
      2. B(C   3,C   2)                  1.5201         0.387406   
      3. B(H   4,C   0)                  1.1034         0.342807   
      4. B(H   5,C   1)                  1.0956         0.352829   
      5. B(H   6,C   2)                  1.0995         0.347700   
      6. B(H   7,C   3)                  1.1017         0.344918   
      7. B(N   8,C   0)                  1.4667         0.422165   
      8. B(N   8,C   1)                  1.3149         0.737351   
      9. B(N   9,C   2)                  1.4667         0.422165   
     10. B(N   9,C   1)                  1.3149         0.737351   
     11. B(H  10,C   2)                  1.1034         0.342806   
     12. B(H  11,C   3)                  1.0986         0.348917   
     13. B(H  12,C   0)                  1.0995         0.347699   
     14. B(C  13,N   8)                  1.4589         0.434507   
     15. B(H  14,C  13)                  1.0974         0.350459   
     16. B(H  15,C  13)                  1.0998         0.347389   
     17. B(H  16,C  13)                  1.0999         0.347275   
     18. B(C  17,N   9)                  1.4589         0.434507   
     19. B(H  18,C  17)                  1.0998         0.347390   
     20. B(H  19,C  17)                  1.0974         0.350460   
     21. B(H  20,C  17)                  1.0999         0.347275   
     22. A(C   3,C   0,H  12)          110.8934         0.324389   
     23. A(C   3,C   0,N   8)          110.1639         0.371041   
     24. A(H   4,C   0,N   8)          108.7401         0.326274   
     25. A(H   4,C   0,H  12)          107.5090         0.287027   
     26. A(C   3,C   0,H   4)          111.7213         0.323635   
     27. A(N   8,C   0,H  12)          107.6783         0.327036   
     28. A(H   5,C   1,N   8)          117.5174         0.359957   
     29. A(N   8,C   1,N   9)          124.9650         0.456117   
     30. A(H   5,C   1,N   9)          117.5174         0.359957   
     31. A(C   3,C   2,H  10)          111.7212         0.323635   
     32. A(C   3,C   2,H   6)          110.8934         0.324389   
     33. A(H   6,C   2,N   9)          107.6784         0.327036   
     34. A(C   3,C   2,N   9)          110.1639         0.371041   
     35. A(H   6,C   2,H  10)          107.5090         0.287027   
     36. A(N   9,C   2,H  10)          108.7402         0.326274   
     37. A(H   7,C   3,H  11)          107.1210         0.287459   
     38. A(C   2,C   3,H   7)          109.6979         0.323961   
     39. A(C   2,C   3,H  11)          109.7970         0.324575   
     40. A(C   0,C   3,C   2)          110.6614         0.367904   
     41. A(C   0,C   3,H   7)          109.6979         0.323961   
     42. A(C   0,C   3,H  11)          109.7970         0.324575   
     43. A(C   1,N   8,C  13)          121.4272         0.414701   
     44. A(C   0,N   8,C  13)          117.7531         0.376079   
     45. A(C   0,N   8,C   1)          120.8026         0.412584   
     46. A(C   1,N   9,C   2)          120.8026         0.412584   
     47. A(C   2,N   9,C  17)          117.7531         0.376079   
     48. A(C   1,N   9,C  17)          121.4272         0.414701   
     49. A(H  15,C  13,H  16)          109.0436         0.287568   
     50. A(H  14,C  13,H  16)          108.7943         0.287964   
     51. A(N   8,C  13,H  16)          109.8219         0.328528   
     52. A(H  14,C  13,H  15)          109.0226         0.287978   
     53. A(N   8,C  13,H  15)          110.0201         0.328545   
     54. A(N   8,C  13,H  14)          110.1100         0.329023   
     55. A(H  18,C  17,H  20)          109.0436         0.287568   
     56. A(N   9,C  17,H  20)          109.8219         0.328528   
     57. A(H  18,C  17,H  19)          109.0227         0.287979   
     58. A(N   9,C  17,H  19)          110.1099         0.329023   
     59. A(H  19,C  17,H  20)          108.7943         0.287964   
     60. A(N   9,C  17,H  18)          110.0201         0.328545   
     61. D(H   7,C   3,C   0,H  12)     48.2726         0.011939   
     62. D(C   2,C   3,C   0,H   4)    -70.6391         0.011939   
     63. D(H  11,C   3,C   0,N   8)    171.7008         0.011939   
     64. D(H   7,C   3,C   0,N   8)    -70.8346         0.011939   
     65. D(C   0,C   3,C   2,N   9)    -50.3384         0.011939   
     66. D(C   0,C   3,C   2,H   6)   -169.4457         0.011939   
     67. D(H  11,C   3,C   2,N   9)   -171.7008         0.011939   
     68. D(C   2,C   3,C   0,H  12)    169.4457         0.011939   
     69. D(H   7,C   3,C   2,N   9)     70.8347         0.011939   
     70. D(H   7,C   3,C   2,H   6)    -48.2726         0.011939   
     71. D(H   7,C   3,C   2,H  10)   -168.1878         0.011939   
     72. D(H  11,C   3,C   0,H   4)     50.7233         0.011939   
     73. D(C   2,C   3,C   0,N   8)     50.3385         0.011939   
     74. D(H  11,C   3,C   2,H   6)     69.1919         0.011939   
     75. D(C   0,C   3,C   2,H  10)     70.6391         0.011939   
     76. D(H  11,C   3,C   0,H  12)    -69.1919         0.011939   
     77. D(H   7,C   3,C   0,H   4)    168.1879         0.011939   
     78. D(H  11,C   3,C   2,H  10)    -50.7233         0.011939   
     79. D(C  13,N   8,C   1,N   9)    178.2657         0.045484   
     80. D(C   0,N   8,C   1,N   9)     -0.1998         0.045484   
     81. D(C   0,N   8,C   1,H   5)    179.9595         0.045484   
     82. D(C  13,N   8,C   0,H  12)     34.5056         0.015196   
     83. D(C  13,N   8,C   0,H   4)    -81.6989         0.015196   
     84. D(C  13,N   8,C   0,C   3)    155.5556         0.015196   
     85. D(C   1,N   8,C   0,H  12)   -146.9740         0.015196   
     86. D(C  13,N   8,C   1,H   5)     -1.5750         0.045484   
     87. D(C   1,N   8,C   0,H   4)     96.8215         0.015196   
     88. D(C   1,N   8,C   0,C   3)    -25.9240         0.015196   
     89. D(C  17,N   9,C   1,H   5)      1.5749         0.045484   
     90. D(C   2,N   9,C   1,N   8)      0.1998         0.045484   
     91. D(C   2,N   9,C   1,H   5)   -179.9595         0.045484   
     92. D(C  17,N   9,C   2,H  10)     81.6990         0.015196   
     93. D(C  17,N   9,C   2,H   6)    -34.5056         0.015196   
     94. D(C  17,N   9,C   2,C   3)   -155.5556         0.015196   
     95. D(C   1,N   9,C   2,H  10)    -96.8215         0.015196   
     96. D(C   1,N   9,C   2,H   6)    146.9739         0.015196   
     97. D(C   1,N   9,C   2,C   3)     25.9239         0.015196   
     98. D(C  17,N   9,C   1,N   8)   -178.2658         0.045484   
     99. D(H  16,C  13,N   8,C   1)   -121.1527         0.016097   
    100. D(H  16,C  13,N   8,C   0)     57.3579         0.016097   
    101. D(H  15,C  13,N   8,C   1)    118.8155         0.016097   
    102. D(H  15,C  13,N   8,C   0)    -62.6739         0.016097   
    103. D(H  14,C  13,N   8,C   1)     -1.3725         0.016097   
    104. D(H  14,C  13,N   8,C   0)    177.1381         0.016097   
    105. D(H  20,C  17,N   9,C   2)    -57.3580         0.016097   
    106. D(H  20,C  17,N   9,C   1)    121.1527         0.016097   
    107. D(H  19,C  17,N   9,C   2)   -177.1381         0.016097   
    108. D(H  19,C  17,N   9,C   1)      1.3726         0.016097   
    109. D(H  18,C  17,N   9,C   2)     62.6739         0.016097   
    110. D(H  18,C  17,N   9,C   1)   -118.8154         0.016097   
    -----------------------------------------------------------------

Number of atoms                         .... 21
Number of degrees of freedom            .... 110

         *************************************************************
         *                GEOMETRY OPTIMIZATION CYCLE   1            *
         *************************************************************
---------------------------------
CARTESIAN COORDINATES (ANGSTROEM)
---------------------------------
  C     -0.070053    1.114258    1.250207
  C     -0.066884   -0.957557   -0.000000
  C     -0.070053    1.114258   -1.250208
  C      0.555455    1.711280   -0.000000
  H     -1.107981    1.460480    1.392756
  H     -0.065587   -2.053109   -0.000000
  H      0.499316    1.397592   -2.147162
  H      1.640452    1.520020   -0.000000
  N     -0.069101   -0.350046    1.166155
  N     -0.069102   -0.350046   -1.166155
  H     -1.107981    1.460481   -1.392757
  H      0.419216    2.801387    0.000000
  H      0.499316    1.397592    2.147162
  C     -0.104031   -1.102252    2.415663
  H     -0.150775   -2.178590    2.206926
  H      0.798300   -0.890795    3.007783
  H     -0.991355   -0.815550    2.998909
  C     -0.104031   -1.102252   -2.415663
  H      0.798300   -0.890795   -3.007782
  H     -0.150775   -2.178589   -2.206925
  H     -0.991355   -0.815551   -2.998909

----------------------------
CARTESIAN COORDINATES (A.U.)
----------------------------
  NO LB      ZA    FRAG     MASS         X           Y           Z
   0 C     6.0000    0    12.011   -0.132381    2.105642    2.362549
   1 C     6.0000    0    12.011   -0.126392   -1.809520   -0.000000
   2 C     6.0000    0    12.011   -0.132381    2.105642   -2.362551
   3 C     6.0000    0    12.011    1.049658    3.233851   -0.000000
   4 H     1.0000    0     1.008   -2.093781    2.759907    2.631927
   5 H     1.0000    0     1.008   -0.123941   -3.879814   -0.000000
   6 H     1.0000    0     1.008    0.943570    2.641066   -4.057548
   7 H     1.0000    0     1.008    3.100005    2.872422   -0.000000
   8 N     7.0000    0    14.007   -0.130582   -0.661491    2.203714
   9 N     7.0000    0    14.007   -0.130584   -0.661491   -2.203714
  10 H     1.0000    0     1.008   -2.093781    2.759909   -2.631929
  11 H     1.0000    0     1.008    0.792203    5.293854    0.000000
  12 H     1.0000    0     1.008    0.943570    2.641066    4.057548
  13 C     6.0000    0    12.011   -0.196590   -2.082954    4.564942
  14 H     1.0000    0     1.008   -0.284923   -4.116938    4.170486
  15 H     1.0000    0     1.008    1.508568   -1.683359    5.683886
  16 H     1.0000    0     1.008   -1.873389   -1.541166    5.667117
  17 C     6.0000    0    12.011   -0.196590   -2.082954   -4.564942
  18 H     1.0000    0     1.008    1.508568   -1.683359   -5.683884
  19 H     1.0000    0     1.008   -0.284923   -4.116937   -4.170484
  20 H     1.0000    0     1.008   -1.873389   -1.541168   -5.667117

--------------------------------
INTERNAL COORDINATES (ANGSTROEM)
--------------------------------
 C      0   0   0     0.000000000000     0.00000000     0.00000000
 C      1   0   0     2.419802673698     0.00000000     0.00000000
 C      2   1   0     2.419803190355    62.21651676     0.00000000
 C      1   2   3     1.520102979866    84.88285426   335.56001948
 H      1   2   3     1.103396766294   109.67191493    86.81932674
 H      2   1   3     1.095552767745   148.89174608   180.03833694
 H      3   2   1     1.099538854172   129.89736422   137.50915547
 H      4   1   2     1.101725409351   109.69790272   277.34369871
 N      2   1   3     1.314911409273    31.37433407   180.10777939
 N      2   1   3     1.314911410959    93.59078371   359.94373310
 H      3   2   1     1.103397080073   109.67195520   273.18070895
 H      4   1   2     1.098587427823   109.79702663   159.87914595
 H      1   2   3     1.099539669926   129.89734882   222.49079380
 C      9   2   1     1.458870869337   121.42724821   178.46545004
 H     14   9   2     1.097387637505   110.10995499   358.62750848
 H     14   9   2     1.099782428851   110.02014436   118.81547390
 H     14   9   2     1.099871726292   109.82189280   238.84731054
 C     10   2   1     1.458870845394   121.42724989   181.63002169
 H     18  10   2     1.099781890454   110.02014173   241.18461909
 H     18  10   2     1.097386846900   110.10989237     1.37258344
 H     18  10   2     1.099871465624   109.82189291   121.15271710

---------------------------
INTERNAL COORDINATES (A.U.)
---------------------------
 C      0   0   0     0.000000000000     0.00000000     0.00000000
 C      1   0   0     4.572764351419     0.00000000     0.00000000
 C      2   1   0     4.572765327759    62.21651676     0.00000000
 C      1   2   3     2.872578327304    84.88285426   335.56001948
 H      1   2   3     2.085117705351   109.67191493    86.81932674
 H      2   1   3     2.070294696297   148.89174608   180.03833694
 H      3   2   1     2.077827307990   129.89736422   137.50915547
 H      4   1   2     2.081959298455   109.69790272   277.34369871
 N      2   1   3     2.484822453893    31.37433407   180.10777939
 N      2   1   3     2.484822457080    93.59078371   359.94373310
 H      3   2   1     2.085118298307   109.67195520   273.18070895
 H      4   1   2     2.076029372754   109.79702663   159.87914595
 H      1   2   3     2.077828849543   129.89734882   222.49079380
 C      9   2   1     2.756866407802   121.42724821   178.46545004
 H     14   9   2     2.073762097635   110.10995499   358.62750848
 H     14   9   2     2.078287597428   110.02014436   118.81547390
 H     14   9   2     2.078456345135   109.82189280   238.84731054
 C     10   2   1     2.756866362557   121.42724989   181.63002169
 H     18  10   2     2.078286580005   110.02014173   241.18461909
 H     18  10   2     2.073760603608   110.10989237     1.37258344
 H     18  10   2     2.078455852543   109.82189291   121.15271710

---------------------
BASIS SET INFORMATION
---------------------
There are 3 groups of distinct atoms

 Group   1 Type C   : 11s6p2d1f contracted to 5s3p2d1f pattern {62111/411/11/1}
 Group   2 Type H   : 5s1p contracted to 3s1p pattern {311/1}
 Group   3 Type N   : 11s6p2d1f contracted to 5s3p2d1f pattern {62111/411/11/1}

Atom   0C    basis set group =>   1
Atom   1C    basis set group =>   1
Atom   2C    basis set group =>   1
Atom   3C    basis set group =>   1
Atom   4H    basis set group =>   2
Atom   5H    basis set group =>   2
Atom   6H    basis set group =>   2
Atom   7H    basis set group =>   2
Atom   8N    basis set group =>   3
Atom   9N    basis set group =>   3
Atom  10H    basis set group =>   2
Atom  11H    basis set group =>   2
Atom  12H    basis set group =>   2
Atom  13C    basis set group =>   1
Atom  14H    basis set group =>   2
Atom  15H    basis set group =>   2
Atom  16H    basis set group =>   2
Atom  17C    basis set group =>   1
Atom  18H    basis set group =>   2
Atom  19H    basis set group =>   2
Atom  20H    basis set group =>   2
---------------------------------
AUXILIARY/J BASIS SET INFORMATION
---------------------------------
There are 3 groups of distinct atoms

 Group   1 Type C   : 12s5p4d2f1g contracted to 6s4p3d1f1g pattern {711111/2111/211/2/1}
 Group   2 Type H   : 5s2p1d contracted to 3s1p1d pattern {311/2/1}
 Group   3 Type N   : 12s5p4d2f1g contracted to 6s4p3d1f1g pattern {711111/2111/211/2/1}

Atom   0C    basis set group =>   1
Atom   1C    basis set group =>   1
Atom   2C    basis set group =>   1
Atom   3C    basis set group =>   1
Atom   4H    basis set group =>   2
Atom   5H    basis set group =>   2
Atom   6H    basis set group =>   2
Atom   7H    basis set group =>   2
Atom   8N    basis set group =>   3
Atom   9N    basis set group =>   3
Atom  10H    basis set group =>   2
Atom  11H    basis set group =>   2
Atom  12H    basis set group =>   2
Atom  13C    basis set group =>   1
Atom  14H    basis set group =>   2
Atom  15H    basis set group =>   2
Atom  16H    basis set group =>   2
Atom  17C    basis set group =>   1
Atom  18H    basis set group =>   2
Atom  19H    basis set group =>   2
Atom  20H    basis set group =>   2


           ************************************************************
           *        Program running with 4 parallel MPI-processes     *
           *              working on a common directory               *
           ************************************************************
------------------------------------------------------------------------------
                           ORCA GTO INTEGRAL CALCULATION
                           -- RI-GTO INTEGRALS CHOSEN --
------------------------------------------------------------------------------
------------------------------------------------------------------------------
                   ___                                                        
                  /   \      - P O W E R E D   B Y -                         
                 /     \                                                     
                 |  |  |   _    _      __       _____    __    __             
                 |  |  |  | |  | |    /  \     |  _  \  |  |  /  |          
                  \  \/   | |  | |   /    \    | | | |  |  | /  /          
                 / \  \   | |__| |  /  /\  \   | |_| |  |  |/  /          
                |  |  |   |  __  | /  /__\  \  |    /   |      \           
                |  |  |   | |  | | |   __   |  |    \   |  |\   \          
                \     /   | |  | | |  |  |  |  | |\  \  |  | \   \       
                 \___/    |_|  |_| |__|  |__|  |_| \__\ |__|  \__/        
                                                                              
                      - O R C A' S   B I G   F R I E N D -                    
                                      &                                       
                       - I N T E G R A L  F E E D E R -                       
                                                                              
 v1 FN, 2020, v2 2021                                                         
------------------------------------------------------------------------------


Reading SHARK input file 10_prot.SHARKINP.tmp ... ok
----------------------
SHARK INTEGRAL PACKAGE
----------------------

Number of atoms                             ...     21
Number of basis functions                   ...    326
Number of shells                            ...    140
Maximum angular momentum                    ...      3
Integral batch strategy                     ... SHARK/LIBINT Hybrid
RI-J (if used) integral strategy            ... SPLIT-RIJ (Revised 2003 algorithm where possible)
Printlevel                                  ...      1
Contraction scheme used                     ... SEGMENTED contraction
Coulomb Range Separation                    ... NOT USED
Exchange Range Separation                   ... Long Range
   Mu parameter                             ...  0.300000
   Scaling (regular/separated)              ...  0.157706  0.842294
Finite Nucleus Model                        ... NOT USED
Auxiliary Coulomb fitting basis             ... AVAILABLE
   # of basis functions in Aux-J            ...    535
   # of shells in Aux-J                     ...    185
   Maximum angular momentum in Aux-J        ...      4
Auxiliary J/K fitting basis                 ... NOT available
Auxiliary Correlation fitting basis         ... NOT available
Auxiliary 'external' fitting basis          ... NOT available
Integral threshold                          ...     2.500000e-11
Primitive cut-off                           ...     2.500000e-12
Primitive pair pre-selection threshold      ...     2.500000e-12

Calculating pre-screening integrals         ... done (  0.1 sec) Dimension = 140
Organizing shell pair data                  ... done (  0.1 sec)
Shell pair information
Total number of shell pairs                 ...      9870
Shell pairs after pre-screening             ...      9083
Total number of primitive shell pairs       ...     28656
Primitive shell pairs kept                  ...     19961
          la=0 lb=0:   2804 shell pairs
          la=1 lb=0:   2699 shell pairs
          la=1 lb=1:    649 shell pairs
          la=2 lb=0:   1194 shell pairs
          la=2 lb=1:    566 shell pairs
          la=2 lb=2:    133 shell pairs
          la=3 lb=0:    586 shell pairs
          la=3 lb=1:    290 shell pairs
          la=3 lb=2:    126 shell pairs
          la=3 lb=3:     36 shell pairs

Calculating one electron integrals          ... done (  0.0 sec)
Calculating RI/J V-Matrix + Cholesky decomp.... done (  0.0 sec)
Calculating Nuclear repulsion               ... done (  0.0 sec) ENN=    408.579658417333 Eh

SHARK setup successfully completed in   0.4 seconds

Maximum memory used throughout the entire GTOINT-calculation: 22.1 MB


           ************************************************************
           *        Program running with 4 parallel MPI-processes     *
           *              working on a common directory               *
           ************************************************************
-------------------------------------------------------------------------------
                                 ORCA SCF
-------------------------------------------------------------------------------

------------
SCF SETTINGS
------------
Hamiltonian:
 Density Functional     Method          .... DFT(GTOs)
 Exchange Functional    Exchange        .... WB97X
 Correlation Functional Correlation     .... WB97X
 Gradients option       PostSCFGGA      .... off
 Hybrid DFT is turned on
   Fraction HF Exchange ScalHFX         ....  0.157706
   Scaling of DF-GGA-X  ScalDFX         ....  0.000000
   Scaling of DF-GGA-C  ScalDFC         ....  1.000000
   Scaling of DF-LDA-C  ScalLDAC        ....  1.000000
   Perturbative correction              ....  0.000000
   Density functional embedding theory  .... OFF
 Long-range corrected/Screened/Range-Separated Hybrid DFT is turned on
   Amount of maximum screened exact exchange              ....  0.842294
   Range separation parameter mu (erf(mu*r12)/r12)        ....  0.300000
 RI-approximation to the Coulomb term is turned on
   Number of AuxJ basis functions       .... 535
   RIJ-COSX (HFX calculated with COS-X)).... on


General Settings:
 Integral files         IntName         .... 10_prot
 Hartree-Fock type      HFTyp           .... RHF
 Total Charge           Charge          ....    1
 Multiplicity           Mult            ....    1
 Number of Electrons    NEL             ....   62
 Basis Dimension        Dim             ....  326
 Nuclear Repulsion      ENuc            ....    408.5796584173 Eh

Convergence Acceleration:
 DIIS                   CNVDIIS         .... on
   Start iteration      DIISMaxIt       ....     0
   Startup error        DIISStart       ....  0.200000
   # of expansion vecs  DIISMaxEq       ....     5
   Bias factor          DIISBfac        ....   1.050
   Max. coefficient     DIISMaxC        ....  10.000
 Trust-Rad. Augm. Hess. CNVTRAH         .... auto
   Auto Start mean grad. ratio tolernc. ....  1.125000
   Auto Start start iteration           ....    20
   Auto Start num. interpolation iter.  ....    10
   Max. Number of Micro iterations      ....    16
   Max. Number of Macro iterations      .... Maxiter - #DIIS iter
   Number of Davidson start vectors     ....     2
   Converg. threshold I  (grad. norm)   ....   1.000e-05
   Converg. threshold II (energy diff.) ....   1.000e-08
   Grad. Scal. Fac. for Micro threshold ....   0.100
   Minimum threshold for Micro iter.    ....   0.010
   NR start threshold (gradient norm)   ....   0.001
   Initial trust radius                 ....   0.400
   Minimum AH scaling param. (alpha)    ....   1.000
   Maximum AH scaling param. (alpha)    .... 1000.000
   Orbital update algorithm             .... Taylor
   White noise on init. David. guess    .... on
   Maximum white noise                  ....   0.010
   Quad. conv. algorithm                .... NR
 SOSCF                  CNVSOSCF        .... on
   Start iteration      SOSCFMaxIt      ....   150
   Startup grad/error   SOSCFStart      ....  0.001000
 Level Shifting         CNVShift        .... on
   Level shift para.    LevelShift      ....    0.2500
   Turn off err/grad.   ShiftErr        ....    0.0000
 Zerner damping         CNVZerner       .... off
 Static damping         CNVDamp         .... on
   Fraction old density DampFac         ....    0.8500
   Max. Damping (<1)    DampMax         ....    0.9800
   Min. Damping (>=0)   DampMin         ....    0.0000
   Turn off err/grad.   DampErr         ....    0.0300
 Fernandez-Rico         CNVRico         .... off

SCF Procedure:
 Maximum # iterations   MaxIter         ....   125
 SCF integral mode      SCFMode         .... Direct
   Integral package                     .... SHARK and LIBINT hybrid scheme
 Reset frequency        DirectResetFreq ....    20
 Integral Threshold     Thresh          ....  2.500e-11 Eh
 Primitive CutOff       TCut            ....  2.500e-12 Eh

Convergence Tolerance:
 Convergence Check Mode ConvCheckMode   .... Total+1el-Energy
 Convergence forced     ConvForced      .... 0
 Energy Change          TolE            ....  1.000e-08 Eh
 1-El. energy change                    ....  1.000e-05 Eh
 Orbital Gradient       TolG            ....  1.000e-05
 Orbital Rotation angle TolX            ....  1.000e-05
 DIIS Error             TolErr          ....  5.000e-07


Diagonalization of the overlap matrix:
Smallest eigenvalue                        ... 2.125e-04
Time for diagonalization                   ...    0.017 sec
Threshold for overlap eigenvalues          ... 1.000e-08
Number of eigenvalues below threshold      ... 0
Time for construction of square roots      ...    0.011 sec
Total time needed                          ...    0.029 sec

Time for model grid setup =    0.133 sec

------------------------------
INITIAL GUESS: MODEL POTENTIAL
------------------------------
Loading Hartree-Fock densities                     ... done
Calculating cut-offs                               ... done
Initializing the effective Hamiltonian             ... done
Setting up the integral package (SHARK)            ... done
Starting the Coulomb interaction                   ... done (   0.2 sec)
Reading the grid                                   ... done
Mapping shells                                     ... done
Starting the XC term evaluation                    ... done (   0.2 sec)
  promolecular density results
     # of electrons  =     62.997092154
     EX              =    -47.672248369
     EC              =     -2.089361416
     EX+EC           =    -49.761609784
Transforming the Hamiltonian                       ... done (   0.0 sec)
Diagonalizing the Hamiltonian                      ... done (   0.0 sec)
Back transforming the eigenvectors                 ... done (   0.0 sec)
Now organizing SCF variables                       ... done
                      ------------------
                      INITIAL GUESS DONE (   0.6 sec)
                      ------------------
-------------------
DFT GRID GENERATION
-------------------

General Integration Accuracy     IntAcc      ... 4.388
Radial Grid Type                 RadialGrid  ... OptM3 with GC (2021)
Angular Grid (max. ang.)         AngularGrid ... 4 (Lebedev-302)
Angular grid pruning method      GridPruning ... 4 (adaptive)
Weight generation scheme         WeightScheme... Becke
Basis function cutoff            BFCut       ... 1.0000e-11
Integration weight cutoff        WCut        ... 1.0000e-14
Angular grids for H and He will be reduced by one unit
Partially contracted basis set               ... off
Rotationally invariant grid construction     ... off

Total number of grid points                  ...    89512
Total number of batches                      ...     1408
Average number of points per batch           ...       63
Average number of grid points per atom       ...     4262
Time for grid setup =    0.628 sec

--------------------
COSX GRID GENERATION
--------------------

GRIDX 1
-------
General Integration Accuracy     IntAcc      ... 3.816
Radial Grid Type                 RadialGrid  ... OptM3 with GC (2021)
Angular Grid (max. ang.)         AngularGrid ... 1 (Lebedev-50)
Angular grid pruning method      GridPruning ... 4 (adaptive)
Weight generation scheme         WeightScheme... Becke
Basis function cutoff            BFCut       ... 1.0000e-11
Integration weight cutoff        WCut        ... 1.0000e-14
Angular grids for H and He will be reduced by one unit
Partially contracted basis set               ... on
Rotationally invariant grid construction     ... off

Total number of grid points                  ...    11510
Total number of batches                      ...      192
Average number of points per batch           ...       59
Average number of grid points per atom       ...      548
UseSFitting                                  ... on

GRIDX 2
-------
General Integration Accuracy     IntAcc      ... 4.020
Radial Grid Type                 RadialGrid  ... OptM3 with GC (2021)
Angular Grid (max. ang.)         AngularGrid ... 2 (Lebedev-110)
Angular grid pruning method      GridPruning ... 4 (adaptive)
Weight generation scheme         WeightScheme... Becke
Basis function cutoff            BFCut       ... 1.0000e-11
Integration weight cutoff        WCut        ... 1.0000e-14
Angular grids for H and He will be reduced by one unit
Partially contracted basis set               ... on
Rotationally invariant grid construction     ... off

Total number of grid points                  ...    24043
Total number of batches                      ...      383
Average number of points per batch           ...       62
Average number of grid points per atom       ...     1145
UseSFitting                                  ... on

GRIDX 3
-------
General Integration Accuracy     IntAcc      ... 4.338
Radial Grid Type                 RadialGrid  ... OptM3 with GC (2021)
Angular Grid (max. ang.)         AngularGrid ... 3 (Lebedev-194)
Angular grid pruning method      GridPruning ... 4 (adaptive)
Weight generation scheme         WeightScheme... Becke
Basis function cutoff            BFCut       ... 1.0000e-11
Integration weight cutoff        WCut        ... 1.0000e-14
Angular grids for H and He will be reduced by one unit
Partially contracted basis set               ... on
Rotationally invariant grid construction     ... off

Total number of grid points                  ...    52514
Total number of batches                      ...      831
Average number of points per batch           ...       63
Average number of grid points per atom       ...     2501
UseSFitting                                  ... on

Time for X-Grid setup             =    0.869 sec

--------------
SCF ITERATIONS
--------------
ITER       Energy         Delta-E        Max-DP      RMS-DP      [F,P]     Damp
               ***  Starting incremental Fock matrix formation  ***
  0   -345.6619527514   0.000000000000 0.01213633  0.00028282  0.1328312 0.8500
  1   -345.6887035628  -0.026750811416 0.01054131  0.00028120  0.1061629 0.8500
                               ***Turning on DIIS***
  2   -345.7089260290  -0.020222466144 0.00892658  0.00023660  0.0808358 0.8500
  3   -345.7239631958  -0.015037166825 0.00736440  0.00018784  0.0607812 0.8500
  4   -345.7356011644  -0.011637968619 0.00639323  0.00015647  0.0482165 0.8500
  5   -345.7447901066  -0.009188942196 0.00585469  0.00013427  0.0399069 0.8500
  6   -345.7522789264  -0.007488819752 0.00520771  0.00011606  0.0336673 0.8500
  7   -345.7584918653  -0.006212938961 0.03042938  0.00067218  0.0286037 0.0000
                      *** Initiating the SOSCF procedure ***
                           *** Shutting down DIIS ***
                      *** Re-Reading the Fockian *** 
                      *** Removing any level shift *** 
ITER      Energy       Delta-E        Grad      Rot      Max-DP    RMS-DP
  8   -345.79178913  -0.0332972651  0.000575  0.000575  0.001042  0.000022
               *** Restarting incremental Fock matrix formation ***
  9   -345.79178604   0.0000030927  0.000214  0.000424  0.000538  0.000013
 10   -345.79178811  -0.0000020710  0.000165  0.000425  0.000270  0.000007
 11   -345.79178869  -0.0000005774  0.000023  0.000052  0.000109  0.000002
 12   -345.79178873  -0.0000000400  0.000005  0.000011  0.000012  0.000000
 13   -345.79178873   0.0000000008  0.000003  0.000009  0.000005  0.000000
                  ***Gradient check signals convergence***
              ***Rediagonalizing the Fockian in SOSCF/NRSCF***

               *****************************************************
               *                     SUCCESS                       *
               *           SCF CONVERGED AFTER  14 CYCLES          *
               *****************************************************

Old exchange energy                            =    -15.859196458 Eh
New exchange energy                            =    -15.859213905 Eh
Exchange energy change after final integration =     -0.000017446 Eh
Total energy after final integration           =   -345.791806174 Eh
Final COS-X integration done in                =    18.869 sec

----------------
TOTAL SCF ENERGY
----------------

Total Energy       :         -345.79180617 Eh           -9409.47341 eV

Components:
Nuclear Repulsion  :          408.57965842 Eh           11118.01773 eV
Electronic Energy  :         -754.37146459 Eh          -20527.49115 eV
One Electron Energy:        -1263.83228758 Eh          -34390.62493 eV
Two Electron Energy:          509.46082299 Eh           13863.13378 eV
Max COSX asymmetry :            0.00000082 Eh               0.00002 eV

Virial components:
Potential Energy   :         -689.81810010 Eh          -18770.90480 eV
Kinetic Energy     :          344.02629393 Eh            9361.43138 eV
Virial Ratio       :            2.00513191


DFT components:
N(Alpha)           :       31.000031520436 electrons
N(Beta)            :       31.000031520436 electrons
N(Total)           :       62.000063040872 electrons
E(XC)              :      -35.145524167363 Eh       
DFET-embed. en.    :        0.000000000000 Eh       

---------------
SCF CONVERGENCE
---------------

  Last Energy change         ...   -1.7599e-09  Tolerance :   1.0000e-08
  Last MAX-Density change    ...    1.2212e-15  Tolerance :   1.0000e-07
  Last RMS-Density change    ...    1.3114e-17  Tolerance :   5.0000e-09
  Last Orbital Gradient      ...    3.0392e-07  Tolerance :   1.0000e-05
  Last Orbital Rotation      ...    5.8496e-07  Tolerance :   1.0000e-05

             **** THE GBW FILE WAS UPDATED (10_prot.gbw) ****
             **** DENSITY 10_prot.scfp WAS UPDATED ****
             **** ENERGY FILE WAS UPDATED (10_prot.en.tmp) ****
             **** THE GBW FILE WAS UPDATED (10_prot.gbw) ****
             **** DENSITY 10_prot.scfp WAS UPDATED ****
----------------
ORBITAL ENERGIES
----------------

  NO   OCC          E(Eh)            E(eV) 
   0   2.0000     -14.624070      -397.9412 
   1   2.0000     -14.624054      -397.9407 
   2   2.0000     -10.537594      -286.7425 
   3   2.0000     -10.462457      -284.6979 
   4   2.0000     -10.462450      -284.6977 
   5   2.0000     -10.452137      -284.4171 
   6   2.0000     -10.452136      -284.4171 
   7   2.0000     -10.424759      -283.6721 
   8   2.0000      -1.323924       -36.0258 
   9   2.0000      -1.246712       -33.9248 
  10   2.0000      -1.103428       -30.0258 
  11   2.0000      -1.044483       -28.4218 
  12   2.0000      -1.012710       -27.5572 
  13   2.0000      -0.961546       -26.1650 
  14   2.0000      -0.947637       -25.7865 
  15   2.0000      -0.838457       -22.8156 
  16   2.0000      -0.811187       -22.0735 
  17   2.0000      -0.802474       -21.8364 
  18   2.0000      -0.777834       -21.1659 
  19   2.0000      -0.744265       -20.2525 
  20   2.0000      -0.726758       -19.7761 
  21   2.0000      -0.719021       -19.5655 
  22   2.0000      -0.714751       -19.4494 
  23   2.0000      -0.681448       -18.5432 
  24   2.0000      -0.676343       -18.4042 
  25   2.0000      -0.666430       -18.1345 
  26   2.0000      -0.644919       -17.5491 
  27   2.0000      -0.625926       -17.0323 
  28   2.0000      -0.617945       -16.8151 
  29   2.0000      -0.603290       -16.4164 
  30   2.0000      -0.510357       -13.8875 
  31   0.0000      -0.097417        -2.6509 
  32   0.0000      -0.038942        -1.0597 
  33   0.0000      -0.008471        -0.2305 
  34   0.0000      -0.007416        -0.2018 
  35   0.0000       0.014414         0.3922 
  36   0.0000       0.022357         0.6084 
  37   0.0000       0.032450         0.8830 
  38   0.0000       0.038047         1.0353 
  39   0.0000       0.038454         1.0464 
  40   0.0000       0.042616         1.1596 
  41   0.0000       0.055046         1.4979 
  42   0.0000       0.063056         1.7158 
  43   0.0000       0.065570         1.7842 
  44   0.0000       0.071055         1.9335 
  45   0.0000       0.077803         2.1171 
  46   0.0000       0.088542         2.4093 
  47   0.0000       0.100059         2.7227 
  48   0.0000       0.115709         3.1486 
  49   0.0000       0.115793         3.1509 
  50   0.0000       0.129261         3.5174 
  51   0.0000       0.130902         3.5620 
  52   0.0000       0.153590         4.1794 
  53   0.0000       0.155370         4.2278 
  54   0.0000       0.165012         4.4902 
  55   0.0000       0.182027         4.9532 
  56   0.0000       0.187443         5.1006 
  57   0.0000       0.207627         5.6498 
  58   0.0000       0.226604         6.1662 
  59   0.0000       0.231642         6.3033 
  60   0.0000       0.246430         6.7057 
  61   0.0000       0.249962         6.8018 
  62   0.0000       0.260077         7.0771 
  63   0.0000       0.277221         7.5436 
  64   0.0000       0.304007         8.2724 
  65   0.0000       0.313535         8.5317 
  66   0.0000       0.316910         8.6236 
  67   0.0000       0.320942         8.7333 
  68   0.0000       0.350934         9.5494 
  69   0.0000       0.353548         9.6205 
  70   0.0000       0.362384         9.8610 
  71   0.0000       0.363438         9.8896 
  72   0.0000       0.368163        10.0182 
  73   0.0000       0.380868        10.3639 
  74   0.0000       0.383082        10.4242 
  75   0.0000       0.391108        10.6426 
  76   0.0000       0.394660        10.7392 
  77   0.0000       0.406202        11.0533 
  78   0.0000       0.414123        11.2689 
  79   0.0000       0.422393        11.4939 
  80   0.0000       0.426710        11.6114 
  81   0.0000       0.442321        12.0362 
  82   0.0000       0.456727        12.4282 
  83   0.0000       0.460522        12.5314 
  84   0.0000       0.470181        12.7943 
  85   0.0000       0.470502        12.8030 
  86   0.0000       0.487510        13.2658 
  87   0.0000       0.495180        13.4745 
  88   0.0000       0.510419        13.8892 
  89   0.0000       0.527550        14.3554 
  90   0.0000       0.533192        14.5089 
  91   0.0000       0.555031        15.1032 
  92   0.0000       0.579202        15.7609 
  93   0.0000       0.609676        16.5901 
  94   0.0000       0.640399        17.4261 
  95   0.0000       0.640941        17.4409 
  96   0.0000       0.659140        17.9361 
  97   0.0000       0.664433        18.0801 
  98   0.0000       0.687151        18.6983 
  99   0.0000       0.695314        18.9205 
 100   0.0000       0.748203        20.3596 
 101   0.0000       0.757513        20.6130 
 102   0.0000       0.774827        21.0841 
 103   0.0000       0.782507        21.2931 
 104   0.0000       0.796354        21.6699 
 105   0.0000       0.821812        22.3626 
 106   0.0000       0.835437        22.7334 
 107   0.0000       0.841388        22.8953 
 108   0.0000       0.880948        23.9718 
 109   0.0000       0.889846        24.2139 
 110   0.0000       0.944483        25.7007 
 111   0.0000       0.948086        25.7987 
 112   0.0000       0.957802        26.0631 
 113   0.0000       0.973000        26.4767 
 114   0.0000       0.979644        26.6575 
 115   0.0000       0.979676        26.6583 
 116   0.0000       1.013632        27.5823 
 117   0.0000       1.032985        28.1090 
 118   0.0000       1.048845        28.5405 
 119   0.0000       1.085651        29.5421 
 120   0.0000       1.089921        29.6582 
 121   0.0000       1.101605        29.9762 
 122   0.0000       1.111946        30.2576 
 123   0.0000       1.166451        31.7407 
 124   0.0000       1.186711        32.2920 
 125   0.0000       1.215655        33.0796 
 126   0.0000       1.224207        33.3124 
 127   0.0000       1.265962        34.4486 
 128   0.0000       1.294090        35.2140 
 129   0.0000       1.329975        36.1905 
 130   0.0000       1.382000        37.6061 
 131   0.0000       1.382460        37.6187 
 132   0.0000       1.389269        37.8039 
 133   0.0000       1.411028        38.3960 
 134   0.0000       1.435636        39.0656 
 135   0.0000       1.466159        39.8962 
 136   0.0000       1.471681        40.0465 
 137   0.0000       1.475214        40.1426 
 138   0.0000       1.479986        40.2725 
 139   0.0000       1.503034        40.8996 
 140   0.0000       1.503599        40.9150 
 141   0.0000       1.510130        41.0927 
 142   0.0000       1.511899        41.1409 
 143   0.0000       1.531290        41.6685 
 144   0.0000       1.542021        41.9605 
 145   0.0000       1.549339        42.1597 
 146   0.0000       1.561076        42.4790 
 147   0.0000       1.567158        42.6445 
 148   0.0000       1.584356        43.1125 
 149   0.0000       1.589995        43.2660 
 150   0.0000       1.598851        43.5069 
 151   0.0000       1.628086        44.3025 
 152   0.0000       1.653238        44.9869 
 153   0.0000       1.662521        45.2395 
 154   0.0000       1.682054        45.7710 
 155   0.0000       1.699367        46.2421 
 156   0.0000       1.714115        46.6434 
 157   0.0000       1.724876        46.9363 
 158   0.0000       1.795770        48.8654 
 159   0.0000       1.819394        49.5082 
 160   0.0000       1.833496        49.8920 
 161   0.0000       1.845929        50.2303 
 162   0.0000       1.858707        50.5780 
 163   0.0000       1.891369        51.4668 
 164   0.0000       1.899555        51.6895 
 165   0.0000       1.921250        52.2799 
 166   0.0000       1.930766        52.5388 
 167   0.0000       1.954473        53.1839 
 168   0.0000       1.988562        54.1115 
 169   0.0000       2.019588        54.9558 
 170   0.0000       2.043307        55.6012 
 171   0.0000       2.050487        55.7966 
 172   0.0000       2.074800        56.4582 
 173   0.0000       2.114620        57.5417 
 174   0.0000       2.130475        57.9732 
 175   0.0000       2.150143        58.5084 
 176   0.0000       2.163014        58.8586 
 177   0.0000       2.184802        59.4515 
 178   0.0000       2.197578        59.7991 
 179   0.0000       2.203548        59.9616 
 180   0.0000       2.228474        60.6399 
 181   0.0000       2.256809        61.4109 
 182   0.0000       2.277721        61.9800 
 183   0.0000       2.278338        61.9967 
 184   0.0000       2.293970        62.4221 
 185   0.0000       2.296753        62.4978 
 186   0.0000       2.311687        62.9042 
 187   0.0000       2.332315        63.4655 
 188   0.0000       2.375569        64.6425 
 189   0.0000       2.387874        64.9774 
 190   0.0000       2.398222        65.2589 
 191   0.0000       2.418872        65.8209 
 192   0.0000       2.434569        66.2480 
 193   0.0000       2.440937        66.4213 
 194   0.0000       2.463794        67.0433 
 195   0.0000       2.496879        67.9435 
 196   0.0000       2.498812        67.9961 
 197   0.0000       2.508006        68.2463 
 198   0.0000       2.522573        68.6427 
 199   0.0000       2.526783        68.7572 
 200   0.0000       2.537346        69.0447 
 201   0.0000       2.549492        69.3752 
 202   0.0000       2.562947        69.7413 
 203   0.0000       2.581827        70.2551 
 204   0.0000       2.585410        70.3526 
 205   0.0000       2.595837        70.6363 
 206   0.0000       2.611149        71.0530 
 207   0.0000       2.637304        71.7647 
 208   0.0000       2.640534        71.8526 
 209   0.0000       2.658898        72.3523 
 210   0.0000       2.677790        72.8664 
 211   0.0000       2.706150        73.6381 
 212   0.0000       2.726536        74.1928 
 213   0.0000       2.769276        75.3558 
 214   0.0000       2.810215        76.4698 
 215   0.0000       2.836821        77.1938 
 216   0.0000       2.861500        77.8654 
 217   0.0000       2.878552        78.3294 
 218   0.0000       2.935701        79.8845 
 219   0.0000       2.951406        80.3118 
 220   0.0000       2.957946        80.4898 
 221   0.0000       2.974301        80.9349 
 222   0.0000       2.985270        81.2333 
 223   0.0000       3.000552        81.6492 
 224   0.0000       3.015735        82.0623 
 225   0.0000       3.032669        82.5231 
 226   0.0000       3.040192        82.7278 
 227   0.0000       3.054807        83.1255 
 228   0.0000       3.080186        83.8161 
 229   0.0000       3.086370        83.9844 
 230   0.0000       3.104347        84.4736 
 231   0.0000       3.110136        84.6311 
 232   0.0000       3.145465        85.5925 
 233   0.0000       3.171305        86.2956 
 234   0.0000       3.185160        86.6726 
 235   0.0000       3.188137        86.7536 
 236   0.0000       3.196017        86.9680 
 237   0.0000       3.200314        87.0850 
 238   0.0000       3.235617        88.0456 
 239   0.0000       3.241158        88.1964 
 240   0.0000       3.251765        88.4850 
 241   0.0000       3.269788        88.9755 
 242   0.0000       3.272693        89.0545 
 243   0.0000       3.306853        89.9840 
 244   0.0000       3.309075        90.0445 
 245   0.0000       3.316000        90.2329 
 246   0.0000       3.322040        90.3973 
 247   0.0000       3.358620        91.3927 
 248   0.0000       3.373674        91.8023 
 249   0.0000       3.413984        92.8992 
 250   0.0000       3.430119        93.3383 
 251   0.0000       3.435015        93.4715 
 252   0.0000       3.475150        94.5636 
 253   0.0000       3.486918        94.8839 
 254   0.0000       3.498206        95.1910 
 255   0.0000       3.522448        95.8507 
 256   0.0000       3.527739        95.9947 
 257   0.0000       3.530872        96.0799 
 258   0.0000       3.548199        96.5514 
 259   0.0000       3.565428        97.0202 
 260   0.0000       3.576066        97.3097 
 261   0.0000       3.637803        98.9897 
 262   0.0000       3.658730        99.5591 
 263   0.0000       3.667456        99.7965 
 264   0.0000       3.741068       101.7996 
 265   0.0000       3.758912       102.2852 
 266   0.0000       3.793241       103.2193 
 267   0.0000       3.869696       105.2998 
 268   0.0000       3.875193       105.4494 
 269   0.0000       3.891759       105.9002 
 270   0.0000       3.925154       106.8089 
 271   0.0000       3.935915       107.1017 
 272   0.0000       3.945557       107.3641 
 273   0.0000       3.985750       108.4578 
 274   0.0000       3.997043       108.7651 
 275   0.0000       4.023927       109.4966 
 276   0.0000       4.098170       111.5169 
 277   0.0000       4.108814       111.8065 
 278   0.0000       4.122155       112.1695 
 279   0.0000       4.178177       113.6940 
 280   0.0000       4.231521       115.1455 
 281   0.0000       4.248499       115.6075 
 282   0.0000       4.258424       115.8776 
 283   0.0000       4.271038       116.2209 
 284   0.0000       4.328712       117.7902 
 285   0.0000       4.340415       118.1087 
 286   0.0000       4.356172       118.5375 
 287   0.0000       4.381471       119.2259 
 288   0.0000       4.468294       121.5885 
 289   0.0000       4.499958       122.4501 
 290   0.0000       4.545376       123.6860 
 291   0.0000       4.605497       125.3219 
 292   0.0000       4.698741       127.8592 
 293   0.0000       4.722223       128.4982 
 294   0.0000       4.806021       130.7785 
 295   0.0000       4.811553       130.9290 
 296   0.0000       4.874541       132.6430 
 297   0.0000       4.902311       133.3987 
 298   0.0000       5.001140       136.0879 
 299   0.0000       5.012605       136.3999 
 300   0.0000       5.025374       136.7474 
 301   0.0000       5.073291       138.0513 
 302   0.0000       5.095773       138.6630 
 303   0.0000       5.154946       140.2732 
 304   0.0000       5.185759       141.1117 
 305   0.0000       5.191648       141.2719 
 306   0.0000       5.254228       142.9748 
 307   0.0000       5.287993       143.8936 
 308   0.0000       5.345905       145.4695 
 309   0.0000       5.353863       145.6860 
 310   0.0000       5.426068       147.6508 
 311   0.0000       5.504614       149.7882 
 312   0.0000       5.689078       154.8077 
 313   0.0000       5.700282       155.1126 
 314   0.0000       5.766158       156.9051 
 315   0.0000       5.800695       157.8449 
 316   0.0000       5.945665       161.7898 
 317   0.0000       6.063457       164.9951 
 318   0.0000      22.270807       606.0195 
 319   0.0000      22.286422       606.4444 
 320   0.0000      22.342803       607.9786 
 321   0.0000      22.413967       609.9150 
 322   0.0000      22.413989       609.9157 
 323   0.0000      23.007205       626.0579 
 324   0.0000      32.604273       887.2074 
 325   0.0000      32.770238       891.7235 

                    ********************************
                    * MULLIKEN POPULATION ANALYSIS *
                    ********************************

-----------------------
MULLIKEN ATOMIC CHARGES
-----------------------
   0 C :   -0.196631
   1 C :    0.128961
   2 C :   -0.196606
   3 C :   -0.246629
   4 H :    0.175573
   5 H :    0.198371
   6 H :    0.175944
   7 H :    0.159953
   8 N :   -0.083035
   9 N :   -0.083045
  10 H :    0.175579
  11 H :    0.176214
  12 H :    0.175957
  13 C :   -0.274222
  14 H :    0.145418
  15 H :    0.174708
  16 H :    0.173797
  17 C :   -0.274230
  18 H :    0.174713
  19 H :    0.145414
  20 H :    0.173797
Sum of atomic charges:    1.0000000

--------------------------------
MULLIKEN REDUCED ORBITAL CHARGES
--------------------------------
  0 C s       :     3.277291  s :     3.277291
      pz      :     1.021666  p :     2.808899
      px      :     1.081705
      py      :     0.705528
      dz2     :     0.021231  d :     0.103036
      dxz     :     0.013948
      dyz     :     0.018589
      dx2y2   :     0.024066
      dxy     :     0.025202
      f0      :     0.001151  f :     0.007404
      f+1     :     0.000913
      f-1     :     0.000878
      f+2     :     0.001408
      f-2     :     0.000181
      f+3     :     0.001805
      f-3     :     0.001069
  1 C s       :     3.061440  s :     3.061440
      pz      :     0.798082  p :     2.625449
      px      :     0.803636
      py      :     1.023731
      dz2     :     0.036548  d :     0.168347
      dxz     :     0.075894
      dyz     :     0.036613
      dx2y2   :     0.012029
      dxy     :     0.007264
      f0      :     0.004155  f :     0.015803
      f+1     :     0.003091
      f-1     :     0.002294
      f+2     :     0.001712
      f-2     :     0.003264
      f+3     :     0.000617
      f-3     :     0.000670
  2 C s       :     3.277286  s :     3.277286
      pz      :     1.021659  p :     2.808880
      px      :     1.081696
      py      :     0.705525
      dz2     :     0.021232  d :     0.103036
      dxz     :     0.013948
      dyz     :     0.018588
      dx2y2   :     0.024067
      dxy     :     0.025202
      f0      :     0.001151  f :     0.007404
      f+1     :     0.000913
      f-1     :     0.000878
      f+2     :     0.001408
      f-2     :     0.000181
      f+3     :     0.001805
      f-3     :     0.001069
  3 C s       :     3.235630  s :     3.235630
      pz      :     0.864278  p :     2.920249
      px      :     0.998123
      py      :     1.057848
      dz2     :     0.030321  d :     0.085437
      dxz     :     0.019065
      dyz     :     0.012356
      dx2y2   :     0.019676
      dxy     :     0.004019
      f0      :     0.001285  f :     0.005314
      f+1     :     0.000809
      f-1     :     0.000894
      f+2     :     0.001013
      f-2     :     0.000607
      f+3     :     0.000323
      f-3     :     0.000383
  4 H s       :     0.802402  s :     0.802402
      pz      :     0.004261  p :     0.022025
      px      :     0.013518
      py      :     0.004246
  5 H s       :     0.779212  s :     0.779212
      pz      :     0.002460  p :     0.022417
      px      :     0.002882
      py      :     0.017074
  6 H s       :     0.801677  s :     0.801677
      pz      :     0.011704  p :     0.022380
      px      :     0.006645
      py      :     0.004030
  7 H s       :     0.817654  s :     0.817654
      pz      :     0.003637  p :     0.022393
      px      :     0.014781
      py      :     0.003976
  8 N s       :     3.419976  s :     3.419976
      pz      :     1.041909  p :     3.573883
      px      :     1.472659
      py      :     1.059316
      dz2     :     0.019705  d :     0.084063
      dxz     :     0.016324
      dyz     :     0.026472
      dx2y2   :     0.010034
      dxy     :     0.011528
      f0      :     0.001191  f :     0.005113
      f+1     :     0.000794
      f-1     :     0.000670
      f+2     :     0.000863
      f-2     :     0.000377
      f+3     :     0.000568
      f-3     :     0.000651
  9 N s       :     3.419975  s :     3.419975
      pz      :     1.041910  p :     3.573895
      px      :     1.472658
      py      :     1.059328
      dz2     :     0.019706  d :     0.084060
      dxz     :     0.016324
      dyz     :     0.026469
      dx2y2   :     0.010033
      dxy     :     0.011528
      f0      :     0.001191  f :     0.005113
      f+1     :     0.000794
      f-1     :     0.000670
      f+2     :     0.000863
      f-2     :     0.000377
      f+3     :     0.000568
      f-3     :     0.000651
 10 H s       :     0.802397  s :     0.802397
      pz      :     0.004261  p :     0.022025
      px      :     0.013518
      py      :     0.004246
 11 H s       :     0.801027  s :     0.801027
      pz      :     0.003751  p :     0.022759
      px      :     0.003909
      py      :     0.015099
 12 H s       :     0.801663  s :     0.801663
      pz      :     0.011704  p :     0.022380
      px      :     0.006645
      py      :     0.004030
 13 C s       :     3.310346  s :     3.310346
      pz      :     0.809183  p :     2.894834
      px      :     1.099214
      py      :     0.986437
      dz2     :     0.011255  d :     0.063886
      dxz     :     0.027291
      dyz     :     0.011237
      dx2y2   :     0.009340
      dxy     :     0.004763
      f0      :     0.001001  f :     0.005155
      f+1     :     0.000803
      f-1     :     0.001024
      f+2     :     0.001151
      f-2     :     0.000848
      f+3     :     0.000037
      f-3     :     0.000291
 14 H s       :     0.832229  s :     0.832229
      pz      :     0.003175  p :     0.022353
      px      :     0.004199
      py      :     0.014978
 15 H s       :     0.803435  s :     0.803435
      pz      :     0.007018  p :     0.021857
      px      :     0.011009
      py      :     0.003830
 16 H s       :     0.804422  s :     0.804422
      pz      :     0.006888  p :     0.021781
      px      :     0.010822
      py      :     0.004070
 17 C s       :     3.310349  s :     3.310349
      pz      :     0.809184  p :     2.894839
      px      :     1.099215
      py      :     0.986439
      dz2     :     0.011256  d :     0.063887
      dxz     :     0.027291
      dyz     :     0.011236
      dx2y2   :     0.009340
      dxy     :     0.004763
      f0      :     0.001001  f :     0.005155
      f+1     :     0.000803
      f-1     :     0.001024
      f+2     :     0.001151
      f-2     :     0.000848
      f+3     :     0.000037
      f-3     :     0.000291
 18 H s       :     0.803430  s :     0.803430
      pz      :     0.007018  p :     0.021857
      px      :     0.011009
      py      :     0.003830
 19 H s       :     0.832234  s :     0.832234
      pz      :     0.003175  p :     0.022353
      px      :     0.004199
      py      :     0.014978
 20 H s       :     0.804422  s :     0.804422
      pz      :     0.006888  p :     0.021781
      px      :     0.010822
      py      :     0.004070


                     *******************************
                     * LOEWDIN POPULATION ANALYSIS *
                     *******************************

----------------------
LOEWDIN ATOMIC CHARGES
----------------------
   0 C :   -0.218529
   1 C :   -0.160346
   2 C :   -0.218528
   3 C :   -0.239795
   4 H :    0.152128
   5 H :    0.170075
   6 H :    0.156110
   7 H :    0.155892
   8 N :    0.203492
   9 N :    0.203492
  10 H :    0.152128
  11 H :    0.164032
  12 H :    0.156110
  13 C :   -0.243022
  14 H :    0.133986
  15 H :    0.134761
  16 H :    0.136145
  17 C :   -0.243022
  18 H :    0.134761
  19 H :    0.133986
  20 H :    0.136145

-------------------------------
LOEWDIN REDUCED ORBITAL CHARGES
-------------------------------
  0 C s       :     2.779146  s :     2.779146
      pz      :     1.043934  p :     2.947597
      px      :     1.061976
      py      :     0.841687
      dz2     :     0.093642  d :     0.439621
      dxz     :     0.061615
      dyz     :     0.081950
      dx2y2   :     0.107819
      dxy     :     0.094595
      f0      :     0.007163  f :     0.052165
      f+1     :     0.005464
      f-1     :     0.007844
      f+2     :     0.008740
      f-2     :     0.003951
      f+3     :     0.011116
      f-3     :     0.007887
  1 C s       :     2.756503  s :     2.756503
      pz      :     0.937218  p :     2.712718
      px      :     0.782493
      py      :     0.993007
      dz2     :     0.185157  d :     0.605289
      dxz     :     0.202385
      dyz     :     0.144095
      dx2y2   :     0.056831
      dxy     :     0.016821
      f0      :     0.022844  f :     0.085837
      f+1     :     0.009719
      f-1     :     0.016161
      f+2     :     0.012234
      f-2     :     0.021470
      f+3     :     0.000778
      f-3     :     0.002632
  2 C s       :     2.779146  s :     2.779146
      pz      :     1.043933  p :     2.947596
      px      :     1.061976
      py      :     0.841687
      dz2     :     0.093642  d :     0.439621
      dxz     :     0.061615
      dyz     :     0.081950
      dx2y2   :     0.107819
      dxy     :     0.094595
      f0      :     0.007163  f :     0.052165
      f+1     :     0.005464
      f-1     :     0.007844
      f+2     :     0.008740
      f-2     :     0.003951
      f+3     :     0.011116
      f-3     :     0.007887
  3 C s       :     2.772141  s :     2.772141
      pz      :     1.003159  p :     3.050384
      px      :     1.027773
      py      :     1.019451
      dz2     :     0.122329  d :     0.378576
      dxz     :     0.079304
      dyz     :     0.059949
      dx2y2   :     0.096063
      dxy     :     0.020931
      f0      :     0.007589  f :     0.038695
      f+1     :     0.006403
      f-1     :     0.007016
      f+2     :     0.005559
      f-2     :     0.006987
      f+3     :     0.002351
      f-3     :     0.002789
  4 H s       :     0.789292  s :     0.789292
      pz      :     0.012724  p :     0.058581
      px      :     0.034099
      py      :     0.011758
  5 H s       :     0.771613  s :     0.771613
      pz      :     0.006961  p :     0.058313
      px      :     0.009433
      py      :     0.041919
  6 H s       :     0.785175  s :     0.785175
      pz      :     0.028466  p :     0.058715
      px      :     0.019684
      py      :     0.010565
  7 H s       :     0.785829  s :     0.785829
      pz      :     0.011304  p :     0.058279
      px      :     0.033960
      py      :     0.013014
  8 N s       :     2.871953  s :     2.871953
      pz      :     1.161394  p :     3.598427
      px      :     1.287421
      py      :     1.149612
      dz2     :     0.079615  d :     0.305140
      dxz     :     0.046184
      dyz     :     0.104175
      dx2y2   :     0.037448
      dxy     :     0.037717
      f0      :     0.005943  f :     0.020988
      f+1     :     0.002516
      f-1     :     0.002779
      f+2     :     0.004053
      f-2     :     0.002173
      f+3     :     0.001999
      f-3     :     0.001524
  9 N s       :     2.871953  s :     2.871953
      pz      :     1.161394  p :     3.598427
      px      :     1.287421
      py      :     1.149612
      dz2     :     0.079615  d :     0.305140
      dxz     :     0.046184
      dyz     :     0.104175
      dx2y2   :     0.037448
      dxy     :     0.037717
      f0      :     0.005943  f :     0.020988
      f+1     :     0.002516
      f-1     :     0.002779
      f+2     :     0.004053
      f-2     :     0.002173
      f+3     :     0.001999
      f-3     :     0.001524
 10 H s       :     0.789291  s :     0.789291
      pz      :     0.012724  p :     0.058581
      px      :     0.034099
      py      :     0.011758
 11 H s       :     0.777022  s :     0.777022
      pz      :     0.011403  p :     0.058945
      px      :     0.012588
      py      :     0.034955
 12 H s       :     0.785174  s :     0.785174
      pz      :     0.028466  p :     0.058715
      px      :     0.019684
      py      :     0.010565
 13 C s       :     2.837382  s :     2.837382
      pz      :     0.921779  p :     3.063755
      px      :     1.108334
      py      :     1.033642
      dz2     :     0.058367  d :     0.303707
      dxz     :     0.110651
      dyz     :     0.060529
      dx2y2   :     0.058988
      dxy     :     0.015172
      f0      :     0.008423  f :     0.038178
      f+1     :     0.004291
      f-1     :     0.008853
      f+2     :     0.004432
      f-2     :     0.007566
      f+3     :     0.001971
      f-3     :     0.002642
 14 H s       :     0.805182  s :     0.805182
      pz      :     0.010050  p :     0.060832
      px      :     0.013288
      py      :     0.037493
 15 H s       :     0.804243  s :     0.804243
      pz      :     0.018066  p :     0.060996
      px      :     0.030618
      py      :     0.012312
 16 H s       :     0.802796  s :     0.802796
      pz      :     0.017778  p :     0.061060
      px      :     0.030152
      py      :     0.013129
 17 C s       :     2.837381  s :     2.837381
      pz      :     0.921779  p :     3.063755
      px      :     1.108333
      py      :     1.033642
      dz2     :     0.058367  d :     0.303707
      dxz     :     0.110651
      dyz     :     0.060529
      dx2y2   :     0.058988
      dxy     :     0.015172
      f0      :     0.008423  f :     0.038178
      f+1     :     0.004291
      f-1     :     0.008853
      f+2     :     0.004432
      f-2     :     0.007566
      f+3     :     0.001971
      f-3     :     0.002642
 18 H s       :     0.804243  s :     0.804243
      pz      :     0.018066  p :     0.060996
      px      :     0.030618
      py      :     0.012312
 19 H s       :     0.805182  s :     0.805182
      pz      :     0.010050  p :     0.060832
      px      :     0.013288
      py      :     0.037493
 20 H s       :     0.802796  s :     0.802796
      pz      :     0.017778  p :     0.061060
      px      :     0.030152
      py      :     0.013129


                      *****************************
                      * MAYER POPULATION ANALYSIS *
                      *****************************

  NA   - Mulliken gross atomic population
  ZA   - Total nuclear charge
  QA   - Mulliken gross atomic charge
  VA   - Mayer's total valence
  BVA  - Mayer's bonded valence
  FA   - Mayer's free valence

  ATOM       NA         ZA         QA         VA         BVA        FA
  0 C      6.1966     6.0000    -0.1966     3.7968     3.7968    -0.0000
  1 C      5.8710     6.0000     0.1290     4.0644     4.0644     0.0000
  2 C      6.1966     6.0000    -0.1966     3.7968     3.7968     0.0000
  3 C      6.2466     6.0000    -0.2466     3.8932     3.8932     0.0000
  4 H      0.8244     1.0000     0.1756     0.9593     0.9593     0.0000
  5 H      0.8016     1.0000     0.1984     0.9575     0.9575     0.0000
  6 H      0.8241     1.0000     0.1759     0.9557     0.9557    -0.0000
  7 H      0.8400     1.0000     0.1600     0.9703     0.9703     0.0000
  8 N      7.0830     7.0000    -0.0830     3.2960     3.2960     0.0000
  9 N      7.0830     7.0000    -0.0830     3.2961     3.2961     0.0000
 10 H      0.8244     1.0000     0.1756     0.9593     0.9593     0.0000
 11 H      0.8238     1.0000     0.1762     0.9678     0.9678     0.0000
 12 H      0.8240     1.0000     0.1760     0.9557     0.9557    -0.0000
 13 C      6.2742     6.0000    -0.2742     3.8114     3.8114     0.0000
 14 H      0.8546     1.0000     0.1454     0.9719     0.9719     0.0000
 15 H      0.8253     1.0000     0.1747     0.9542     0.9542    -0.0000
 16 H      0.8262     1.0000     0.1738     0.9508     0.9508     0.0000
 17 C      6.2742     6.0000    -0.2742     3.8114     3.8114    -0.0000
 18 H      0.8253     1.0000     0.1747     0.9542     0.9542    -0.0000
 19 H      0.8546     1.0000     0.1454     0.9719     0.9719    -0.0000
 20 H      0.8262     1.0000     0.1738     0.9508     0.9508    -0.0000

  Mayer bond orders larger than 0.100000
B(  0-C ,  3-C ) :   0.9632 B(  0-C ,  4-H ) :   0.9585 B(  0-C ,  8-N ) :   0.8706 
B(  0-C , 12-H ) :   0.9627 B(  1-C ,  5-H ) :   0.9109 B(  1-C ,  8-N ) :   1.4889 
B(  1-C ,  9-N ) :   1.4889 B(  2-C ,  3-C ) :   0.9632 B(  2-C ,  6-H ) :   0.9627 
B(  2-C ,  9-N ) :   0.8706 B(  2-C , 10-H ) :   0.9585 B(  3-C ,  7-H ) :   0.9774 
B(  3-C , 11-H ) :   0.9693 B(  8-N , 13-C ) :   0.8771 B(  9-N , 17-C ) :   0.8771 
B( 13-C , 14-H ) :   0.9596 B( 13-C , 15-H ) :   0.9615 B( 13-C , 16-H ) :   0.9563 
B( 17-C , 18-H ) :   0.9615 B( 17-C , 19-H ) :   0.9596 B( 17-C , 20-H ) :   0.9563 


-------
TIMINGS
-------

Total SCF time: 0 days 0 hours 2 min 1 sec 

Total time                  ....     121.177 sec
Sum of individual times     ....     120.625 sec  ( 99.5%)

Fock matrix formation       ....     117.962 sec  ( 97.3%)
  Split-RI-J                ....       5.248 sec  (  4.4% of F)
  Chain of spheres X        ....     102.003 sec  ( 86.5% of F)
  XC integration            ....      10.487 sec  (  8.9% of F)
    Basis function eval.    ....       2.509 sec  ( 23.9% of XC)
    Density eval.           ....       2.765 sec  ( 26.4% of XC)
    XC-Functional eval.     ....       0.761 sec  (  7.3% of XC)
    XC-Potential eval.      ....       3.613 sec  ( 34.5% of XC)
Diagonalization             ....       0.230 sec  (  0.2%)
Density matrix formation    ....       0.016 sec  (  0.0%)
Population analysis         ....       0.036 sec  (  0.0%)
Initial guess               ....       0.484 sec  (  0.4%)
Orbital Transformation      ....       0.000 sec  (  0.0%)
Orbital Orthonormalization  ....       0.000 sec  (  0.0%)
DIIS solution               ....       0.131 sec  (  0.1%)
SOSCF solution              ....       0.135 sec  (  0.1%)
Grid generation             ....       1.630 sec  (  1.3%)

Maximum memory used throughout the entire SCF-calculation: 84.8 MB


[...]
     12       0.124972   0.258554   0.250642   0.023491   0.007894  -0.121375
     13      -0.038144  -0.087083  -0.083601  -0.006363  -0.001416   0.038388
     14      -0.013549  -0.038905  -0.038383  -0.003999  -0.001520   0.019261
     15      -0.000227   0.000000  -0.001658  -0.000001  -0.000347   0.000582
     16      -0.007938  -0.000001   0.016838  -0.000007  -0.002224   0.000534
     17       0.000000   0.000319  -0.000000   0.000256  -0.000001   0.000000
     18      -0.099370  -0.334940   0.319844  -0.022576   0.013603  -0.066404
     19      -0.049035  -0.162855   0.154620  -0.009718   0.005278  -0.031607
     20       0.146326   0.527576  -0.503821   0.035147  -0.020913   0.104225
     21       0.822855  -0.000005   0.042331  -0.000121  -0.044466  -0.438694
     22      -0.156186   0.000001  -0.007773   0.000019   0.007064   0.071386
     23       0.000000  -0.003384  -0.000000  -0.000033   0.000000  -0.000000
     24       0.000245   0.000185   0.000233  -0.000415  -0.000301  -0.000020
     25       0.000437   0.000111   0.000217   0.000077   0.000113   0.000546
     26      -0.000034  -0.000034  -0.000084   0.000075  -0.000022  -0.000286
     27       0.000245  -0.000185   0.000233   0.000414  -0.000303  -0.000020
     28       0.000437  -0.000111   0.000217  -0.000077   0.000114   0.000546
     29       0.000034  -0.000034   0.000084   0.000075   0.000022   0.000286
     30       0.124978  -0.258595   0.250613  -0.023443   0.008021  -0.121378
     31      -0.038147   0.087097  -0.083592   0.006354  -0.001450   0.038389
     32       0.013550  -0.038912   0.038378  -0.003990   0.001541  -0.019261
     33      -0.068674   0.000003  -0.035773  -0.000036  -0.013166  -0.105221
     34       0.431291  -0.000022   0.283521   0.000289   0.105285   0.840589
     35      -0.000000  -0.000992  -0.000000   0.000166  -0.000000   0.000000
     36      -0.099365   0.334898   0.319891   0.022655   0.013481  -0.066404
     37      -0.049033   0.162835   0.154643   0.009749   0.005225  -0.031607
     38      -0.146319   0.527509   0.503895   0.035268   0.020723  -0.104225
     39      -0.000136  -0.004413  -0.004032   0.066850   0.066186  -0.006897
     40      -0.000666   0.002085   0.002172  -0.005279  -0.005298   0.000277
     41       0.000685   0.000611   0.000526  -0.000298  -0.000319  -0.000069
     42       0.000337  -0.000820  -0.000878   0.011942   0.011891  -0.001235
     43       0.011127  -0.020051  -0.021578   0.029070   0.029481   0.000429
     44       0.002033  -0.003302  -0.003664   0.006208   0.006261  -0.000156
     45      -0.007875   0.024796   0.023391  -0.403350  -0.399046   0.041973
     46      -0.001408   0.005005   0.004782  -0.104698  -0.103658   0.011072
     47      -0.005311   0.017873   0.016963  -0.266030  -0.263123   0.027346
     48       0.008297   0.029899   0.027114  -0.402155  -0.398042   0.040831
     49      -0.002174  -0.010073  -0.009087   0.137488   0.136165  -0.014249
     50      -0.005509  -0.020198  -0.018287   0.263950   0.261153  -0.026425
     51      -0.000136   0.004413  -0.004031  -0.066484   0.066553  -0.006898
     52      -0.000666  -0.002086   0.002171   0.005249  -0.005326   0.000277
     53      -0.000685   0.000611  -0.000526  -0.000296   0.000320   0.000069
     54      -0.007875  -0.024797   0.023383   0.401147  -0.401261   0.041975
     55      -0.001408  -0.005005   0.004780   0.104126  -0.104234   0.011073
     56       0.005311   0.017874  -0.016957  -0.264579   0.264585  -0.027347
     57       0.000337   0.000820  -0.000878  -0.011876   0.011955  -0.001235
     58       0.011127   0.020054  -0.021574  -0.028898   0.029632   0.000429
     59      -0.002033  -0.003302   0.003663   0.006171  -0.006293   0.000156
     60       0.008297  -0.029900   0.027105   0.399959  -0.400250   0.040833
     61      -0.002174   0.010073  -0.009084  -0.136735   0.136919  -0.014250
     62       0.005509  -0.020199   0.018281   0.262508  -0.262601   0.026426
                 60         61         62    
      0      -0.001414  -0.001230  -0.000025
      1      -0.000132   0.000048  -0.001395
      2      -0.001453  -0.001228  -0.001331
      3      -0.000068   0.000000  -0.000171
      4       0.009301  -0.000003   0.088911
      5       0.000000   0.000052  -0.000000
      6      -0.001413   0.001231  -0.000025
      7      -0.000132  -0.000048  -0.001395
      8       0.001452  -0.001229   0.001331
      9       0.000125  -0.000000   0.000086
     10      -0.000054   0.000000  -0.000141
     11       0.000000   0.000010  -0.000000
     12       0.006024   0.005308  -0.005523
     13      -0.001222  -0.001240   0.001950
     14      -0.001122  -0.001056   0.000554
     15       0.000132  -0.000000   0.002357
     16      -0.101445   0.000035  -0.990420
     17       0.000001   0.002721   0.000000
     18       0.010557  -0.009206   0.006139
     19       0.006339  -0.005434   0.002925
     20      -0.015497   0.013803  -0.010216
     21      -0.000658   0.000001  -0.001407
     22       0.000023  -0.000000   0.000290
     23       0.000000   0.000057   0.000000
     24       0.000054   0.000050  -0.000049
     25      -0.000043  -0.000088  -0.001476
     26      -0.000982  -0.000482  -0.002616
     27       0.000054  -0.000050  -0.000049
     28      -0.000042   0.000088  -0.001476
     29       0.000982  -0.000483   0.002616
     30       0.006021  -0.005312  -0.005524
     31      -0.001221   0.001241   0.001950
     32       0.001122  -0.001057  -0.000554
     33      -0.000208   0.000000   0.000201
     34       0.001777  -0.000002   0.002105
     35      -0.000000   0.000019  -0.000000
     36       0.010563   0.009199   0.006139
     37       0.006342   0.005429   0.002925
     38       0.015506   0.013793   0.010216
     39      -0.005173  -0.005151   0.000377
     40      -0.059011  -0.059295   0.006236
     41      -0.029946  -0.030044   0.002300
     42       0.024655   0.024792  -0.002751
     43       0.601472   0.604787  -0.068276
     44       0.125086   0.125637  -0.012092
     45       0.216245   0.216421  -0.014523
     46       0.044022   0.044121  -0.003955
     47       0.132005   0.132016  -0.007373
     48      -0.179726  -0.180371   0.013073
     49       0.049430   0.049713  -0.004686
     50       0.106846   0.107177  -0.006628
     51      -0.005168   0.005153   0.000377
     52      -0.058970   0.059336   0.006236
     53       0.029925  -0.030064  -0.002300
     54       0.216092  -0.216564  -0.014523
     55       0.043991  -0.044151  -0.003955
     56      -0.131912   0.132105   0.007373
     57       0.024635  -0.024807  -0.002751
     58       0.601056  -0.605199  -0.068276
     59      -0.125000   0.125723   0.012092
     60      -0.179608   0.180501   0.013074
     61       0.049397  -0.049748  -0.004686
     62      -0.106776   0.107254   0.006628


-----------
IR SPECTRUM
-----------

 Mode   freq       eps      Int      T**2         TX        TY        TZ
       cm**-1   L/(mol*cm) km/mol    a.u.
----------------------------------------------------------------------------
  6:    123.35   0.000006    0.03  0.000015  (-0.000000 -0.000000 -0.003936)
  7:    159.93   0.000584    2.95  0.001140  (-0.033722 -0.001603 -0.000000)
  8:    187.65   0.000024    0.12  0.000039  (-0.000001 -0.000000  0.006262)
  9:    212.81   0.000229    1.16  0.000335  (-0.018304 -0.000608 -0.000000)
 10:    274.28   0.000035    0.18  0.000040  (-0.006007 -0.001959  0.000000)
 11:    300.12   0.000000    0.00  0.000000  (-0.000000 -0.000000  0.000070)
 12:    316.63   0.000017    0.09  0.000017  (-0.001384 -0.003915  0.000000)
 13:    421.57   0.000011    0.06  0.000008  ( 0.000000  0.000000  0.002856)
 14:    467.45   0.002376   12.01  0.001586  (-0.039815  0.001092  0.000000)
 15:    471.71   0.000960    4.85  0.000635  ( 0.000000  0.000000  0.025203)
 16:    528.61   0.001143    5.78  0.000675  (-0.025169 -0.006439 -0.000000)
 17:    617.88   0.000084    0.42  0.000042  (-0.003024  0.005759  0.000000)
 18:    804.60   0.000195    0.98  0.000076  (-0.004681 -0.007325  0.000000)
 19:    878.70   0.000564    2.85  0.000200  ( 0.000000  0.000000 -0.014150)
 20:    917.62   0.000011    0.05  0.000004  ( 0.000000 -0.000000  0.001898)
 21:    938.06   0.000173    0.88  0.000058  (-0.006746  0.003491 -0.000000)
 22:   1019.86   0.000588    2.97  0.000180  ( 0.012413 -0.005087 -0.000000)
 23:   1044.71   0.004011   20.27  0.001198  ( 0.005504 -0.034173 -0.000000)
 24:   1068.70   0.000626    3.16  0.000183  ( 0.000000  0.000000 -0.013517)
 25:   1126.03   0.000620    3.13  0.000172  (-0.003021 -0.012759 -0.000000)
 26:   1138.03   0.000854    4.32  0.000234  (-0.014545 -0.004757 -0.000000)
 27:   1141.18   0.000492    2.49  0.000135  (-0.000000  0.000000 -0.011601)
 28:   1155.53   0.000032    0.16  0.000009  (-0.000000  0.000000  0.002949)
 29:   1175.15   0.000314    1.59  0.000083  (-0.009050 -0.001242  0.000000)
 30:   1198.22   0.011330   57.26  0.002951  ( 0.000000  0.000000  0.054322)
 31:   1254.45   0.004158   21.01  0.001034  (-0.000000  0.000000  0.032162)
 32:   1284.33   0.000027    0.14  0.000007  ( 0.000002  0.000005  0.002575)
 33:   1284.88   0.006754   34.13  0.001640  ( 0.014084  0.037975 -0.000000)
 34:   1344.85   0.001123    5.68  0.000261  (-0.009739  0.012878  0.000000)
 35:   1376.48   0.008744   44.19  0.001982  ( 0.000000  0.000000 -0.044523)
 36:   1414.52   0.002363   11.94  0.000521  (-0.000000 -0.000000 -0.022833)
 37:   1428.58   0.003240   16.37  0.000708  (-0.000000 -0.000000  0.026602)
 38:   1432.47   0.002394   12.10  0.000522  (-0.002312  0.022721 -0.000000)
 39:   1476.32   0.008398   42.44  0.001775  (-0.000001 -0.000000  0.042133)
 40:   1482.49   0.001559    7.88  0.000328  ( 0.012470  0.013139 -0.000000)
 41:   1487.86   0.000094    0.48  0.000020  (-0.000008  0.000001  0.004446)
 42:   1488.03   0.007405   37.42  0.001553  ( 0.039251 -0.003516  0.000001)
 43:   1491.78   0.000133    0.67  0.000028  ( 0.002135 -0.004817 -0.000000)
 44:   1503.49   0.003256   16.45  0.000676  ( 0.010370  0.023837  0.000000)
 45:   1509.46   0.000010    0.05  0.000002  ( 0.000000  0.000001  0.001412)
 46:   1519.63   0.000515    2.60  0.000106  ( 0.001024  0.010229  0.000000)
 47:   1523.39   0.000877    4.43  0.000180  ( 0.000000 -0.000000  0.013404)
 48:   1585.17   0.005991   30.28  0.001179  (-0.004737  0.034014 -0.000000)
 49:   1785.21   0.109783  554.80  0.019191  (-0.000000  0.000000  0.138530)
 50:   3084.15   0.000143    0.72  0.000014  (-0.000002  0.000005 -0.003806)
 51:   3084.86   0.001233    6.23  0.000125  (-0.002787  0.010816  0.000005)
 52:   3085.35   0.004691   23.71  0.000474  ( 0.000002 -0.000000 -0.021782)
 53:   3086.50   0.000813    4.11  0.000082  ( 0.007479 -0.005127  0.000007)
 54:   3101.77   0.001182    5.98  0.000119  (-0.010858  0.001035 -0.000000)
 55:   3150.14   0.000423    2.14  0.000042  ( 0.000000 -0.000000 -0.006474)
 56:   3152.04   0.000606    3.06  0.000060  (-0.007640 -0.001275 -0.000000)
 57:   3165.77   0.000003    0.02  0.000000  ( 0.000028 -0.000003  0.000571)
 58:   3165.84   0.001065    5.38  0.000105  ( 0.010193 -0.001031 -0.000002)
 59:   3168.74   0.000366    1.85  0.000036  ( 0.004820 -0.003572  0.000000)
 60:   3191.34   0.000784    3.96  0.000077  (-0.001059 -0.008691 -0.000002)
 61:   3191.42   0.000398    2.01  0.000039  ( 0.000000  0.000003 -0.006239)
 62:   3223.83   0.000044    0.22  0.000004  ( 0.000598 -0.001965  0.000000)

* The epsilon (eps) is given for a Dirac delta lineshape.
** The dipole moment derivative (T) already includes vibrational overlap.

The first frequency considered to be a vibration is 6
The total number of vibrations considered is 57


--------------------------
THERMOCHEMISTRY AT 298.15K
--------------------------

Temperature         ... 298.15 K
Pressure            ... 1.00 atm
Total Mass          ... 113.18 AMU

Throughout the following assumptions are being made:
  (1) The electronic state is orbitally nondegenerate
  (2) There are no thermally accessible electronically excited states
  (3) Hindered rotations indicated by low frequency modes are not
      treated as such but are treated as vibrations and this may
      cause some error
  (4) All equations used are the standard statistical mechanics
      equations for an ideal gas
  (5) All vibrations are strictly harmonic

freq.     123.35  E(vib)   ...       0.43 
freq.     159.93  E(vib)   ...       0.39 
freq.     187.65  E(vib)   ...       0.36 
freq.     212.81  E(vib)   ...       0.34 
freq.     274.28  E(vib)   ...       0.28 
freq.     300.12  E(vib)   ...       0.26 
freq.     316.63  E(vib)   ...       0.25 
freq.     421.57  E(vib)   ...       0.18 
freq.     467.45  E(vib)   ...       0.16 
freq.     471.71  E(vib)   ...       0.15 
freq.     528.61  E(vib)   ...       0.13 
freq.     617.88  E(vib)   ...       0.09 
freq.     804.60  E(vib)   ...       0.05 
freq.     878.70  E(vib)   ...       0.04 
freq.     917.62  E(vib)   ...       0.03 
freq.     938.06  E(vib)   ...       0.03 
freq.    1019.86  E(vib)   ...       0.02 
freq.    1044.71  E(vib)   ...       0.02 
freq.    1068.70  E(vib)   ...       0.02 
freq.    1126.03  E(vib)   ...       0.01 
freq.    1138.03  E(vib)   ...       0.01 
freq.    1141.18  E(vib)   ...       0.01 
freq.    1155.53  E(vib)   ...       0.01 
freq.    1175.15  E(vib)   ...       0.01 
freq.    1198.22  E(vib)   ...       0.01 
freq.    1254.45  E(vib)   ...       0.01 
freq.    1284.33  E(vib)   ...       0.01 
freq.    1284.88  E(vib)   ...       0.01 
freq.    1344.85  E(vib)   ...       0.01 
freq.    1376.48  E(vib)   ...       0.01 
freq.    1414.52  E(vib)   ...       0.00 
freq.    1428.58  E(vib)   ...       0.00 
freq.    1432.47  E(vib)   ...       0.00 
freq.    1476.32  E(vib)   ...       0.00 
freq.    1482.49  E(vib)   ...       0.00 
freq.    1487.86  E(vib)   ...       0.00 
freq.    1488.03  E(vib)   ...       0.00 
freq.    1491.78  E(vib)   ...       0.00 
freq.    1503.49  E(vib)   ...       0.00 
freq.    1509.46  E(vib)   ...       0.00 
freq.    1519.63  E(vib)   ...       0.00 
freq.    1523.39  E(vib)   ...       0.00 
freq.    1585.17  E(vib)   ...       0.00 
freq.    1785.21  E(vib)   ...       0.00 
freq.    3084.15  E(vib)   ...       0.00 
freq.    3084.86  E(vib)   ...       0.00 
freq.    3085.35  E(vib)   ...       0.00 
freq.    3086.50  E(vib)   ...       0.00 
freq.    3101.77  E(vib)   ...       0.00 
freq.    3150.14  E(vib)   ...       0.00 
freq.    3152.04  E(vib)   ...       0.00 
freq.    3165.77  E(vib)   ...       0.00 
freq.    3165.84  E(vib)   ...       0.00 
freq.    3168.74  E(vib)   ...       0.00 
freq.    3191.34  E(vib)   ...       0.00 
freq.    3191.42  E(vib)   ...       0.00 
freq.    3223.83  E(vib)   ...       0.00 

------------
INNER ENERGY
------------

The inner energy is: U= E(el) + E(ZPE) + E(vib) + E(rot) + E(trans)
    E(el)   - is the total energy from the electronic structure calculation
              = E(kin-el) + E(nuc-el) + E(el-el) + E(nuc-nuc)
    E(ZPE)  - the the zero temperature vibrational energy from the frequency calculation
    E(vib)  - the the finite temperature correction to E(ZPE) due to population
              of excited vibrational states
    E(rot)  - is the rotational thermal energy
    E(trans)- is the translational thermal energy

Summary of contributions to the inner energy U:
Electronic energy                ...   -345.79512111 Eh
Zero point energy                ...      0.19640886 Eh     123.25 kcal/mol
Thermal vibrational correction   ...      0.00542134 Eh       3.40 kcal/mol
Thermal rotational correction    ...      0.00141627 Eh       0.89 kcal/mol
Thermal translational correction ...      0.00141627 Eh       0.89 kcal/mol
-----------------------------------------------------------------------
Total thermal energy                   -345.59045837 Eh


Summary of corrections to the electronic energy:
(perhaps to be used in another calculation)
Total thermal correction                  0.00825388 Eh       5.18 kcal/mol
Non-thermal (ZPE) correction              0.19640886 Eh     123.25 kcal/mol
-----------------------------------------------------------------------
Total correction                          0.20466274 Eh     128.43 kcal/mol


--------
ENTHALPY
--------

The enthalpy is H = U + kB*T
                kB is Boltzmann's constant
Total free energy                 ...   -345.59045837 Eh 
Thermal Enthalpy correction       ...      0.00094421 Eh       0.59 kcal/mol
-----------------------------------------------------------------------
Total Enthalpy                    ...   -345.58951416 Eh


Note: Rotational entropy computed according to Herzberg 
Infrared and Raman Spectra, Chapter V,1, Van Nostrand Reinhold, 1945 
Point Group:  Cs, Symmetry Number:   1  
Rotational constants in cm-1:     0.107640     0.059184     0.040242 

Vibrational entropy computed according to the QRRHO of S. Grimme
Chem.Eur.J. 2012 18 9955


-------
ENTROPY
-------

The entropy contributions are T*S = T*(S(el)+S(vib)+S(rot)+S(trans))
     S(el)   - electronic entropy
     S(vib)  - vibrational entropy
     S(rot)  - rotational entropy
     S(trans)- translational entropy
The entropies will be listed as multiplied by the temperature to get
units of energy

Electronic entropy                ...      0.00000000 Eh      0.00 kcal/mol
Vibrational entropy               ...      0.00896860 Eh      5.63 kcal/mol
Rotational entropy                ...      0.01341449 Eh      8.42 kcal/mol
Translational entropy             ...      0.01904664 Eh     11.95 kcal/mol
-----------------------------------------------------------------------
Final entropy term                ...      0.04142973 Eh     26.00 kcal/mol

In case the symmetry of your molecule has not been determined correctly
or in case you have a reason to use a different symmetry number we print 
out the resulting rotational entropy values for sn=1,12 :
 --------------------------------------------------------
|  sn= 1 | S(rot)=       0.01341449 Eh      8.42 kcal/mol|
|  sn= 2 | S(rot)=       0.01276003 Eh      8.01 kcal/mol|
|  sn= 3 | S(rot)=       0.01237720 Eh      7.77 kcal/mol|
|  sn= 4 | S(rot)=       0.01210558 Eh      7.60 kcal/mol|
|  sn= 5 | S(rot)=       0.01189489 Eh      7.46 kcal/mol|
|  sn= 6 | S(rot)=       0.01172275 Eh      7.36 kcal/mol|
|  sn= 7 | S(rot)=       0.01157720 Eh      7.26 kcal/mol|
|  sn= 8 | S(rot)=       0.01145112 Eh      7.19 kcal/mol|
|  sn= 9 | S(rot)=       0.01133991 Eh      7.12 kcal/mol|
|  sn=10 | S(rot)=       0.01124043 Eh      7.05 kcal/mol|
|  sn=11 | S(rot)=       0.01115044 Eh      7.00 kcal/mol|
|  sn=12 | S(rot)=       0.01106829 Eh      6.95 kcal/mol|
 --------------------------------------------------------


-------------------
GIBBS FREE ENERGY
-------------------

The Gibbs free energy is G = H - T*S

Total enthalpy                    ...   -345.58951416 Eh 
Total entropy correction          ...     -0.04142973 Eh    -26.00 kcal/mol
-----------------------------------------------------------------------
Final Gibbs free energy         ...   -345.63094389 Eh

For completeness - the Gibbs free energy minus the electronic energy
G-E(el)                           ...      0.16417722 Eh    103.02 kcal/mol


Timings for individual modules:

Sum of individual times         ...     1283.110 sec (=  21.385 min)
GTO integral calculation        ...        2.575 sec (=   0.043 min)   0.2 %
SCF iterations                  ...      336.338 sec (=   5.606 min)  26.2 %
SCF Gradient evaluation         ...       81.451 sec (=   1.358 min)   6.3 %
Geometry relaxation             ...        0.173 sec (=   0.003 min)   0.0 %
Analytical frequency calculation...      862.572 sec (=  14.376 min)  67.2 %
                             ****ORCA TERMINATED NORMALLY****
TOTAL RUN TIME: 0 days 0 hours 21 minutes 24 seconds 675 msec
