16
Properties=species:S:1:pos:R:3 energy=-8360.907063802084 free_energy=-8360.907063802084 pbc="F F F"
C        0.98814500      -0.09113400      -1.35813800
C       -0.16301400      -0.80856600      -1.46809600
N        1.05197700       0.36951100      -0.06124000
N       -0.77902800      -0.77142200      -0.23632800
C       -0.02533400      -0.05489500       0.59323300
H        1.76428100       0.13346000      -2.08711600
H       -0.59917500      -1.33689800      -2.31351600
C        2.12464500       1.18289000       0.49968500
C       -2.04472700      -1.41468800       0.09812400
H        3.06533300       0.61871600       0.47015000
H        1.87314300       1.42833500       1.53782600
H        2.22247700       2.10649000      -0.08454500
H       -0.25465100       0.15164400       1.63882900
H       -1.93994800      -2.50214400      -0.00482300
H       -2.82696800      -1.04835300      -0.57835000
H       -2.30412800      -1.16400700       1.13333500
