34
	Energy:      70.4311192
N         -1.96504       -0.36529        0.33901
C         -0.97699       -1.34004       -0.03600
N          0.22494       -0.62645       -0.38750
H         -1.10550       -2.44162       -0.07267
C         -0.08517        0.77340       -0.24758
C         -1.35937        0.91056        0.17605
C         -3.35026       -0.64000        0.72719
C          1.41549       -1.36840       -0.82666
C         -3.73822       -2.10793        0.48117
H         -4.02493       -0.02317        0.09441
C         -3.58299       -0.31500        2.20983
C          1.90420       -2.28663        0.30523
C          2.59147       -0.52649       -1.31901
H          1.11178       -2.00591       -1.68668
C          0.79749        1.97579       -0.51448
C         -2.07533        2.22358        0.40545
H         -3.60222       -2.36345       -0.59134
H         -4.80733       -2.27021        0.73682
H         -3.12445       -2.79452        1.10286
H         -3.39422        0.74449        2.44357
H         -2.91861       -0.93637        2.84799
H         -4.63887       -0.52410        2.48529
H          2.76672       -2.89884       -0.03541
H          1.10552       -2.98697        0.62490
H          2.21700       -1.68206        1.18352
H          2.28062        0.10276       -2.17922
H          3.39902       -1.19443       -1.68895
H          3.02650        0.07178       -0.49145
H         -1.44867        3.10336        0.16210
H         -2.36581        2.33627        1.46415
H         -2.97890        2.26684       -0.23681
H          1.81703        1.78248       -0.84870
H          0.88792        2.57210        0.41780
H          0.32928        2.60414       -1.30099
