      -----------------------------------------------------------      
     |                   =====================                   |     
     |                           x T B                           |     
     |                   =====================                   |     
     |                         S. Grimme                         |     
     |          Mulliken Center for Theoretical Chemistry        |     
     |                    University of Bonn                     |     
      -----------------------------------------------------------      

   * xtb version 6.6.1 (8d0f1dd) compiled by 'conda@1efc2f54142f' on 2023-08-01

   xtb is free software: you can redistribute it and/or modify it under
   the terms of the GNU Lesser General Public License as published by
   the Free Software Foundation, either version 3 of the License, or
   (at your option) any later version.
   
   xtb is distributed in the hope that it will be useful,
   but WITHOUT ANY WARRANTY; without even the implied warranty of
   MERCHANTABILITY or FITNESS FOR A PARTICULAR PURPOSE.  See the
   GNU Lesser General Public License for more details.
   
   Cite this work as:
   * C. Bannwarth, E. Caldeweyher, S. Ehlert, A. Hansen, P. Pracht,
     J. Seibert, S. Spicher, S. Grimme, WIREs Comput. Mol. Sci., 2020, 11,
     e01493. DOI: 10.1002/wcms.1493
   
   for GFN2-xTB:
   * C. Bannwarth, S. Ehlert and S. Grimme., J. Chem. Theory Comput., 2019,
     15, 1652-1671. DOI: 10.1021/acs.jctc.8b01176
   for GFN1-xTB:
   * S. Grimme, C. Bannwarth, P. Shushkov, J. Chem. Theory Comput., 2017,
     13, 1989-2009. DOI: 10.1021/acs.jctc.7b00118
   for GFN0-xTB:
   * P. Pracht, E. Caldeweyher, S. Ehlert, S. Grimme, ChemRxiv, 2019, preprint.
     DOI: 10.26434/chemrxiv.8326202.v1
   for GFN-FF:
   * S. Spicher and S. Grimme, Angew. Chem. Int. Ed., 2020, 59, 15665-15673.
     DOI: 10.1002/anie.202004239
   
   for ALPB and GBSA implicit solvation:
   * S. Ehlert, M. Stahn, S. Spicher, S. Grimme, J. Chem. Theory Comput.,
     2021, 17, 4250-4261. DOI: 10.1021/acs.jctc.1c00471
   
   for DFT-D4:
   * E. Caldeweyher, C. Bannwarth and S. Grimme, J. Chem. Phys., 2017,
     147, 034112. DOI: 10.1063/1.4993215
   * E. Caldeweyher, S. Ehlert, A. Hansen, H. Neugebauer, S. Spicher,
     C. Bannwarth and S. Grimme, J. Chem. Phys., 2019, 150, 154122.
     DOI: 10.1063/1.5090222
   * E. Caldeweyher, J.-M. Mewes, S. Ehlert and S. Grimme, Phys. Chem. Chem. Phys.
     2020, 22, 8499-8512. DOI: 10.1039/D0CP00502A
   
   for sTDA-xTB:
   * S. Grimme and C. Bannwarth, J. Chem. Phys., 2016, 145, 054103.
     DOI: 10.1063/1.4959605
   
   in the mass-spec context:
   * V. Asgeirsson, C. Bauer and S. Grimme, Chem. Sci., 2017, 8, 4879.
     DOI: 10.1039/c7sc00601b
   * J. Koopman and S. Grimme, ACS Omega 2019, 4, 12, 15120-15133.
     DOI: 10.1021/acsomega.9b02011
   
   for metadynamics refer to:
   * S. Grimme, J. Chem. Theory Comput., 2019, 155, 2847-2862
     DOI: 10.1021/acs.jctc.9b00143
   
   for SPH calculations refer to:
   * S. Spicher and S. Grimme, J. Chem. Theory Comput., 2021, 17, 1701-1714
     DOI: 10.1021/acs.jctc.0c01306
   
   with help from (in alphabetical order)
   P. Atkinson, C. Bannwarth, F. Bohle, G. Brandenburg, E. Caldeweyher
   M. Checinski, S. Dohm, S. Ehlert, S. Ehrlich, I. Gerasimov, C. Hölzer
   A. Katbashev, J. Koopman, C. Lavigne, S. Lehtola, F. März, M. Müller,
   F. Musil, H. Neugebauer, J. Pisarek, C. Plett, P. Pracht, F. Pultar,
   J. Seibert, P. Shushkov, S. Spicher, M. Stahn, M. Steiner, T. Strunk,
   J. Stückrath, T. Rose, and J. Unsleber
   
 * started run on 2024/02/12 at 14:13:51.840     

           -------------------------------------------------
          |                Calculation Setup                |
           -------------------------------------------------

          program call               : xtb struc.xyz --gfn2 --ceasefiles --opt
          hostname                   : node021
          coordinate file            : struc.xyz
          omp threads                :                     1

   ID    Z sym.   atoms
    1    6 C      1, 2, 5-7, 11-14, 27, 28
    2    7 N      3, 4
    3    1 H      8-10, 15-26, 29-34

           -------------------------------------------------
          |                 G F N 2 - x T B                 |
           -------------------------------------------------

        Reference                      10.1021/acs.jctc.8b01176
      * Hamiltonian:
        H0-scaling (s, p, d)           1.850000    2.230000    2.230000
        zeta-weighting                 0.500000
      * Dispersion:
        s8                             2.700000
        a1                             0.520000
        a2                             5.000000
        s9                             5.000000
      * Repulsion:
        kExp                           1.500000    1.000000
        rExp                           1.000000
      * Coulomb:
        alpha                          2.000000
        third order                    shell-resolved
        anisotropic                    true
        a3                             3.000000
        a5                             4.000000
        cn-shift                       1.200000
        cn-exp                         4.000000
        max-rad                        5.000000


          ...................................................
          :                      SETUP                      :
          :.................................................:
          :  # basis functions                  73          :
          :  # atomic orbitals                  73          :
          :  # shells                           47          :
          :  # electrons                        74          :
          :  max. iterations                   250          :
          :  Hamiltonian                  GFN2-xTB          :
          :  restarted?                      false          :
          :  GBSA solvation                  false          :
          :  PC potential                    false          :
          :  electronic temp.          300.0000000     K    :
          :  accuracy                    1.0000000          :
          :  -> integral cutoff          0.2500000E+02      :
          :  -> integral neglect         0.1000000E-07      :
          :  -> SCF convergence          0.1000000E-05 Eh   :
          :  -> wf. convergence          0.1000000E-03 e    :
          :  Broyden damping             0.4000000          :
          ...................................................

 iter      E             dE          RMSdq      gap      omega  full diag
   1    -40.2421361 -0.402421E+02  0.270E+00    5.57       0.0  T
   2    -40.3462044 -0.104068E+00  0.190E+00    4.64       1.0  T
   3    -40.3533685 -0.716412E-02  0.107E+00    4.87       1.0  T
   4    -40.3534981 -0.129667E-03  0.276E-01    4.72       1.0  T
   5    -40.3543655 -0.867318E-03  0.651E-02    4.76       1.0  T
   6    -40.3543902 -0.247766E-04  0.355E-02    4.76       1.0  T
   7    -40.3543891  0.114380E-05  0.135E-02    4.77       1.3  T
   8    -40.3543936 -0.446326E-05  0.174E-03    4.77       9.9  T
   9    -40.3543936 -0.227796E-07  0.834E-04    4.77      20.6  T
  10    -40.3543936 -0.191720E-08  0.432E-04    4.77      39.7  T

   *** convergence criteria satisfied after 10 iterations ***

         #    Occupation            Energy/Eh            Energy/eV
      -------------------------------------------------------------
         1        2.0000           -0.8778522             -23.8876
       ...           ...                  ...                  ...
        31        2.0000           -0.5878454             -15.9961
        32        2.0000           -0.5829844             -15.8638
        33        2.0000           -0.5778117             -15.7231
        34        2.0000           -0.5736490             -15.6098
        35        2.0000           -0.5719956             -15.5648
        36        2.0000           -0.5701900             -15.5157
        37        2.0000           -0.5698066             -15.5052 (HOMO)
        38                         -0.3945221             -10.7355 (LUMO)
        39                         -0.3577925              -9.7360
        40                         -0.1997544              -5.4356
        41                         -0.1579134              -4.2970
        42                         -0.1016307              -2.7655
       ...                                ...                  ...
        73                          0.4820497              13.1172
      -------------------------------------------------------------
                  HL-Gap            0.1752845 Eh            4.7697 eV
             Fermi-level           -0.4821643 Eh          -13.1204 eV

 SCC (total)                   0 d,  0 h,  0 min,  0.045 sec
 SCC setup                      ...        0 min,  0.000 sec (  0.996%)
 Dispersion                     ...        0 min,  0.000 sec (  0.983%)
 classical contributions        ...        0 min,  0.000 sec (  0.294%)
 integral evaluation            ...        0 min,  0.006 sec ( 12.403%)
 iterations                     ...        0 min,  0.022 sec ( 47.876%)
 molecular gradient             ...        0 min,  0.017 sec ( 36.843%)
 printout                       ...        0 min,  0.000 sec (  0.564%)

         :::::::::::::::::::::::::::::::::::::::::::::::::::::
         ::                     SUMMARY                     ::
         :::::::::::::::::::::::::::::::::::::::::::::::::::::
         :: total energy             -39.742413474459 Eh    ::
         :: gradient norm              0.082140245334 Eh/a0 ::
         :: HOMO-LUMO gap              4.769733281693 eV    ::
         ::.................................................::
         :: SCC energy               -40.354393587837 Eh    ::
         :: -> isotropic ES            0.076391738462 Eh    ::
         :: -> anisotropic ES         -0.005401208584 Eh    ::
         :: -> anisotropic XC          0.026003210794 Eh    ::
         :: -> dispersion             -0.027688207995 Eh    ::
         :: repulsion energy           0.611686478671 Eh    ::
         :: add. restraining           0.000000000000 Eh    ::
         :: total charge               1.000000000000 e     ::
         :::::::::::::::::::::::::::::::::::::::::::::::::::::

      ----------------------------------------------------------- 
     |                   =====================                   |
     |                        A N C O P T                        |
     |                   =====================                   |
     |               Approximate Normal Coordinate               |
     |                Rational Function Optimizer                |
      ----------------------------------------------------------- 

Optimization log is written to '/dev/null'

          ...................................................
          :                      SETUP                      :
          :.................................................:
          :   optimization level             crude          :
          :   max. optcycles                   200          :
          :   ANC micro-cycles                  20          :
          :   degrees of freedom                96          :
          :.................................................:
          :   RF solver                   davidson          :
          :   write xtbopt.log                true          :
          :   linear?                        false          :
          :   energy convergence         0.5000000E-03 Eh   :
          :   grad. convergence          0.1000000E-01 Eh/α :
          :   maxmium RF displ.          1.0000000          :
          :   Hlow (freq-cutoff)         0.5000000E-02      :
          :   Hmax (freq-cutoff)         5.0000000          :
          :   S6 in model hess.         20.0000000          :
          ...................................................

generating ANC from model Hessian ...
Using Lindh-Hessian (1995)
 Shifting diagonal of input Hessian by    4.2686315938996596E-003
 Lowest  eigenvalues of input Hessian
    0.000000    0.000000    0.000000    0.000000    0.000000    0.000000
    0.005000    0.005188    0.006564    0.008631    0.009196    0.009628
    0.010925    0.013826    0.013889    0.013982    0.014073    0.014295
 Highest eigenvalues
    1.348988    1.701617    1.994019    2.010807    2.157566    2.240144


........................................................................
.............................. CYCLE    1 ..............................
........................................................................

 iter      E             dE          RMSdq      gap      omega  full diag
   1    -40.3543936 -0.403544E+02  0.720E-05    4.77       0.0  T
   2    -40.3543936 -0.128537E-10  0.398E-05    4.77     431.3  T
   3    -40.3543936  0.262190E-11  0.176E-05    4.77     976.2  T
     SCC iter.                  ...        0 min,  0.006 sec
     gradient                   ...        0 min,  0.017 sec
 * total energy  :   -39.7424135 Eh     change       -0.3231669E-08 Eh
   gradient norm :     0.0821393 Eh/α   predicted     0.0000000E+00 (-100.00%)
   displ. norm   :     0.5625002 α      lambda       -0.3416532E-01
   maximum displ.:     0.2701641 α      in ANC's #17, #37, #40, ...

........................................................................
.............................. CYCLE    2 ..............................
........................................................................

 iter      E             dE          RMSdq      gap      omega  full diag
   1    -40.3712954 -0.403713E+02  0.437E-01    4.83       0.0  T
   2    -40.3713677 -0.723166E-04  0.255E-01    4.83       1.0  T
   3    -40.3713675  0.235447E-06  0.261E-02    4.83       1.0  T
   4    -40.3713799 -0.124133E-04  0.109E-02    4.83       1.6  T
   5    -40.3713816 -0.169768E-05  0.557E-03    4.83       3.1  T
   6    -40.3713817 -0.123744E-06  0.145E-03    4.83      11.8  T
   7    -40.3713818 -0.378358E-07  0.436E-04    4.83      39.4  T
   8    -40.3713818 -0.909147E-09  0.188E-04    4.83      91.1  T
     SCC iter.                  ...        0 min,  0.012 sec
     gradient                   ...        0 min,  0.017 sec
 * total energy  :   -39.7657426 Eh     change       -0.2332915E-01 Eh
   gradient norm :     0.0334049 Eh/α   predicted    -0.2248819E-01 (  -3.60%)
   displ. norm   :     0.5012260 α      lambda       -0.1006345E-01
   maximum displ.:     0.2988628 α      in ANC's #17, #13, #14, ...

........................................................................
.............................. CYCLE    3 ..............................
........................................................................

 iter      E             dE          RMSdq      gap      omega  full diag
   1    -40.3762257 -0.403762E+02  0.233E-01    4.83       0.0  T
   2    -40.3762378 -0.120663E-04  0.135E-01    4.83       1.0  T
   3    -40.3762316  0.619967E-05  0.196E-02    4.83       1.0  T
   4    -40.3762423 -0.106790E-04  0.510E-03    4.83       3.4  T
   5    -40.3762424 -0.151410E-06  0.237E-03    4.83       7.2  T
   6    -40.3762424 -0.162208E-07  0.505E-04    4.83      34.0  T
   7    -40.3762424 -0.319429E-08  0.225E-04    4.83      76.3  T
     SCC iter.                  ...        0 min,  0.011 sec
     gradient                   ...        0 min,  0.017 sec
 * total energy  :   -39.7724896 Eh     change       -0.6746987E-02 Eh
   gradient norm :     0.0163233 Eh/α   predicted    -0.6295834E-02 (  -6.69%)
   displ. norm   :     0.4222008 α      lambda       -0.3159798E-02
   maximum displ.:     0.2345137 α      in ANC's #17, #13, #14, ...

........................................................................
.............................. CYCLE    4 ..............................
........................................................................

 iter      E             dE          RMSdq      gap      omega  full diag
   1    -40.3787453 -0.403787E+02  0.107E-01    4.82       0.0  T
   2    -40.3787508 -0.544912E-05  0.620E-02    4.82       1.0  T
   3    -40.3787470  0.378582E-05  0.143E-02    4.82       1.2  T
   4    -40.3787522 -0.514125E-05  0.324E-03    4.82       5.3  T
   5    -40.3787523 -0.142410E-06  0.149E-03    4.82      11.5  T
   6    -40.3787523 -0.503049E-08  0.370E-04    4.82      46.3  T
   7    -40.3787523 -0.211259E-08  0.156E-04    4.82     109.6  T
     SCC iter.                  ...        0 min,  0.011 sec
     gradient                   ...        0 min,  0.017 sec
 * total energy  :   -39.7747111 Eh     change       -0.2221454E-02 Eh
   gradient norm :     0.0129447 Eh/α   predicted    -0.1861555E-02 ( -16.20%)
   displ. norm   :     0.3738489 α      lambda       -0.1546518E-02
   maximum displ.:     0.2298463 α      in ANC's #13, #17, #15, ...

........................................................................
.............................. CYCLE    5 ..............................
........................................................................

 iter      E             dE          RMSdq      gap      omega  full diag
   1    -40.3808797 -0.403809E+02  0.788E-02    4.82       0.0  T
   2    -40.3808823 -0.259866E-05  0.466E-02    4.82       1.0  T
   3    -40.3808809  0.136877E-05  0.873E-03    4.82       2.0  T
   4    -40.3808828 -0.189136E-05  0.233E-03    4.82       7.4  T
   5    -40.3808829 -0.844371E-07  0.103E-03    4.82      16.7  T
   6    -40.3808829 -0.305948E-08  0.267E-04    4.82      64.1  T
   7    -40.3808829 -0.848139E-09  0.109E-04    4.82     157.2  T
     SCC iter.                  ...        0 min,  0.011 sec
     gradient                   ...        0 min,  0.017 sec
 * total energy  :   -39.7758356 Eh     change       -0.1124548E-02 Eh
   gradient norm :     0.0124034 Eh/α   predicted    -0.8813493E-03 ( -21.63%)
   displ. norm   :     0.3510516 α      lambda       -0.1079108E-02
   maximum displ.:     0.2434787 α      in ANC's #13, #15, #17, ...

........................................................................
.............................. CYCLE    6 ..............................
........................................................................

 iter      E             dE          RMSdq      gap      omega  full diag
   1    -40.3835852 -0.403836E+02  0.703E-02    4.82       0.0  T
   2    -40.3835865 -0.129719E-05  0.419E-02    4.82       1.0  T
   3    -40.3835863  0.224473E-06  0.463E-03    4.81       3.7  T
   4    -40.3835867 -0.481509E-06  0.168E-03    4.82      10.2  T
   5    -40.3835868 -0.349570E-07  0.791E-04    4.82      21.7  T
   6    -40.3835868 -0.297062E-08  0.180E-04    4.82      95.3  T
     SCC iter.                  ...        0 min,  0.009 sec
     gradient                   ...        0 min,  0.017 sec
 * total energy  :   -39.7766349 Eh     change       -0.7992573E-03 Eh
   gradient norm :     0.0113920 Eh/α   predicted    -0.6060477E-03 ( -24.17%)
   displ. norm   :     0.3383329 α      lambda       -0.8680798E-03
   maximum displ.:     0.2449877 α      in ANC's #13, #15, #6, ...

........................................................................
.............................. CYCLE    7 ..............................
........................................................................

 iter      E             dE          RMSdq      gap      omega  full diag
   1    -40.3861380 -0.403861E+02  0.664E-02    4.82       0.0  T
   2    -40.3861387 -0.692437E-06  0.395E-02    4.82       1.0  T
   3    -40.3861386  0.974914E-07  0.382E-03    4.82       4.5  T
   4    -40.3861389 -0.295483E-06  0.153E-03    4.82      11.2  T
   5    -40.3861389 -0.217166E-07  0.697E-04    4.82      24.6  T
   6    -40.3861389 -0.209509E-08  0.954E-05    4.82     179.8  T
     SCC iter.                  ...        0 min,  0.009 sec
     gradient                   ...        0 min,  0.016 sec
 * total energy  :   -39.7772839 Eh     change       -0.6490093E-03 Eh
   gradient norm :     0.0100890 Eh/α   predicted    -0.4837248E-03 ( -25.47%)
   displ. norm   :     0.3147974 α      lambda       -0.6644446E-03
   maximum displ.:     0.2142484 α      in ANC's #13, #4, #6, ...

........................................................................
.............................. CYCLE    8 ..............................
........................................................................

 iter      E             dE          RMSdq      gap      omega  full diag
   1    -40.3882236 -0.403882E+02  0.637E-02    4.82       0.0  T
   2    -40.3882249 -0.126938E-05  0.376E-02    4.82       1.0  T
   3    -40.3882245  0.350294E-06  0.522E-03    4.82       3.3  T
   4    -40.3882251 -0.589596E-06  0.184E-03    4.82       9.3  T
   5    -40.3882251 -0.449731E-07  0.874E-04    4.82      19.6  T
   6    -40.3882251 -0.172505E-08  0.167E-04    4.82     102.9  T
     SCC iter.                  ...        0 min,  0.009 sec
     gradient                   ...        0 min,  0.016 sec
 * total energy  :   -39.7777502 Eh     change       -0.4663652E-03 Eh
   gradient norm :     0.0067512 Eh/α   predicted    -0.3651449E-03 ( -21.70%)
   displ. norm   :     0.3335194 α      lambda       -0.3843801E-03
   maximum displ.:     0.2492970 α      in ANC's #13, #6, #4, ...

   *** GEOMETRY OPTIMIZATION CONVERGED AFTER 8 ITERATIONS ***

------------------------------------------------------------------------
 total energy gain   :        -0.0353368 Eh      -22.1742 kcal/mol
 total RMSD          :         0.3964426 a0        0.2098 Å
 total power (kW/mol):       -11.5970856 (step) -307.3481 (real)
------------------------------------------------------------------------

 ANCopt (total)                0 d,  0 h,  0 min,  0.302 sec
 optimizer setup                ...        0 min,  0.000 sec (  0.038%)
 model hessian                  ...        0 min,  0.035 sec ( 11.750%)
 ANC generation                 ...        0 min,  0.001 sec (  0.470%)
 coordinate transformation      ...        0 min,  0.000 sec (  0.048%)
 single point calculation       ...        0 min,  0.261 sec ( 86.548%)
 optimization log               ...        0 min,  0.001 sec (  0.469%)
 hessian update                 ...        0 min,  0.000 sec (  0.050%)
 rational function              ...        0 min,  0.001 sec (  0.435%)

================
 final structure:
================
34
 xtb: 6.6.1 (8d0f1dd)
C           -2.20762690425228        0.19010955429439        1.15764099368777
C            2.34107968216730       -0.33803804866708       -0.79108737606822
N           -1.07946986843029        0.20446754411529        0.20856267556826
N            0.91950341174425        0.03051015445076       -0.64680180406346
C           -1.13241031475164        0.68363896372006       -1.06533625000602
C            0.11155775275792        0.56786058165609       -1.60167668166366
C            0.17388265318179       -0.17958237083595        0.43541158528700
H           -2.02532869685321        1.06304660967898       -1.51506167963473
H            0.44594295565717        0.84396374455640       -2.57836015406678
H            0.52817382279720       -0.59664771401477        1.35444480175906
C           -1.87019884417900       -0.70665971295681        2.34599916402902
C            2.93983992692089        0.40342889893980       -1.98267816977816
C            2.40074633852454       -1.84950887047233       -1.03193096942480
C           -2.43538713388394        1.62903355333544        1.62222347806296
H           -1.11160195352531       -0.26264293095173        2.98391899592724
H            2.78481106852643        1.47447813812461       -1.90623739134178
H            1.85518405000209       -2.11559919141274       -1.93305694492739
H           -1.56395992824069        2.01170837223565        2.15294445605005
H           -2.76566728984261       -0.84455698744358        2.94598753341702
H            2.52399689901387        0.04394958533348       -2.91993463539508
H            3.43502879389941       -2.15518681920096       -1.15636892719399
H           -3.28753113521543        1.66231307981128        2.29658870606568
H           -1.53758562059506       -1.69051863740146        2.01757971603413
H            4.01088449904081        0.21791059523893       -2.01243199542895
H            1.98249243869807       -2.40111928489710       -0.19397041274280
H           -2.64437274517187        2.28697736501970        0.78064475759291
C           -3.44297882248191       -0.34601181335371        0.43732922662898
C            3.07771138118704        0.04212708438666        0.49331910289134
H           -4.27193331797813       -0.39285005244068        1.14299386990472
H            2.78749702790356       -0.59016085734885        1.32737847031425
H           -3.74948140871398        0.29962695510863       -0.37983235566603
H            2.88918510590330        1.08123369353825        0.75458315391149
H            4.14518882711070       -0.08027505290263        0.34905091855827
H           -3.26760600112098       -1.34882402404402        0.05169575391170

 Bond Distances (Angstroems)
 ---------------------------
C1-N3=1.4743         C1-C11=1.5265        C1-C14=1.5291        C1-C27=1.5272        C2-N4=1.4756         C2-C12=1.5258        
C2-C13=1.5317        C2-C28=1.5287        N3-C1=1.4743         N3-C5=1.3621         N3-C7=1.3304         N4-C2=1.4756         
N4-C6=1.3614         N4-C7=1.3309         C5-N3=1.3621         C5-C6=1.3596         C5-H8=1.0693         C6-N4=1.3614         
C6-C5=1.3596         C6-H9=1.0686         C7-N3=1.3304         C7-N4=1.3309         C7-H10=1.0696        H8-C5=1.0693         
H9-C6=1.0686         H10-C7=1.0696        C11-C1=1.5265        C11-H15=1.0861       C11-H19=1.0867       C11-H23=1.0893       
C12-C2=1.5258        C12-H16=1.0849       C12-H20=1.0866       C12-H24=1.0874       C13-C2=1.5317        C13-H17=1.0865       
C13-H21=1.0857       C13-H25=1.0869       C14-C1=1.5291        C14-H18=1.0897       C14-H22=1.0872       C14-H26=1.0885       
H15-C11=1.0861       H16-C12=1.0849       H17-C13=1.0865       H18-C14=1.0897       H19-C11=1.0867       H20-C12=1.0866       
H21-C13=1.0857       H22-C14=1.0872       H23-C11=1.0893       H24-C12=1.0874       H25-C13=1.0869       H26-C14=1.0885       
C27-C1=1.5272        C27-H29=1.0896       C27-H31=1.0856       C27-H34=1.0886       C28-C2=1.5287        C28-H30=1.0861       
C28-H32=1.0879       C28-H33=1.0841       H29-C27=1.0896       H30-C28=1.0861       H31-C27=1.0856       H32-C28=1.0879       
H33-C28=1.0841       H34-C27=1.0886       
 C  H  Rav=1.0845 sigma=0.0064  Rmin=1.0686  Rmax=1.0897    21
 C  C  Rav=1.5041 sigma=0.0590  Rmin=1.3596  Rmax=1.5317     7
 N  C  Rav=1.3891 sigma=0.0620  Rmin=1.3304  Rmax=1.4756     6

 selected bond angles (degree)
 --------------------
C11-C1-N3=109.74               C14-C1-N3=107.48               C14-C1-C11=110.44              C27-C1-N3=108.59               
C27-C1-C11=109.86              C27-C1-C14=110.68              C12-C2-N4=109.45               C13-C2-N4=107.42               
C13-C2-C12=109.96              C28-C2-N4=108.66               C28-C2-C12=110.26              C28-C2-C13=111.02              
C5-N3-C1=125.15                C7-N3-C1=127.47                C7-N3-C5=107.32                C6-N4-C2=126.99                
C7-N4-C2=125.44                C7-N4-C6=107.47                C6-C5-N3=107.66                H8-C5-N3=123.41                
H8-C5-C6=128.93                C5-C6-N4=107.45                H9-C6-N4=123.87                H9-C6-C5=128.67                
N4-C7-N3=110.10                H10-C7-N3=124.83               H10-C7-N4=125.08               

 selected dihedral angles (degree)
 ---------------------------------
C5-N3-C1-C11=166.69           C5-N3-C1-C14=286.82           C5-N3-C1-C27= 46.59           C7-N3-C1-C11=343.43           
C7-N3-C1-C14=103.56           C7-N3-C1-C27=223.33           C6-N4-C2-C12= 20.14           C6-N4-C2-C13=260.77           
C6-N4-C2-C28=140.59           C7-N4-C2-C12=196.00           C7-N4-C2-C13= 76.64           C7-N4-C2-C28=316.45           
C6-C5-N3-C1=177.83            C6-C5-N3-C7=  0.54            H8-C5-N3-C1=357.31            H8-C5-N3-C7=180.02            
C5-C6-N4-C2=176.87            C5-C6-N4-C7=  0.40            H9-C6-N4-C2=356.16            H9-C6-N4-C7=179.69            
N4-C6-C5-N3=359.42            N4-C6-C5-H8=179.98            H9-C6-C5-N3=180.17            H9-C6-C5-H8=  0.74            
N4-C7-N3-C1=182.49            N4-C7-N3-C5=359.70            H10-C7-N3-C1=  2.52           H10-C7-N3-C5=179.73           
N3-C7-N4-C2=183.40            N3-C7-N4-C6=359.94            H10-C7-N4-C2=  3.37           H10-C7-N4-C6=179.91           
           -------------------------------------------------
          |                Final Singlepoint                |
           -------------------------------------------------

          ...................................................
          :                      SETUP                      :
          :.................................................:
          :  # basis functions                  73          :
          :  # atomic orbitals                  73          :
          :  # shells                           47          :
          :  # electrons                        74          :
          :  max. iterations                   250          :
          :  Hamiltonian                  GFN2-xTB          :
          :  restarted?                      false          :
          :  GBSA solvation                  false          :
          :  PC potential                    false          :
          :  electronic temp.          300.0000000     K    :
          :  accuracy                    1.0000000          :
          :  -> integral cutoff          0.2500000E+02      :
          :  -> integral neglect         0.1000000E-07      :
          :  -> SCF convergence          0.1000000E-05 Eh   :
          :  -> wf. convergence          0.1000000E-03 e    :
          :  Broyden damping             0.4000000          :
          ...................................................

 iter      E             dE          RMSdq      gap      omega  full diag
   1    -40.3882251 -0.403882E+02  0.460E-05    4.82       0.0  T
   2    -40.3882251 -0.185238E-10  0.253E-05    4.82     678.8  T
   3    -40.3882251 -0.689937E-11  0.143E-05    4.82    1197.6  T

   *** convergence criteria satisfied after 3 iterations ***

         #    Occupation            Energy/Eh            Energy/eV
      -------------------------------------------------------------
         1        2.0000           -0.8780286             -23.8924
       ...           ...                  ...                  ...
        31        2.0000           -0.5896248             -16.0445
        32        2.0000           -0.5892384             -16.0340
        33        2.0000           -0.5814254             -15.8214
        34        2.0000           -0.5785014             -15.7418
        35        2.0000           -0.5780382             -15.7292
        36        2.0000           -0.5731345             -15.5958
        37        2.0000           -0.5701791             -15.5154 (HOMO)
        38                         -0.3929431             -10.6925 (LUMO)
        39                         -0.3562344              -9.6936
        40                         -0.1969647              -5.3597
        41                         -0.1477669              -4.0209
        42                         -0.0735415              -2.0012
       ...                                ...                  ...
        73                          0.4751785              12.9303
      -------------------------------------------------------------
                  HL-Gap            0.1772360 Eh            4.8228 eV
             Fermi-level           -0.4815611 Eh          -13.1039 eV

 SCC (total)                   0 d,  0 h,  0 min,  0.027 sec
 SCC setup                      ...        0 min,  0.000 sec (  0.913%)
 Dispersion                     ...        0 min,  0.000 sec (  0.961%)
 classical contributions        ...        0 min,  0.000 sec (  0.418%)
 integral evaluation            ...        0 min,  0.005 sec ( 19.413%)
 iterations                     ...        0 min,  0.005 sec ( 18.025%)
 molecular gradient             ...        0 min,  0.016 sec ( 59.648%)
 printout                       ...        0 min,  0.000 sec (  0.568%)

         :::::::::::::::::::::::::::::::::::::::::::::::::::::
         ::                     SUMMARY                     ::
         :::::::::::::::::::::::::::::::::::::::::::::::::::::
         :: total energy             -39.777750247822 Eh    ::
         :: gradient norm              0.006751237639 Eh/a0 ::
         :: HOMO-LUMO gap              4.822837343769 eV    ::
         ::.................................................::
         :: SCC energy               -40.388225136801 Eh    ::
         :: -> isotropic ES            0.076409660095 Eh    ::
         :: -> anisotropic ES         -0.005969884569 Eh    ::
         :: -> anisotropic XC          0.025708840724 Eh    ::
         :: -> dispersion             -0.027867613112 Eh    ::
         :: repulsion energy           0.610201989182 Eh    ::
         :: add. restraining           0.000000000000 Eh    ::
         :: total charge               1.000000000000 e     ::
         :::::::::::::::::::::::::::::::::::::::::::::::::::::

           -------------------------------------------------
          |                Property Printout                |
           -------------------------------------------------

    * Orbital Energies and Occupations

         #    Occupation            Energy/Eh            Energy/eV
      -------------------------------------------------------------
         1        2.0000           -0.8780286             -23.8924
       ...           ...                  ...                  ...
        25        2.0000           -0.6012848             -16.3618
        26        2.0000           -0.6001518             -16.3310
        27        2.0000           -0.5985430             -16.2872
        28        2.0000           -0.5967213             -16.2376
        29        2.0000           -0.5937897             -16.1578
        30        2.0000           -0.5911277             -16.0854
        31        2.0000           -0.5896248             -16.0445
        32        2.0000           -0.5892384             -16.0340
        33        2.0000           -0.5814254             -15.8214
        34        2.0000           -0.5785014             -15.7418
        35        2.0000           -0.5780382             -15.7292
        36        2.0000           -0.5731345             -15.5958
        37        2.0000           -0.5701791             -15.5154 (HOMO)
        38                         -0.3929431             -10.6925 (LUMO)
        39                         -0.3562344              -9.6936
        40                         -0.1969647              -5.3597
        41                         -0.1477669              -4.0209
        42                         -0.0735415              -2.0012
        43                         -0.0590193              -1.6060
        44                         -0.0584618              -1.5908
        45                         -0.0549355              -1.4949
        46                         -0.0437604              -1.1908
        47                         -0.0388881              -1.0582
        48                         -0.0302882              -0.8242
       ...                                ...                  ...
        73                          0.4751785              12.9303
      -------------------------------------------------------------
                  HL-Gap            0.1772360 Eh            4.8228 eV
             Fermi-level           -0.4815611 Eh          -13.1039 eV

     #   Z          covCN         q      C6AA      α(0)
     1   6 C        3.836     0.076    19.298     6.250
     2   6 C        3.836     0.075    19.308     6.251
     3   7 N        2.867     0.047    20.413     6.710
     4   7 N        2.870     0.047    20.425     6.712
     5   6 C        3.083    -0.006    28.080     8.687
     6   6 C        3.077    -0.007    28.111     8.693
     7   6 C        3.115     0.052    26.687     8.462
     8   1 H        0.927     0.099     1.793     2.094
     9   1 H        0.927     0.104     1.752     2.070
    10   1 H        0.927     0.109     1.709     2.044
    11   6 C        3.759    -0.133    23.097     6.851
    12   6 C        3.760    -0.131    23.065     6.847
    13   6 C        3.760    -0.128    22.996     6.836
    14   6 C        3.760    -0.127    22.986     6.835
    15   1 H        0.925     0.058     2.220     2.330
    16   1 H        0.925     0.062     2.179     2.308
    17   1 H        0.925     0.059     2.205     2.322
    18   1 H        0.925     0.056     2.243     2.342
    19   1 H        0.925     0.082     1.959     2.189
    20   1 H        0.925     0.062     2.175     2.307
    21   1 H        0.925     0.081     1.969     2.194
    22   1 H        0.925     0.080     1.975     2.198
    23   1 H        0.925     0.056     2.247     2.344
    24   1 H        0.925     0.079     1.990     2.206
    25   1 H        0.925     0.054     2.271     2.357
    26   1 H        0.925     0.060     2.204     2.321
    27   6 C        3.760    -0.129    23.029     6.841
    28   6 C        3.759    -0.131    23.065     6.847
    29   1 H        0.925     0.078     1.997     2.210
    30   1 H        0.925     0.056     2.251     2.346
    31   1 H        0.925     0.061     2.183     2.310
    32   1 H        0.925     0.058     2.219     2.329
    33   1 H        0.925     0.081     1.969     2.194
    34   1 H        0.925     0.060     2.198     2.319

 Mol. C6AA /au·bohr⁶  :       8558.801641
 Mol. C8AA /au·bohr⁸  :     188321.738700
 Mol. α(0) /au        :        140.158166


molecular dipole:
                 x           y           z       tot (Debye)
 q only:       -0.042       0.066      -0.094
   full:       -0.042       0.061      -0.083       0.284
molecular quadrupole (traceless):
                xx          xy          yy          xz          yz          zz
 q only:       14.246      -3.911     -11.640      -9.306      -1.283      -2.606
  q+dip:       13.786      -4.269     -11.916      -8.724      -1.876      -1.871
   full:       13.120      -3.836     -10.932      -8.476      -1.380      -2.188

           -------------------------------------------------
          |                Geometry Summary                 |
           -------------------------------------------------

      molecular mass/u    :      181.2982571
   center of mass at/Å    :       -0.0087918       0.0162387      -0.0127782
  moments of inertia/u·Å² :        0.3014585E+03   0.1125511E+04   0.1204608E+04
rotational constants/cm⁻¹ :        0.5592024E-01   0.1497776E-01   0.1399429E-01

 * 34 selected distances

     #   Z          #   Z                                           value/Å
     1   6 C        3   7 N                                       1.4743455
     2   6 C        4   7 N                                       1.4756441
     3   7 N        5   6 C                                       1.3620671
     4   7 N        6   6 C                                       1.3613626
     5   6 C        6   6 C                                       1.3596038
     3   7 N        7   6 C                                       1.3303562
     4   7 N        7   6 C                                       1.3308927
     5   6 C        8   1 H                                       1.0693487
     6   6 C        9   1 H                                       1.0686240 (min)
     7   6 C       10   1 H                                       1.0696205
     1   6 C       11   6 C                                       1.5265151
     2   6 C       12   6 C                                       1.5258362
     2   6 C       13   6 C                                       1.5317017 (max)
     1   6 C       14   6 C                                       1.5291221
    11   6 C       15   1 H                                       1.0860765
    12   6 C       16   1 H                                       1.0849073
    13   6 C       17   1 H                                       1.0864946
    14   6 C       18   1 H                                       1.0897203
    11   6 C       19   1 H                                       1.0866764
    12   6 C       20   1 H                                       1.0865545
    13   6 C       21   1 H                                       1.0856630
    14   6 C       22   1 H                                       1.0872100
    11   6 C       23   1 H                                       1.0892518
    12   6 C       24   1 H                                       1.0874001
    13   6 C       25   1 H                                       1.0869170
    14   6 C       26   1 H                                       1.0884944
     1   6 C       27   6 C                                       1.5272099
     2   6 C       28   6 C                                       1.5286766
    27   6 C       29   1 H                                       1.0896431
    28   6 C       30   1 H                                       1.0861251
    27   6 C       31   1 H                                       1.0856088
    28   6 C       32   1 H                                       1.0879080
    28   6 C       33   1 H                                       1.0841143
    27   6 C       34   1 H                                       1.0886236

 * 3 distinct bonds (by element types)

   Z      Z             #   av. dist./Å        max./Å        min./Å
   1 H    6 C          21     1.0845230     1.0897203     1.0686240
   6 C    6 C           7     1.5040951     1.5317017     1.3596038
   6 C    7 N           6     1.3891114     1.4756441     1.3303562


optimized geometry written to: xtbopt.xyz


           -------------------------------------------------
          | TOTAL ENERGY              -39.777750247822 Eh   |
          | GRADIENT NORM               0.006751237639 Eh/α |
          | HOMO-LUMO GAP               4.822837343769 eV   |
           -------------------------------------------------

------------------------------------------------------------------------
 * finished run on 2024/02/12 at 14:13:52.240     
------------------------------------------------------------------------
 total:
 * wall-time:     0 d,  0 h,  0 min,  0.400 sec
 *  cpu-time:     0 d,  0 h,  0 min,  0.395 sec
 * ratio c/w:     0.987 speedup
 SCF:
 * wall-time:     0 d,  0 h,  0 min,  0.045 sec
 *  cpu-time:     0 d,  0 h,  0 min,  0.044 sec
 * ratio c/w:     0.966 speedup
 ANC optimizer:
 * wall-time:     0 d,  0 h,  0 min,  0.331 sec
 *  cpu-time:     0 d,  0 h,  0 min,  0.328 sec
 * ratio c/w:     0.991 speedup

