
                                 *****************
                                 * O   R   C   A *
                                 *****************

                                            #,                                       
                                            ###                                      
                                            ####                                     
                                            #####                                    
                                            ######                                   
                                           ########,                                 
                                     ,,################,,,,,                         
                               ,,#################################,,                 
                          ,,##########################################,,             
                       ,#########################################, ''#####,          
                    ,#############################################,,   '####,        
                  ,##################################################,,,,####,       
                ,###########''''           ''''###############################       
              ,#####''   ,,,,##########,,,,          '''####'''          '####       
            ,##' ,,,,###########################,,,                        '##       
           ' ,,###''''                  '''############,,,                           
         ,,##''                                '''############,,,,        ,,,,,,###''
      ,#''                                            '''#######################'''  
     '                                                          ''''####''''         
             ,#######,   #######,   ,#######,      ##                                
            ,#'     '#,  ##    ##  ,#'     '#,    #''#        ######   ,####,        
            ##       ##  ##   ,#'  ##            #'  '#       #        #'  '#        
            ##       ##  #######   ##           ,######,      #####,   #    #        
            '#,     ,#'  ##    ##  '#,     ,#' ,#      #,         ##   #,  ,#        
             '#######'   ##     ##  '#######'  #'      '#     #####' # '####'        



                  #######################################################
                  #                        -***-                        #
                  #          Department of theory and spectroscopy      #
                  #    Directorship and core code : Frank Neese         #
                  #        Max Planck Institute fuer Kohlenforschung    #
                  #                Kaiser Wilhelm Platz 1               #
                  #                 D-45470 Muelheim/Ruhr               #
                  #                      Germany                        #
                  #                                                     #
                  #                  All rights reserved                #
                  #                        -***-                        #
                  #######################################################


                         Program Version 5.0.4 -  RELEASE  -


 With contributions from (in alphabetic order):
   Daniel Aravena         : Magnetic Suceptibility
   Michael Atanasov       : Ab Initio Ligand Field Theory (pilot matlab implementation)
   Alexander A. Auer      : GIAO ZORA, VPT2 properties, NMR spectrum
   Ute Becker             : Parallelization
   Giovanni Bistoni       : ED, misc. LED, open-shell LED, HFLD
   Martin Brehm           : Molecular dynamics
   Dmytro Bykov           : SCF Hessian
   Vijay G. Chilkuri      : MRCI spin determinant printing, contributions to CSF-ICE
   Dipayan Datta          : RHF DLPNO-CCSD density
   Achintya Kumar Dutta   : EOM-CC, STEOM-CC
   Dmitry Ganyushin       : Spin-Orbit,Spin-Spin,Magnetic field MRCI
   Miquel Garcia          : C-PCM and meta-GGA Hessian, CC/C-PCM, Gaussian charge scheme
   Yang Guo               : DLPNO-NEVPT2, F12-NEVPT2, CIM, IAO-localization
   Andreas Hansen         : Spin unrestricted coupled pair/coupled cluster methods
   Benjamin Helmich-Paris : MC-RPA, TRAH-SCF, COSX integrals
   Lee Huntington         : MR-EOM, pCC
   Robert Izsak           : Overlap fitted RIJCOSX, COSX-SCS-MP3, EOM
   Marcus Kettner         : VPT2
   Christian Kollmar      : KDIIS, OOCD, Brueckner-CCSD(T), CCSD density, CASPT2, CASPT2-K
   Simone Kossmann        : Meta GGA functionals, TD-DFT gradient, OOMP2, MP2 Hessian
   Martin Krupicka        : Initial AUTO-CI
   Lucas Lang             : DCDCAS
   Marvin Lechner         : AUTO-CI (C++ implementation), FIC-MRCC
   Dagmar Lenk            : GEPOL surface, SMD
   Dimitrios Liakos       : Extrapolation schemes; Compound Job, initial MDCI parallelization
   Dimitrios Manganas     : Further ROCIS development; embedding schemes
   Dimitrios Pantazis     : SARC Basis sets
   Anastasios Papadopoulos: AUTO-CI, single reference methods and gradients
   Taras Petrenko         : DFT Hessian,TD-DFT gradient, ASA, ECA, R-Raman, ABS, FL, XAS/XES, NRVS
   Peter Pinski           : DLPNO-MP2, DLPNO-MP2 Gradient
   Christoph Reimann      : Effective Core Potentials
   Marius Retegan         : Local ZFS, SOC
   Christoph Riplinger    : Optimizer, TS searches, QM/MM, DLPNO-CCSD(T), (RO)-DLPNO pert. Triples
   Tobias Risthaus        : Range-separated hybrids, TD-DFT gradient, RPA, STAB
   Michael Roemelt        : Original ROCIS implementation
   Masaaki Saitow         : Open-shell DLPNO-CCSD energy and density
   Barbara Sandhoefer     : DKH picture change effects
   Avijit Sen             : IP-ROCIS
   Kantharuban Sivalingam : CASSCF convergence, NEVPT2, FIC-MRCI
   Bernardo de Souza      : ESD, SOC TD-DFT
   Georgi Stoychev        : AutoAux, RI-MP2 NMR, DLPNO-MP2 response
   Willem Van den Heuvel  : Paramagnetic NMR
   Boris Wezisla          : Elementary symmetry handling
   Frank Wennmohs         : Technical directorship


 We gratefully acknowledge several colleagues who have allowed us to
 interface, adapt or use parts of their codes:
   Stefan Grimme, W. Hujo, H. Kruse, P. Pracht,  : VdW corrections, initial TS optimization,
                  C. Bannwarth, S. Ehlert          DFT functionals, gCP, sTDA/sTD-DF
   Ed Valeev, F. Pavosevic, A. Kumar             : LibInt (2-el integral package), F12 methods
   Garnet Chan, S. Sharma, J. Yang, R. Olivares  : DMRG
   Ulf Ekstrom                                   : XCFun DFT Library
   Mihaly Kallay                                 : mrcc  (arbitrary order and MRCC methods)
   Jiri Pittner, Ondrej Demel                    : Mk-CCSD
   Frank Weinhold                                : gennbo (NPA and NBO analysis)
   Christopher J. Cramer and Donald G. Truhlar   : smd solvation model
   Lars Goerigk                                  : TD-DFT with DH, B97 family of functionals
   V. Asgeirsson, H. Jonsson                     : NEB implementation
   FAccTs GmbH                                   : IRC, NEB, NEB-TS, DLPNO-Multilevel, CI-OPT
                                                   MM, QMMM, 2- and 3-layer-ONIOM, Crystal-QMMM,
                                                   LR-CPCM, SF, NACMEs, symmetry and pop. for TD-DFT,
                                                   nearIR, NL-DFT gradient (VV10), updates on ESD,
                                                   ML-optimized integration grids
   S Lehtola, MJT Oliveira, MAL Marques          : LibXC Library
   Liviu Ungur et al                             : ANISO software


 Your calculation uses the libint2 library for the computation of 2-el integrals
 For citations please refer to: http://libint.valeyev.net

 Your ORCA version has been built with support for libXC version: 5.1.0
 For citations please refer to: https://tddft.org/programs/libxc/

 This ORCA versions uses:
   CBLAS   interface :  Fast vector & matrix operations
   LAPACKE interface :  Fast linear algebra routines
   SCALAPACK package :  Parallel linear algebra routines
   Shared memory     :  Shared parallel matrices
   BLAS/LAPACK       :  OpenBLAS 0.3.15  USE64BITINT DYNAMIC_ARCH NO_AFFINITY SkylakeX SINGLE_THREADED
        Core in use  :  SkylakeX
   Copyright (c) 2011-2014, The OpenBLAS Project




***************************************
The coordinates will be read from file: 6_prot.xyz
***************************************


Your calculation utilizes the atom-pairwise dispersion correction
based on tight binding partial charges (D4)
Cite in your paper:
E.Caldeweyher, C.Bannwarth, S.Grimme, J.Chem.Phys., (2017), 147, 034112.
E.Caldeweyher, S.Ehlert, A.Hansen, H.Neugebauer, S.Grimme, J.Chem.Phys., (2018), in progress.
   

XCFun DFT library Copyright 2009-2010 Ulf Ekstrom and contributors.
See http://admol.org/xcfun for more information.
This is free software; see the source code for copying conditions.
There is ABSOLUTELY NO WARRANTY; not even for MERCHANTABILITY or FITNESS FOR A PARTICULAR PURPOSE.
For details see the documentation.
Scientific users of this library should cite U. Ekstrom, L. Visscher, R. Bast, A. J. Thorvaldsen and K. Ruud;
J.Chem.Theor.Comp. 2010, DOI: 10.1021/ct100117s
XCFun Version 0.99 

================================================================================

----- Orbital basis set information -----
Your calculation utilizes the basis: def2-TZVP
   F. Weigend and R. Ahlrichs, Phys. Chem. Chem. Phys. 7, 3297 (2005).

----- AuxJ basis set information -----
Your calculation utilizes the auxiliary basis: def2/J
   F. Weigend, Phys. Chem. Chem. Phys. 8, 1057 (2006).

================================================================================
                                        WARNINGS
                       Please study these warnings very carefully!
================================================================================


WARNING: Geometry Optimization
  ===> : Switching off AutoStart
         For restart on a previous wavefunction, please use MOREAD

INFO   : the flag for use of the SHARK integral package has been found!

================================================================================
                                       INPUT FILE
================================================================================
NAME = 6_prot.inp
|  1> # ORCA 5.0.4 - /users/bwb16179/postgrad/2024_06/pKa_Reviewer_Comments/Gas_Z=1/6_prot.inp # write input file
|  2> # Basic Mode
|  3> #
|  4> ! Opt Freq wB97X Def2-TZVP D4 SlowConv TightSCF Defgrid2 Def2/J RIJCOSX 
|  5> 
|  6> %PAL NPROCS 4 END
|  7> 
|  8> %maxcore 4500
|  9> 
| 10> %geom
| 11> Maxiter 150
| 12> END
| 13> 
| 14> * xyzfile 1 1 6_prot.xyz
| 15> 
| 16>                          ****END OF INPUT****
================================================================================

                       *****************************
                       * Geometry Optimization Run *
                       *****************************

Geometry optimization settings:
Update method            Update   .... BFGS
Choice of coordinates    CoordSys .... Z-matrix Internals
Initial Hessian          InHess   .... Almoef's Model

Convergence Tolerances:
Energy Change            TolE     ....  5.0000e-06 Eh
Max. Gradient            TolMAXG  ....  3.0000e-04 Eh/bohr
RMS Gradient             TolRMSG  ....  1.0000e-04 Eh/bohr
Max. Displacement        TolMAXD  ....  4.0000e-03 bohr
RMS Displacement         TolRMSD  ....  2.0000e-03 bohr
Strict Convergence                ....  False
------------------------------------------------------------------------------
                        ORCA OPTIMIZATION COORDINATE SETUP
------------------------------------------------------------------------------

The optimization will be done in new redundant internal coordinates
Making redundant internal coordinates   ...  (new redundants) done
Evaluating the initial hessian          ...  (Almloef) done
Evaluating the coordinates              ...  done
Calculating the B-matrix                .... done
Calculating the G-matrix                .... done
Diagonalizing the G-matrix              .... done
Small eigenvalue found = 1.047e-02
Small eigenvalue found = 1.863e-02
Small eigenvalue found = 2.678e-02
The first mode is                       ....   81
The number of degrees of freedom        ....   96

    -----------------------------------------------------------------
                    Redundant Internal Coordinates


    -----------------------------------------------------------------
         Definition                    Initial Value    Approx d2E/dq
    -----------------------------------------------------------------
      1. B(C   1,C   0)                  1.3715         0.668701   
      2. B(N   3,C   2)                  1.3303         0.696937   
      3. B(N   3,C   0)                  1.3871         0.565626   
      4. B(N   4,C   1)                  1.3871         0.565564   
      5. B(N   4,C   2)                  1.3303         0.696799   
      6. B(H   5,C   2)                  1.0877         0.363183   
      7. B(C   6,C   0)                  1.4910         0.431179   
      8. B(C   7,C   1)                  1.4908         0.431372   
      9. B(H   8,C   6)                  1.1009         0.345989   
     10. B(H   9,C   7)                  1.1003         0.346720   
     11. B(H  10,C   7)                  1.1009         0.345957   
     12. B(H  11,C   6)                  1.1003         0.346719   
     13. B(H  12,C   6)                  1.0970         0.351002   
     14. B(H  13,C   7)                  1.0970         0.350976   
     15. B(C  18,N   3)                  1.4821         0.398987   
     16. B(C  18,C  17)                  1.5244         0.381275   
     17. B(C  18,C  14)                  1.5215         0.385384   
     18. B(C  19,C  16)                  1.5216         0.385308   
     19. B(C  19,C  15)                  1.5243         0.381518   
     20. B(C  19,N   4)                  1.4821         0.399007   
     21. B(H  20,C  14)                  1.1000         0.347141   
     22. B(H  21,C  15)                  1.1000         0.347167   
     23. B(H  22,C  16)                  1.1000         0.347136   
     24. B(H  23,C  17)                  1.1000         0.347153   
     25. B(H  24,C  14)                  1.1016         0.345127   
     26. B(H  25,C  15)                  1.1014         0.345312   
     27. B(H  26,C  16)                  1.1016         0.345103   
     28. B(H  27,C  17)                  1.1014         0.345296   
     29. B(H  28,C  14)                  1.0988         0.348641   
     30. B(H  29,C  15)                  1.0993         0.348001   
     31. B(H  30,C  16)                  1.0988         0.348617   
     32. B(H  31,C  17)                  1.0993         0.347986   
     33. B(H  32,C  18)                  1.1002         0.346872   
     34. B(H  33,C  19)                  1.1002         0.346822   
     35. A(N   3,C   0,C   6)          122.9104         0.397738   
     36. A(C   1,C   0,C   6)          130.3900         0.412321   
     37. A(C   1,C   0,N   3)          106.6983         0.429977   
     38. A(N   4,C   1,C   7)          122.9284         0.397762   
     39. A(C   0,C   1,C   7)          130.3626         0.412354   
     40. A(C   0,C   1,N   4)          106.7068         0.429968   
     41. A(N   3,C   2,H   5)          125.3834         0.358279   
     42. A(N   4,C   2,H   5)          125.4055         0.358267   
     43. A(N   3,C   2,N   4)          109.2111         0.446851   
     44. A(C   2,N   3,C  18)          125.6171         0.404424   
     45. A(C   0,N   3,C  18)          125.5542         0.389867   
     46. A(C   0,N   3,C   2)          108.6953         0.430351   
     47. A(C   2,N   4,C  19)          125.6497         0.404414   
     48. A(C   1,N   4,C   2)          108.6867         0.430328   
     49. A(C   1,N   4,C  19)          125.5499         0.389863   
     50. A(C   0,C   6,H   8)          111.5839         0.329893   
     51. A(H   8,C   6,H  12)          107.5307         0.287866   
     52. A(H  11,C   6,H  12)          107.6256         0.287961   
     53. A(C   0,C   6,H  12)          109.9634         0.330678   
     54. A(H   8,C   6,H  11)          108.2533         0.287314   
     55. A(C   0,C   6,H  11)          111.7105         0.330008   
     56. A(H   9,C   7,H  10)          108.2408         0.287310   
     57. A(C   1,C   7,H  10)          111.5901         0.329912   
     58. A(C   1,C   7,H   9)          111.7360         0.330032   
     59. A(C   1,C   7,H  13)          109.9221         0.330699   
     60. A(H   9,C   7,H  13)          107.6196         0.287958   
     61. A(H  10,C   7,H  13)          107.5590         0.287859   
     62. A(H  24,C  14,H  28)          106.9136         0.287451   
     63. A(H  20,C  14,H  28)          107.8544         0.287712   
     64. A(C  18,C  14,H  28)          109.0795         0.324254   
     65. A(H  20,C  14,H  24)          109.0851         0.287257   
     66. A(C  18,C  14,H  24)          112.0148         0.323715   
     67. A(C  18,C  14,H  20)          111.6958         0.324024   
     68. A(H  21,C  15,H  29)          107.9175         0.287633   
     69. A(C  19,C  15,H  29)          109.8187         0.323620   
     70. A(H  25,C  15,H  29)          107.9875         0.287392   
     71. A(H  21,C  15,H  25)          108.3770         0.287284   
     72. A(C  19,C  15,H  25)          110.7991         0.323209   
     73. A(C  19,C  15,H  21)          111.8171         0.323493   
     74. A(H  26,C  16,H  30)          106.8948         0.287444   
     75. A(H  22,C  16,H  30)          107.8468         0.287709   
     76. A(C  19,C  16,H  30)          109.0517         0.324240   
     77. A(H  22,C  16,H  26)          109.1079         0.287253   
     78. A(C  19,C  16,H  26)          112.0029         0.323701   
     79. A(C  19,C  16,H  22)          111.7363         0.324013   
     80. A(H  27,C  17,H  31)          107.9843         0.287388   
     81. A(H  23,C  17,H  31)          107.9251         0.287629   
     82. A(C  18,C  17,H  31)          109.8338         0.323584   
     83. A(H  23,C  17,H  27)          108.3823         0.287281   
     84. A(C  18,C  17,H  27)          110.7987         0.323172   
     85. A(C  18,C  17,H  23)          111.7934         0.323457   
     86. A(C  17,C  18,H  32)          109.3868         0.323414   
     87. A(C  14,C  18,H  32)          108.4592         0.323983   
     88. A(N   3,C  18,H  32)          104.6366         0.323887   
     89. A(C  14,C  18,C  17)          113.0762         0.366570   
     90. A(N   3,C  18,C  17)          109.9452         0.366456   
     91. A(N   3,C  18,C  14)          110.9728         0.367130   
     92. A(C  16,C  19,H  33)          108.4465         0.323965   
     93. A(C  15,C  19,H  33)          109.4102         0.323440   
     94. A(N   4,C  19,C  15)          110.0139         0.366499   
     95. A(N   4,C  19,H  33)          104.6074         0.323882   
     96. A(C  15,C  19,C  16)          113.0368         0.366597   
     97. A(N   4,C  19,C  16)          110.9623         0.367120   
     98. D(C   7,C   1,C   0,N   3)   -179.9004         0.031264   
     99. D(N   4,C   1,C   0,N   3)     -0.4376         0.031264   
    100. D(C   7,C   1,C   0,C   6)      0.5120         0.031264   
    101. D(N   4,C   1,C   0,C   6)    179.9748         0.031264   
    102. D(C   0,N   3,C   2,H   5)    179.8346         0.040159   
    103. D(C  18,N   3,C   0,C   6)     -4.0455         0.025581   
    104. D(C   0,N   3,C   2,N   4)     -0.1062         0.040159   
    105. D(C   2,N   3,C   0,C   6)    179.9699         0.025581   
    106. D(C  18,N   3,C   2,N   4)   -176.0876         0.040159   
    107. D(C   2,N   3,C   0,C   1)      0.3441         0.025581   
    108. D(C  18,N   3,C   0,C   1)    176.3286         0.025581   
    109. D(C  18,N   3,C   2,H   5)      3.8532         0.040159   
    110. D(C  19,N   4,C   1,C   0)    176.6781         0.025575   
    111. D(C   2,N   4,C   1,C   7)    179.8973         0.025575   
    112. D(C   1,N   4,C   2,N   3)     -0.1737         0.040142   
    113. D(C  19,N   4,C   2,N   3)   -176.4623         0.040142   
    114. D(C  19,N   4,C   2,H   5)      3.5970         0.040142   
    115. D(C   2,N   4,C   1,C   0)      0.3849         0.025575   
    116. D(C   1,N   4,C   2,H   5)    179.8855         0.040142   
    117. D(C  19,N   4,C   1,C   7)     -3.8095         0.025575   
    118. D(H  11,C   6,C   0,N   3)     58.9689         0.013729   
    119. D(H  11,C   6,C   0,C   1)   -121.5017         0.013729   
    120. D(H   8,C   6,C   0,N   3)    -62.3680         0.013729   
    121. D(H  12,C   6,C   0,C   1)     -2.0703         0.013729   
    122. D(H   8,C   6,C   0,C   1)    117.1614         0.013729   
    123. D(H  12,C   6,C   0,N   3)    178.4003         0.013729   
    124. D(H  13,C   7,C   1,C   0)     -2.5019         0.013741   
    125. D(H  10,C   7,C   1,N   4)    -62.6450         0.013741   
    126. D(H  10,C   7,C   1,C   0)    116.7420         0.013741   
    127. D(H   9,C   7,C   1,N   4)     58.6982         0.013741   
    128. D(H  13,C   7,C   1,N   4)    178.1111         0.013741   
    129. D(H   9,C   7,C   1,C   0)   -121.9148         0.013741   
    130. D(H  32,C  18,C  17,H  31)     61.3063         0.011582   
    131. D(H  32,C  18,C  17,H  23)    -58.4679         0.011582   
    132. D(C  14,C  18,C  17,H  31)    -59.6764         0.011582   
    133. D(C  14,C  18,C  17,H  27)     59.5400         0.011582   
    134. D(C  14,C  18,C  17,H  23)   -179.4506         0.011582   
    135. D(N   3,C  18,C  17,H  31)    175.6788         0.011582   
    136. D(N   3,C  18,C  17,H  27)    -65.1048         0.011582   
    137. D(N   3,C  18,C  17,H  23)     55.9046         0.011582   
    138. D(H  32,C  18,C  14,H  24)   -176.0374         0.011820   
    139. D(H  32,C  18,C  14,H  20)     61.2486         0.011820   
    140. D(C  17,C  18,C  14,H  28)     63.6271         0.011820   
    141. D(C  17,C  18,C  14,H  24)    -54.5306         0.011820   
    142. D(C  17,C  18,C  14,H  20)   -177.2445         0.011820   
    143. D(H  32,C  18,C  14,H  28)    -57.8798         0.011820   
    144. D(N   3,C  18,C  14,H  28)   -172.2887         0.011820   
    145. D(N   3,C  18,C  14,H  24)     69.5536         0.011820   
    146. D(N   3,C  18,C  14,H  20)    -53.1603         0.011820   
    147. D(C  17,C  18,N   3,C   2)     87.8420         0.013593   
    148. D(C  17,C  18,N   3,C   0)    -87.4778         0.013593   
    149. D(C  14,C  18,N   3,C   2)    -38.0070         0.013593   
    150. D(H  32,C  18,N   3,C   2)   -154.7876         0.013593   
    151. D(H  32,C  18,C  17,H  27)   -179.4773         0.011582   
    152. D(C  14,C  18,N   3,C   0)    146.6732         0.013593   
    153. D(H  32,C  18,N   3,C   0)     29.8926         0.013593   
    154. D(H  33,C  19,N   4,C   2)   -154.2213         0.013594   
    155. D(H  33,C  19,N   4,C   1)     30.1010         0.013594   
    156. D(C  16,C  19,N   4,C   2)    -37.4771         0.013594   
    157. D(C  16,C  19,N   4,C   1)    146.8452         0.013594   
    158. D(C  15,C  19,N   4,C   2)     88.3637         0.013594   
    159. D(N   4,C  19,C  15,H  21)     55.9473         0.011596   
    160. D(C  15,C  19,N   4,C   1)    -87.3140         0.013594   
    161. D(H  33,C  19,C  16,H  30)    -57.8239         0.011816   
    162. D(H  33,C  19,C  16,H  22)     61.3021         0.011816   
    163. D(C  15,C  19,C  16,H  30)     63.6780         0.011816   
    164. D(C  15,C  19,C  16,H  26)    -54.4312         0.011816   
    165. D(N   4,C  19,C  16,H  30)   -172.1849         0.011816   
    166. D(N   4,C  19,C  16,H  26)     69.7058         0.011816   
    167. D(N   4,C  19,C  16,H  22)    -53.0589         0.011816   
    168. D(H  33,C  19,C  15,H  29)     61.3287         0.011596   
    169. D(H  33,C  19,C  15,H  25)   -179.4602         0.011596   
    170. D(H  33,C  19,C  15,H  21)    -58.4412         0.011596   
    171. D(C  15,C  19,C  16,H  22)   -177.1960         0.011816   
    172. D(C  16,C  19,C  15,H  29)    -59.6281         0.011596   
    173. D(C  16,C  19,C  15,H  25)     59.5829         0.011596   
    174. D(C  16,C  19,C  15,H  21)   -179.3980         0.011596   
    175. D(H  33,C  19,C  16,H  26)   -175.9331         0.011816   
    176. D(N   4,C  19,C  15,H  29)    175.7171         0.011596   
    177. D(N   4,C  19,C  15,H  25)    -65.0718         0.011596   
    -----------------------------------------------------------------

Number of atoms                         .... 34
Number of degrees of freedom            .... 177

         *************************************************************
         *                GEOMETRY OPTIMIZATION CYCLE   1            *
         *************************************************************
---------------------------------
CARTESIAN COORDINATES (ANGSTROEM)
---------------------------------
  C     -0.061795    0.650332   -1.285436
  C      0.047032   -0.716674   -1.263037
  C     -0.006075    0.001239    0.824550
  N     -0.097371    1.069027    0.036467
  N      0.084837   -1.091866    0.071835
  H     -0.004906    0.019364    1.912078
  C     -0.143226    1.594297   -2.436640
  C      0.128989   -1.697188   -2.383075
  H     -1.100234    2.138320   -2.447352
  H     -0.682417   -2.438834   -2.335569
  H      1.088989   -2.236065   -2.380286
  H      0.672562    2.332371   -2.416288
  H     -0.067086    1.041001   -3.380780
  H      0.045505   -1.174772   -3.344059
  C     -0.943328    2.615610    1.773801
  C     -1.286808   -3.032466    0.719089
  C      0.936068   -2.575190    1.860812
  C      1.286556    3.018804    0.623884
  C     -0.132933    2.478478    0.493370
  C      0.128553   -2.485474    0.574312
  H     -1.946000    2.175463    1.669547
  H     -1.848607   -2.967661   -0.224355
  H      1.935516   -2.130277    1.746301
  H      1.849834    2.918097   -0.315533
  H     -0.435253    2.154235    2.635444
  H     -1.842518   -2.479622    1.492823
  H      0.420861   -2.091824    2.706032
  H      1.835926    2.487420    1.416958
  H     -1.066260    3.681971    2.008598
  H     -1.249050   -4.089593    1.018294
  H      1.066929   -3.632678    2.129147
  H      1.256803    4.085542    0.887851
  H     -0.656642    3.017962   -0.309811
  H      0.658980   -3.046530   -0.209501

----------------------------
CARTESIAN COORDINATES (A.U.)
----------------------------
  NO LB      ZA    FRAG     MASS         X           Y           Z
   0 C     6.0000    0    12.011   -0.116776    1.228949   -2.429122
   1 C     6.0000    0    12.011    0.088878   -1.354318   -2.386794
   2 C     6.0000    0    12.011   -0.011480    0.002341    1.558174
   3 N     7.0000    0    14.007   -0.184005    2.020168    0.068913
   4 N     7.0000    0    14.007    0.160319   -2.063328    0.135748
   5 H     1.0000    0     1.008   -0.009271    0.036593    3.613304
   6 C     6.0000    0    12.011   -0.270658    3.012785   -4.604582
   7 C     6.0000    0    12.011    0.243754   -3.207221   -4.503359
   8 H     1.0000    0     1.008   -2.079141    4.040839   -4.624825
   9 H     1.0000    0     1.008   -1.289581   -4.608728   -4.413586
  10 H     1.0000    0     1.008    2.057891   -4.225550   -4.498089
  11 H     1.0000    0     1.008    1.270958    4.407542   -4.566123
  12 H     1.0000    0     1.008   -0.126774    1.967207   -6.388748
  13 H     1.0000    0     1.008    0.085992   -2.219997   -6.319356
  14 C     6.0000    0    12.011   -1.782632    4.942787    3.351998
  15 C     6.0000    0    12.011   -2.431715   -5.730530    1.358881
  16 C     6.0000    0    12.011    1.768912   -4.866404    3.516425
  17 C     6.0000    0    12.011    2.431238    5.704713    1.178970
  18 C     6.0000    0    12.011   -0.251207    4.683645    0.932334
  19 C     6.0000    0    12.011    0.242930   -4.696865    1.085292
  20 H     1.0000    0     1.008   -3.677407    4.111029    3.154987
  21 H     1.0000    0     1.008   -3.493361   -5.608067   -0.423970
  22 H     1.0000    0     1.008    3.657595   -4.025640    3.300031
  23 H     1.0000    0     1.008    3.495680    5.514404   -0.596271
  24 H     1.0000    0     1.008   -0.822509    4.070914    4.980267
  25 H     1.0000    0     1.008   -3.481854   -4.685806    2.821027
  26 H     1.0000    0     1.008    0.795312   -3.952974    5.113659
  27 H     1.0000    0     1.008    3.469397    4.700543    2.677663
  28 H     1.0000    0     1.008   -2.014939    6.957917    3.795700
  29 H     1.0000    0     1.008   -2.360362   -7.728211    1.924297
  30 H     1.0000    0     1.008    2.016204   -6.864767    4.023505
  31 H     1.0000    0     1.008    2.375013    7.720555    1.677795
  32 H     1.0000    0     1.008   -1.240874    5.703122   -0.585458
  33 H     1.0000    0     1.008    1.245292   -5.757107   -0.395900

--------------------------------
INTERNAL COORDINATES (ANGSTROEM)
--------------------------------
 C      0   0   0     0.000000000000     0.00000000     0.00000000
 C      1   0   0     1.371513920879     0.00000000     0.00000000
 C      2   1   0     2.208220756987    71.91005781     0.00000000
 N      3   2   1     1.330255985684    72.69538044     0.21606765
 N      3   2   1     1.330309514359    36.51584255   180.38784466
 H      3   2   1     1.087679655491   161.92118519   180.08722394
 C      1   2   3     1.490963305585   130.38999660   180.20587905
 C      2   1   3     1.490841968650   130.36256503   180.30610140
 H      7   1   2     1.100881502950   111.58387384   117.16141715
 H      8   2   1     1.100306914542   111.73604790   238.08520502
 H      8   2   1     1.100906989555   111.59010779   116.74201285
 H      7   1   2     1.100307908871   111.71051828   238.49830642
 H      7   1   2     1.096965862193   109.96344459   357.92974138
 H      8   2   1     1.096986008830   109.92207452   357.49813425
 C      4   3   2     2.475053867958    96.26842660   162.97503549
 C      5   3   2     2.462981142141   117.43005374   224.62263185
 C      5   3   2     2.474930910322    96.14130101   163.14279557
 C      4   3   2     2.462101342948   117.11289270   224.60398594
 C      4   3   2     1.482085398570   125.61707805   183.80420461
 C      5   3   2     1.482072023165   125.64969817   183.71142188
 H     15   4   3     1.099977007809    89.71314156   281.72140587
 H     16   5   3     1.099956538033    90.72289207   116.51301901
 H     17   5   3     1.099980295912    89.70437142   282.24098379
 H     18   4   3     1.099967410891    90.66325890   116.13443811
 H     15   4   3     1.101560600103    97.45184215    30.93596559
 H     16   5   3     1.101414724430    94.02027013     8.03395828
 H     17   5   3     1.101579679917    97.51425816    31.47990676
 H     18   4   3     1.101427583562    94.01917595     7.65475176
 H     15   4   3     1.098802844078   142.62237106   161.82033741
 H     16   5   3     1.099302866692   144.10337684   239.34512709
 H     17   5   3     1.098821706962   142.58677388   162.39338114
 H     18   4   3     1.099315140777   144.14712994   238.92220862
 H     19   4   3     1.100188084692   104.63657475   205.21235479
 H     20   5   3     1.100227002229   104.60740843   205.77867665

---------------------------
INTERNAL COORDINATES (A.U.)
---------------------------
 C      0   0   0     0.000000000000     0.00000000     0.00000000
 C      1   0   0     2.591785699323     0.00000000     0.00000000
 C      2   1   0     4.172932473945    71.91005781     0.00000000
 N      3   2   1     2.513819500953    72.69538044     0.21606765
 N      3   2   1     2.513920655488    36.51584255   180.38784466
 H      3   2   1     2.055416670317   161.92118519   180.08722394
 C      1   2   3     2.817512323282   130.38999660   180.20587905
 C      2   1   3     2.817283029705   130.36256503   180.30610140
 H      7   1   2     2.080364546475   111.58387384   117.16141715
 H      8   2   1     2.079278731743   111.73604790   238.08520502
 H      8   2   1     2.080412709178   111.59010779   116.74201285
 H      7   1   2     2.079280610754   111.71051828   238.49830642
 H      7   1   2     2.072965057805   109.96344459   357.92974138
 H      8   2   1     2.073003129431   109.92207452   357.49813425
 C      4   3   2     4.677173977143    96.26842660   162.97503549
 C      5   3   2     4.654359831659   117.43005374   224.62263185
 C      5   3   2     4.676941620885    96.14130101   163.14279557
 C      4   3   2     4.652697252132   117.11289270   224.60398594
 C      4   3   2     2.800735510381   125.61707805   183.80420461
 C      5   3   2     2.800710234529   125.64969817   183.71142188
 H     15   4   3     2.078655298370    89.71314156   281.72140587
 H     16   5   3     2.078616616099    90.72289207   116.51301901
 H     17   5   3     2.078661511983    89.70437142   282.24098379
 H     18   4   3     2.078637162822    90.66325890   116.13443811
 H     15   4   3     2.081647854112    97.45184215    30.93596559
 H     16   5   3     2.081372189042    94.02027013     8.03395828
 H     17   5   3     2.081683909735    97.51425816    31.47990676
 H     18   4   3     2.081396489280    94.01917595     7.65475176
 H     15   4   3     2.076436450481   142.62237106   161.82033741
 H     16   5   3     2.077381356283   144.10337684   239.34512709
 H     17   5   3     2.076472096165   142.58677388   162.39338114
 H     18   4   3     2.077404550942   144.14712994   238.92220862
 H     19   4   3     2.079054175871   104.63657475   205.21235479
 H     20   5   3     2.079127719358   104.60740843   205.77867665

---------------------
BASIS SET INFORMATION
---------------------
There are 3 groups of distinct atoms

 Group   1 Type C   : 11s6p2d1f contracted to 5s3p2d1f pattern {62111/411/11/1}
 Group   2 Type N   : 11s6p2d1f contracted to 5s3p2d1f pattern {62111/411/11/1}
 Group   3 Type H   : 5s1p contracted to 3s1p pattern {311/1}

Atom   0C    basis set group =>   1
Atom   1C    basis set group =>   1
Atom   2C    basis set group =>   1
Atom   3N    basis set group =>   2
Atom   4N    basis set group =>   2
Atom   5H    basis set group =>   3
Atom   6C    basis set group =>   1
Atom   7C    basis set group =>   1
Atom   8H    basis set group =>   3
Atom   9H    basis set group =>   3
Atom  10H    basis set group =>   3
Atom  11H    basis set group =>   3
Atom  12H    basis set group =>   3
Atom  13H    basis set group =>   3
Atom  14C    basis set group =>   1
Atom  15C    basis set group =>   1
Atom  16C    basis set group =>   1
Atom  17C    basis set group =>   1
Atom  18C    basis set group =>   1
Atom  19C    basis set group =>   1
Atom  20H    basis set group =>   3
Atom  21H    basis set group =>   3
Atom  22H    basis set group =>   3
Atom  23H    basis set group =>   3
Atom  24H    basis set group =>   3
Atom  25H    basis set group =>   3
Atom  26H    basis set group =>   3
Atom  27H    basis set group =>   3
Atom  28H    basis set group =>   3
Atom  29H    basis set group =>   3
Atom  30H    basis set group =>   3
Atom  31H    basis set group =>   3
Atom  32H    basis set group =>   3
Atom  33H    basis set group =>   3
---------------------------------
AUXILIARY/J BASIS SET INFORMATION
---------------------------------
There are 3 groups of distinct atoms

 Group   1 Type C   : 12s5p4d2f1g contracted to 6s4p3d1f1g pattern {711111/2111/211/2/1}
 Group   2 Type N   : 12s5p4d2f1g contracted to 6s4p3d1f1g pattern {711111/2111/211/2/1}
 Group   3 Type H   : 5s2p1d contracted to 3s1p1d pattern {311/2/1}

Atom   0C    basis set group =>   1
Atom   1C    basis set group =>   1
Atom   2C    basis set group =>   1
Atom   3N    basis set group =>   2
Atom   4N    basis set group =>   2
Atom   5H    basis set group =>   3
Atom   6C    basis set group =>   1
Atom   7C    basis set group =>   1
Atom   8H    basis set group =>   3
Atom   9H    basis set group =>   3
Atom  10H    basis set group =>   3
Atom  11H    basis set group =>   3
Atom  12H    basis set group =>   3
Atom  13H    basis set group =>   3
Atom  14C    basis set group =>   1
Atom  15C    basis set group =>   1
Atom  16C    basis set group =>   1
Atom  17C    basis set group =>   1
Atom  18C    basis set group =>   1
Atom  19C    basis set group =>   1
Atom  20H    basis set group =>   3
Atom  21H    basis set group =>   3
Atom  22H    basis set group =>   3
Atom  23H    basis set group =>   3
Atom  24H    basis set group =>   3
Atom  25H    basis set group =>   3
Atom  26H    basis set group =>   3
Atom  27H    basis set group =>   3
Atom  28H    basis set group =>   3
Atom  29H    basis set group =>   3
Atom  30H    basis set group =>   3
Atom  31H    basis set group =>   3
Atom  32H    basis set group =>   3
Atom  33H    basis set group =>   3


           ************************************************************
           *        Program running with 4 parallel MPI-processes     *
           *              working on a common directory               *
           ************************************************************
------------------------------------------------------------------------------
                           ORCA GTO INTEGRAL CALCULATION
                           -- RI-GTO INTEGRALS CHOSEN --
------------------------------------------------------------------------------
------------------------------------------------------------------------------
                   ___                                                        
                  /   \      - P O W E R E D   B Y -                         
                 /     \                                                     
                 |  |  |   _    _      __       _____    __    __             
                 |  |  |  | |  | |    /  \     |  _  \  |  |  /  |          
                  \  \/   | |  | |   /    \    | | | |  |  | /  /          
                 / \  \   | |__| |  /  /\  \   | |_| |  |  |/  /          
                |  |  |   |  __  | /  /__\  \  |    /   |      \           
                |  |  |   | |  | | |   __   |  |    \   |  |\   \          
                \     /   | |  | | |  |  |  |  | |\  \  |  | \   \       
                 \___/    |_|  |_| |__|  |__|  |_| \__\ |__|  \__/        
                                                                              
                      - O R C A' S   B I G   F R I E N D -                    
                                      &                                       
                       - I N T E G R A L  F E E D E R -                       
                                                                              
 v1 FN, 2020, v2 2021                                                         
------------------------------------------------------------------------------


Reading SHARK input file 6_prot.SHARKINP.tmp ... ok
----------------------
SHARK INTEGRAL PACKAGE
----------------------

Number of atoms                             ...     34
Number of basis functions                   ...    529
Number of shells                            ...    227
Maximum angular momentum                    ...      3
Integral batch strategy                     ... SHARK/LIBINT Hybrid
RI-J (if used) integral strategy            ... SPLIT-RIJ (Revised 2003 algorithm where possible)
Printlevel                                  ...      1
Contraction scheme used                     ... SEGMENTED contraction
Coulomb Range Separation                    ... NOT USED
Exchange Range Separation                   ... Long Range
   Mu parameter                             ...  0.300000
   Scaling (regular/separated)              ...  0.157706  0.842294
Finite Nucleus Model                        ... NOT USED
Auxiliary Coulomb fitting basis             ... AVAILABLE
   # of basis functions in Aux-J            ...    868
   # of shells in Aux-J                     ...    300
   Maximum angular momentum in Aux-J        ...      4
Auxiliary J/K fitting basis                 ... NOT available
Auxiliary Correlation fitting basis         ... NOT available
Auxiliary 'external' fitting basis          ... NOT available
Integral threshold                          ...     2.500000e-11
Primitive cut-off                           ...     2.500000e-12
Primitive pair pre-selection threshold      ...     2.500000e-12

Calculating pre-screening integrals         ... done (  0.1 sec) Dimension = 227
Organizing shell pair data                  ... done (  0.3 sec)
Shell pair information
Total number of shell pairs                 ...     25878
Shell pairs after pre-screening             ...     21426
Total number of primitive shell pairs       ...     75040
Primitive shell pairs kept                  ...     44089
          la=0 lb=0:   6644 shell pairs
          la=1 lb=0:   6348 shell pairs
          la=1 lb=1:   1552 shell pairs
          la=2 lb=0:   2812 shell pairs
          la=2 lb=1:   1353 shell pairs
          la=2 lb=2:    324 shell pairs
          la=3 lb=0:   1354 shell pairs
          la=3 lb=1:    660 shell pairs
          la=3 lb=2:    300 shell pairs
          la=3 lb=3:     79 shell pairs

Calculating one electron integrals          ... done (  0.0 sec)
Calculating RI/J V-Matrix + Cholesky decomp.... done (  0.0 sec)
Calculating Nuclear repulsion               ... done (  0.0 sec) ENN=    870.821870801169 Eh

SHARK setup successfully completed in   0.7 seconds

Maximum memory used throughout the entire GTOINT-calculation: 32.8 MB


           ************************************************************
           *        Program running with 4 parallel MPI-processes     *
           *              working on a common directory               *
           ************************************************************
-------------------------------------------------------------------------------
                                 ORCA SCF
-------------------------------------------------------------------------------

------------
SCF SETTINGS
------------
Hamiltonian:
 Density Functional     Method          .... DFT(GTOs)
 Exchange Functional    Exchange        .... WB97X
 Correlation Functional Correlation     .... WB97X
 Gradients option       PostSCFGGA      .... off
 Hybrid DFT is turned on
   Fraction HF Exchange ScalHFX         ....  0.157706
   Scaling of DF-GGA-X  ScalDFX         ....  0.000000
   Scaling of DF-GGA-C  ScalDFC         ....  1.000000
   Scaling of DF-LDA-C  ScalLDAC        ....  1.000000
   Perturbative correction              ....  0.000000
   Density functional embedding theory  .... OFF
 Long-range corrected/Screened/Range-Separated Hybrid DFT is turned on
   Amount of maximum screened exact exchange              ....  0.842294
   Range separation parameter mu (erf(mu*r12)/r12)        ....  0.300000
 RI-approximation to the Coulomb term is turned on
   Number of AuxJ basis functions       .... 868
   RIJ-COSX (HFX calculated with COS-X)).... on


General Settings:
 Integral files         IntName         .... 6_prot
 Hartree-Fock type      HFTyp           .... RHF
 Total Charge           Charge          ....    1
 Multiplicity           Mult            ....    1
 Number of Electrons    NEL             ....  100
 Basis Dimension        Dim             ....  529
 Nuclear Repulsion      ENuc            ....    870.8218708012 Eh

Convergence Acceleration:
 DIIS                   CNVDIIS         .... on
   Start iteration      DIISMaxIt       ....     0
   Startup error        DIISStart       ....  0.200000
   # of expansion vecs  DIISMaxEq       ....     5
   Bias factor          DIISBfac        ....   1.050
   Max. coefficient     DIISMaxC        ....  10.000
 Trust-Rad. Augm. Hess. CNVTRAH         .... auto
   Auto Start mean grad. ratio tolernc. ....  1.125000
   Auto Start start iteration           ....    20
   Auto Start num. interpolation iter.  ....    10
   Max. Number of Micro iterations      ....    16
   Max. Number of Macro iterations      .... Maxiter - #DIIS iter
   Number of Davidson start vectors     ....     2
   Converg. threshold I  (grad. norm)   ....   1.000e-05
   Converg. threshold II (energy diff.) ....   1.000e-08
   Grad. Scal. Fac. for Micro threshold ....   0.100
   Minimum threshold for Micro iter.    ....   0.010
   NR start threshold (gradient norm)   ....   0.001
   Initial trust radius                 ....   0.400
   Minimum AH scaling param. (alpha)    ....   1.000
   Maximum AH scaling param. (alpha)    .... 1000.000
   Orbital update algorithm             .... Taylor
   White noise on init. David. guess    .... on
   Maximum white noise                  ....   0.010
   Quad. conv. algorithm                .... NR
 SOSCF                  CNVSOSCF        .... on
   Start iteration      SOSCFMaxIt      ....   150
   Startup grad/error   SOSCFStart      ....  0.001000
 Level Shifting         CNVShift        .... on
   Level shift para.    LevelShift      ....    0.2500
   Turn off err/grad.   ShiftErr        ....    0.0000
 Zerner damping         CNVZerner       .... off
 Static damping         CNVDamp         .... on
   Fraction old density DampFac         ....    0.8500
   Max. Damping (<1)    DampMax         ....    0.9800
   Min. Damping (>=0)   DampMin         ....    0.0000
   Turn off err/grad.   DampErr         ....    0.0300
 Fernandez-Rico         CNVRico         .... off

SCF Procedure:
 Maximum # iterations   MaxIter         ....   125
 SCF integral mode      SCFMode         .... Direct
   Integral package                     .... SHARK and LIBINT hybrid scheme
 Reset frequency        DirectResetFreq ....    20
 Integral Threshold     Thresh          ....  2.500e-11 Eh
 Primitive CutOff       TCut            ....  2.500e-12 Eh

Convergence Tolerance:
 Convergence Check Mode ConvCheckMode   .... Total+1el-Energy
 Convergence forced     ConvForced      .... 0
 Energy Change          TolE            ....  1.000e-08 Eh
 1-El. energy change                    ....  1.000e-05 Eh
 Orbital Gradient       TolG            ....  1.000e-05
 Orbital Rotation angle TolX            ....  1.000e-05
 DIIS Error             TolErr          ....  5.000e-07


Diagonalization of the overlap matrix:
Smallest eigenvalue                        ... 3.214e-05
Time for diagonalization                   ...    0.041 sec
Threshold for overlap eigenvalues          ... 1.000e-08
Number of eigenvalues below threshold      ... 0
Time for construction of square roots      ...    0.022 sec
Total time needed                          ...    0.064 sec

Time for model grid setup =    0.253 sec

------------------------------
INITIAL GUESS: MODEL POTENTIAL
------------------------------
Loading Hartree-Fock densities                     ... done
Calculating cut-offs                               ... done
Initializing the effective Hamiltonian             ... done
Setting up the integral package (SHARK)            ... done
Starting the Coulomb interaction                   ... done (   0.5 sec)
Reading the grid                                   ... done
Mapping shells                                     ... done
Starting the XC term evaluation                    ... done (   0.4 sec)
  promolecular density results
     # of electrons  =    100.991838355
     EX              =    -75.622979848
     EC              =     -3.344084413
     EX+EC           =    -78.967064262
Transforming the Hamiltonian                       ... done (   0.0 sec)
Diagonalizing the Hamiltonian                      ... done (   0.0 sec)
Back transforming the eigenvectors                 ... done (   0.0 sec)
Now organizing SCF variables                       ... done
                      ------------------
                      INITIAL GUESS DONE (   1.2 sec)
                      ------------------
-------------------
DFT GRID GENERATION
-------------------

General Integration Accuracy     IntAcc      ... 4.388
Radial Grid Type                 RadialGrid  ... OptM3 with GC (2021)
Angular Grid (max. ang.)         AngularGrid ... 4 (Lebedev-302)
Angular grid pruning method      GridPruning ... 4 (adaptive)
Weight generation scheme         WeightScheme... Becke
Basis function cutoff            BFCut       ... 1.0000e-11
Integration weight cutoff        WCut        ... 1.0000e-14
Angular grids for H and He will be reduced by one unit
Partially contracted basis set               ... off
Rotationally invariant grid construction     ... off

Total number of grid points                  ...   144327
Total number of batches                      ...     2269
Average number of points per batch           ...       63
Average number of grid points per atom       ...     4245
Time for grid setup =    1.048 sec

--------------------
COSX GRID GENERATION
--------------------

GRIDX 1
-------
General Integration Accuracy     IntAcc      ... 3.816
Radial Grid Type                 RadialGrid  ... OptM3 with GC (2021)
Angular Grid (max. ang.)         AngularGrid ... 1 (Lebedev-50)
Angular grid pruning method      GridPruning ... 4 (adaptive)
Weight generation scheme         WeightScheme... Becke
Basis function cutoff            BFCut       ... 1.0000e-11
Integration weight cutoff        WCut        ... 1.0000e-14
Angular grids for H and He will be reduced by one unit
Partially contracted basis set               ... on
Rotationally invariant grid construction     ... off

Total number of grid points                  ...    18482
Total number of batches                      ...      307
Average number of points per batch           ...       60
Average number of grid points per atom       ...      544
UseSFitting                                  ... on

GRIDX 2
-------
General Integration Accuracy     IntAcc      ... 4.020
Radial Grid Type                 RadialGrid  ... OptM3 with GC (2021)
Angular Grid (max. ang.)         AngularGrid ... 2 (Lebedev-110)
Angular grid pruning method      GridPruning ... 4 (adaptive)
Weight generation scheme         WeightScheme... Becke
Basis function cutoff            BFCut       ... 1.0000e-11
Integration weight cutoff        WCut        ... 1.0000e-14
Angular grids for H and He will be reduced by one unit
Partially contracted basis set               ... on
Rotationally invariant grid construction     ... off

Total number of grid points                  ...    38285
Total number of batches                      ...      619
Average number of points per batch           ...       61
Average number of grid points per atom       ...     1126
UseSFitting                                  ... on

GRIDX 3
-------
General Integration Accuracy     IntAcc      ... 4.338
Radial Grid Type                 RadialGrid  ... OptM3 with GC (2021)
Angular Grid (max. ang.)         AngularGrid ... 3 (Lebedev-194)
Angular grid pruning method      GridPruning ... 4 (adaptive)
Weight generation scheme         WeightScheme... Becke
Basis function cutoff            BFCut       ... 1.0000e-11
Integration weight cutoff        WCut        ... 1.0000e-14
Angular grids for H and He will be reduced by one unit
Partially contracted basis set               ... on
Rotationally invariant grid construction     ... off

Total number of grid points                  ...    83093
Total number of batches                      ...     1317
Average number of points per batch           ...       63
Average number of grid points per atom       ...     2444
UseSFitting                                  ... on

Time for X-Grid setup             =    1.439 sec

--------------
SCF ITERATIONS
--------------
ITER       Energy         Delta-E        Max-DP      RMS-DP      [F,P]     Damp
               ***  Starting incremental Fock matrix formation  ***
  0   -540.8840162254   0.000000000000 0.02423774  0.00033866  0.1699114 0.8500
  1   -540.9504725552  -0.066456329729 0.02710315  0.00034292  0.1360020 0.8500
                               ***Turning on DIIS***
  2   -541.0004181885  -0.049945633357 0.02260027  0.00028625  0.1036425 0.8500
  3   -541.0371465939  -0.036728405343 0.01763996  0.00022021  0.0779515 0.8500
  4   -541.0652653459  -0.028118752065 0.01437147  0.00017788  0.0619010 0.8500
  5   -541.0872850888  -0.022019742866 0.01225501  0.00014981  0.0511953 0.8500
  6   -541.1051194024  -0.017834313610 0.01061550  0.00012815  0.0431132 0.8500
  7   -541.1198444835  -0.014725081094 0.00928103  0.00011068  0.0365664 0.8500
  8   -541.1321436683  -0.012299184770 0.00805966  0.00009524  0.0309501 0.8500
  9   -541.1424421905  -0.010298522213 0.04618480  0.00054298  0.0261312 0.0000
 10   -541.1980223259  -0.055580135408 0.00063504  0.00001291  0.0012195 0.0000
                      *** Initiating the SOSCF procedure ***
                           *** Shutting down DIIS ***
                      *** Re-Reading the Fockian *** 
                      *** Removing any level shift *** 
ITER      Energy       Delta-E        Grad      Rot      Max-DP    RMS-DP
 11   -541.19804144  -0.0000191160  0.000166  0.000166  0.000426  0.000006
               *** Restarting incremental Fock matrix formation ***
 12   -541.19803512   0.0000063260  0.000044  0.000105  0.000458  0.000011
 13   -541.19803546  -0.0000003459  0.000066  0.000210  0.000190  0.000004
 14   -541.19803552  -0.0000000554  0.000020  0.000034  0.000114  0.000002
 15   -541.19803553  -0.0000000140  0.000007  0.000015  0.000023  0.000001
                  ***Gradient check signals convergence***
              ***Rediagonalizing the Fockian in SOSCF/NRSCF***

               *****************************************************
               *                     SUCCESS                       *
               *           SCF CONVERGED AFTER  16 CYCLES          *
               *****************************************************

Old exchange energy                            =    -25.371962790 Eh
New exchange energy                            =    -25.371971421 Eh
Exchange energy change after final integration =     -0.000008632 Eh
Total energy after final integration           =   -541.198044153 Eh
Final COS-X integration done in                =    49.309 sec

----------------
TOTAL SCF ENERGY
----------------

Total Energy       :         -541.19804415 Eh          -14726.74747 eV

Components:
Nuclear Repulsion  :          870.82187080 Eh           23696.26780 eV
Electronic Energy  :        -1412.01991495 Eh          -38423.01527 eV
One Electron Energy:        -2441.89063513 Eh          -66447.22229 eV
Two Electron Energy:         1029.87072017 Eh           28024.20702 eV
Max COSX asymmetry :            0.00000128 Eh               0.00003 eV

Virial components:
Potential Energy   :        -1079.54752853 Eh          -29375.98170 eV
Kinetic Energy     :          538.34948437 Eh           14649.23422 eV
Virial Ratio       :            2.00529128


DFT components:
N(Alpha)           :       50.000138318161 electrons
N(Beta)            :       50.000138318161 electrons
N(Total)           :      100.000276636323 electrons
E(XC)              :      -55.754321494058 Eh       
DFET-embed. en.    :        0.000000000000 Eh       

---------------
SCF CONVERGENCE
---------------

  Last Energy change         ...    9.3249e-09  Tolerance :   1.0000e-08
  Last MAX-Density change    ...    1.3323e-15  Tolerance :   1.0000e-07
  Last RMS-Density change    ...    1.2190e-17  Tolerance :   5.0000e-09
  Last Orbital Gradient      ...    2.3149e-06  Tolerance :   1.0000e-05
  Last Orbital Rotation      ...    7.3923e-06  Tolerance :   1.0000e-05

             **** THE GBW FILE WAS UPDATED (6_prot.gbw) ****
             **** DENSITY 6_prot.scfp WAS UPDATED ****
             **** ENERGY FILE WAS UPDATED (6_prot.en.tmp) ****
             **** THE GBW FILE WAS UPDATED (6_prot.gbw) ****
             **** DENSITY 6_prot.scfp WAS UPDATED ****
----------------
ORBITAL ENERGIES
----------------

  NO   OCC          E(Eh)            E(eV) 
   0   2.0000     -14.623265      -397.9193 
   1   2.0000     -14.623212      -397.9178 
   2   2.0000     -10.496048      -285.6120 
   3   2.0000     -10.455492      -284.5084 
   4   2.0000     -10.455474      -284.5079 
   5   2.0000     -10.452547      -284.4283 
   6   2.0000     -10.451908      -284.4109 
   7   2.0000     -10.401399      -283.0364 
   8   2.0000     -10.401383      -283.0360 
   9   2.0000     -10.388257      -282.6789 
  10   2.0000     -10.388210      -282.6776 
  11   2.0000     -10.384468      -282.5757 
  12   2.0000     -10.384410      -282.5742 
  13   2.0000      -1.346289       -36.6344 
  14   2.0000      -1.230505       -33.4837 
  15   2.0000      -1.103913       -30.0390 
  16   2.0000      -1.077088       -29.3091 
  17   2.0000      -1.052791       -28.6479 
  18   2.0000      -1.004436       -27.3321 
  19   2.0000      -0.967103       -26.3162 
  20   2.0000      -0.957523       -26.0555 
  21   2.0000      -0.953954       -25.9584 
  22   2.0000      -0.938621       -25.5412 
  23   2.0000      -0.865924       -23.5630 
  24   2.0000      -0.861917       -23.4539 
  25   2.0000      -0.830318       -22.5941 
  26   2.0000      -0.783902       -21.3311 
  27   2.0000      -0.765208       -20.8224 
  28   2.0000      -0.747795       -20.3485 
  29   2.0000      -0.724832       -19.7237 
  30   2.0000      -0.706053       -19.2127 
  31   2.0000      -0.703007       -19.1298 
  32   2.0000      -0.682517       -18.5722 
  33   2.0000      -0.673446       -18.3254 
  34   2.0000      -0.672825       -18.3085 
  35   2.0000      -0.659415       -17.9436 
  36   2.0000      -0.654367       -17.8062 
  37   2.0000      -0.648667       -17.6511 
  38   2.0000      -0.645408       -17.5625 
  39   2.0000      -0.635776       -17.3003 
  40   2.0000      -0.629420       -17.1274 
  41   2.0000      -0.623009       -16.9529 
  42   2.0000      -0.617656       -16.8073 
  43   2.0000      -0.611849       -16.6493 
  44   2.0000      -0.601838       -16.3768 
  45   2.0000      -0.591013       -16.0823 
  46   2.0000      -0.588209       -16.0060 
  47   2.0000      -0.586618       -15.9627 
  48   2.0000      -0.535893       -14.5824 
  49   2.0000      -0.480344       -13.0708 
  50   0.0000      -0.078580        -2.1383 
  51   0.0000      -0.029123        -0.7925 
  52   0.0000      -0.026251        -0.7143 
  53   0.0000      -0.009733        -0.2649 
  54   0.0000      -0.003713        -0.1010 
  55   0.0000       0.021703         0.5906 
  56   0.0000       0.025694         0.6992 
  57   0.0000       0.035863         0.9759 
  58   0.0000       0.037912         1.0316 
  59   0.0000       0.044726         1.2171 
  60   0.0000       0.046875         1.2755 
  61   0.0000       0.050618         1.3774 
  62   0.0000       0.064511         1.7554 
  63   0.0000       0.066888         1.8201 
  64   0.0000       0.075421         2.0523 
  65   0.0000       0.083391         2.2692 
  66   0.0000       0.086086         2.3425 
  67   0.0000       0.086163         2.3446 
  68   0.0000       0.093524         2.5449 
  69   0.0000       0.096000         2.6123 
  70   0.0000       0.097266         2.6468 
  71   0.0000       0.102966         2.8018 
  72   0.0000       0.108749         2.9592 
  73   0.0000       0.110279         3.0008 
  74   0.0000       0.115273         3.1367 
  75   0.0000       0.118313         3.2194 
  76   0.0000       0.125841         3.4243 
  77   0.0000       0.126091         3.4311 
  78   0.0000       0.137702         3.7471 
  79   0.0000       0.147423         4.0116 
  80   0.0000       0.148660         4.0453 
  81   0.0000       0.156256         4.2520 
  82   0.0000       0.163064         4.4372 
  83   0.0000       0.166015         4.5175 
  84   0.0000       0.172770         4.7013 
  85   0.0000       0.178896         4.8680 
  86   0.0000       0.191595         5.2136 
  87   0.0000       0.192969         5.2510 
  88   0.0000       0.211500         5.7552 
  89   0.0000       0.214331         5.8322 
  90   0.0000       0.220820         6.0088 
  91   0.0000       0.226928         6.1750 
  92   0.0000       0.231779         6.3070 
  93   0.0000       0.250403         6.8138 
  94   0.0000       0.253062         6.8862 
  95   0.0000       0.255562         6.9542 
  96   0.0000       0.262293         7.1374 
  97   0.0000       0.263580         7.1724 
  98   0.0000       0.271065         7.3761 
  99   0.0000       0.290496         7.9048 
 100   0.0000       0.292101         7.9485 
 101   0.0000       0.298537         8.1236 
 102   0.0000       0.318055         8.6547 
 103   0.0000       0.320843         8.7306 
 104   0.0000       0.322801         8.7839 
 105   0.0000       0.339765         9.2455 
 106   0.0000       0.354539         9.6475 
 107   0.0000       0.358240         9.7482 
 108   0.0000       0.361918         9.8483 
 109   0.0000       0.362778         9.8717 
 110   0.0000       0.376589        10.2475 
 111   0.0000       0.377555        10.2738 
 112   0.0000       0.382007        10.3949 
 113   0.0000       0.382197        10.4001 
 114   0.0000       0.388653        10.5758 
 115   0.0000       0.390136        10.6161 
 116   0.0000       0.403011        10.9665 
 117   0.0000       0.406324        11.0566 
 118   0.0000       0.408506        11.1160 
 119   0.0000       0.415363        11.3026 
 120   0.0000       0.422239        11.4897 
 121   0.0000       0.426101        11.5948 
 122   0.0000       0.430043        11.7021 
 123   0.0000       0.432621        11.7722 
 124   0.0000       0.433586        11.7985 
 125   0.0000       0.437013        11.8917 
 126   0.0000       0.441742        12.0204 
 127   0.0000       0.447190        12.1687 
 128   0.0000       0.457364        12.4455 
 129   0.0000       0.458343        12.4721 
 130   0.0000       0.471661        12.8345 
 131   0.0000       0.471879        12.8405 
 132   0.0000       0.478654        13.0248 
 133   0.0000       0.479837        13.0570 
 134   0.0000       0.486257        13.2317 
 135   0.0000       0.493077        13.4173 
 136   0.0000       0.497829        13.5466 
 137   0.0000       0.508853        13.8466 
 138   0.0000       0.514584        14.0025 
 139   0.0000       0.530078        14.4241 
 140   0.0000       0.530830        14.4446 
 141   0.0000       0.548152        14.9160 
 142   0.0000       0.553094        15.0505 
 143   0.0000       0.564296        15.3553 
 144   0.0000       0.567213        15.4347 
 145   0.0000       0.578476        15.7411 
 146   0.0000       0.590299        16.0629 
 147   0.0000       0.599672        16.3179 
 148   0.0000       0.603851        16.4316 
 149   0.0000       0.606990        16.5170 
 150   0.0000       0.632466        17.2103 
 151   0.0000       0.639824        17.4105 
 152   0.0000       0.644848        17.5472 
 153   0.0000       0.653428        17.7807 
 154   0.0000       0.672526        18.3004 
 155   0.0000       0.689869        18.7723 
 156   0.0000       0.697983        18.9931 
 157   0.0000       0.716289        19.4912 
 158   0.0000       0.723996        19.7009 
 159   0.0000       0.735783        20.0217 
 160   0.0000       0.748712        20.3735 
 161   0.0000       0.753110        20.4932 
 162   0.0000       0.756271        20.5792 
 163   0.0000       0.790422        21.5085 
 164   0.0000       0.795281        21.6407 
 165   0.0000       0.797673        21.7058 
 166   0.0000       0.823908        22.4197 
 167   0.0000       0.826352        22.4862 
 168   0.0000       0.838078        22.8053 
 169   0.0000       0.838563        22.8185 
 170   0.0000       0.845388        23.0042 
 171   0.0000       0.861225        23.4351 
 172   0.0000       0.880162        23.9504 
 173   0.0000       0.898053        24.4373 
 174   0.0000       0.922250        25.0957 
 175   0.0000       0.926226        25.2039 
 176   0.0000       0.927064        25.2267 
 177   0.0000       0.934863        25.4389 
 178   0.0000       0.949509        25.8375 
 179   0.0000       0.962359        26.1871 
 180   0.0000       0.967371        26.3235 
 181   0.0000       0.975665        26.5492 
 182   0.0000       0.987631        26.8748 
 183   0.0000       0.990886        26.9634 
 184   0.0000       0.998425        27.1685 
 185   0.0000       1.018854        27.7244 
 186   0.0000       1.040786        28.3212 
 187   0.0000       1.042294        28.3622 
 188   0.0000       1.058787        28.8111 
 189   0.0000       1.064942        28.9786 
 190   0.0000       1.067053        29.0360 
 191   0.0000       1.090303        29.6687 
 192   0.0000       1.093440        29.7540 
 193   0.0000       1.123815        30.5806 
 194   0.0000       1.127585        30.6831 
 195   0.0000       1.128614        30.7111 
 196   0.0000       1.136323        30.9209 
 197   0.0000       1.144281        31.1375 
 198   0.0000       1.157797        31.5053 
 199   0.0000       1.167217        31.7616 
 200   0.0000       1.180177        32.1142 
 201   0.0000       1.188610        32.3437 
 202   0.0000       1.202505        32.7218 
 203   0.0000       1.222162        33.2567 
 204   0.0000       1.233306        33.5600 
 205   0.0000       1.233809        33.5737 
 206   0.0000       1.254713        34.1425 
 207   0.0000       1.285987        34.9935 
 208   0.0000       1.288159        35.0526 
 209   0.0000       1.327615        36.1262 
 210   0.0000       1.352285        36.7975 
 211   0.0000       1.357682        36.9444 
 212   0.0000       1.388625        37.7864 
 213   0.0000       1.423390        38.7324 
 214   0.0000       1.424710        38.7683 
 215   0.0000       1.452860        39.5343 
 216   0.0000       1.453156        39.5424 
 217   0.0000       1.461979        39.7825 
 218   0.0000       1.463661        39.8282 
 219   0.0000       1.473127        40.0858 
 220   0.0000       1.498073        40.7646 
 221   0.0000       1.502882        40.8955 
 222   0.0000       1.516343        41.2618 
 223   0.0000       1.516767        41.2733 
 224   0.0000       1.526259        41.5316 
 225   0.0000       1.528987        41.6059 
 226   0.0000       1.532962        41.7140 
 227   0.0000       1.533410        41.7262 
 228   0.0000       1.538182        41.8561 
 229   0.0000       1.543101        41.9899 
 230   0.0000       1.549705        42.1696 
 231   0.0000       1.552388        42.2426 
 232   0.0000       1.557680        42.3866 
 233   0.0000       1.571217        42.7550 
 234   0.0000       1.581132        43.0248 
 235   0.0000       1.583176        43.0804 
 236   0.0000       1.591030        43.2941 
 237   0.0000       1.595371        43.4122 
 238   0.0000       1.607261        43.7358 
 239   0.0000       1.617560        44.0160 
 240   0.0000       1.620212        44.0882 
 241   0.0000       1.635675        44.5090 
 242   0.0000       1.639534        44.6140 
 243   0.0000       1.650150        44.9029 
 244   0.0000       1.651383        44.9364 
 245   0.0000       1.658361        45.1263 
 246   0.0000       1.677095        45.6361 
 247   0.0000       1.682092        45.7720 
 248   0.0000       1.687122        45.9089 
 249   0.0000       1.701116        46.2897 
 250   0.0000       1.703712        46.3604 
 251   0.0000       1.726959        46.9929 
 252   0.0000       1.742833        47.4249 
 253   0.0000       1.747872        47.5620 
 254   0.0000       1.756884        47.8072 
 255   0.0000       1.773923        48.2709 
 256   0.0000       1.793786        48.8114 
 257   0.0000       1.802537        49.0495 
 258   0.0000       1.811038        49.2809 
 259   0.0000       1.828672        49.7607 
 260   0.0000       1.864077        50.7241 
 261   0.0000       1.880019        51.1579 
 262   0.0000       1.883369        51.2491 
 263   0.0000       1.890455        51.4419 
 264   0.0000       1.898636        51.6645 
 265   0.0000       1.914952        52.1085 
 266   0.0000       1.936623        52.6982 
 267   0.0000       1.938822        52.7580 
 268   0.0000       1.964883        53.4672 
 269   0.0000       1.968124        53.5554 
 270   0.0000       1.983015        53.9606 
 271   0.0000       1.984557        54.0025 
 272   0.0000       2.014473        54.8166 
 273   0.0000       2.025840        55.1259 
 274   0.0000       2.043250        55.5997 
 275   0.0000       2.056902        55.9712 
 276   0.0000       2.071468        56.3675 
 277   0.0000       2.086098        56.7656 
 278   0.0000       2.086411        56.7741 
 279   0.0000       2.096804        57.0569 
 280   0.0000       2.123032        57.7706 
 281   0.0000       2.133522        58.0561 
 282   0.0000       2.148297        58.4581 
 283   0.0000       2.155005        58.6407 
 284   0.0000       2.168439        59.0062 
 285   0.0000       2.176312        59.2205 
 286   0.0000       2.191444        59.6322 
 287   0.0000       2.213297        60.2269 
 288   0.0000       2.215175        60.2780 
 289   0.0000       2.216920        60.3255 
 290   0.0000       2.253826        61.3297 
 291   0.0000       2.254654        61.3523 
 292   0.0000       2.269191        61.7478 
 293   0.0000       2.276583        61.9490 
 294   0.0000       2.292481        62.3816 
 295   0.0000       2.296977        62.5039 
 296   0.0000       2.309314        62.8396 
 297   0.0000       2.322133        63.1884 
 298   0.0000       2.325235        63.2728 
 299   0.0000       2.329821        63.3977 
 300   0.0000       2.331682        63.4483 
 301   0.0000       2.338138        63.6240 
 302   0.0000       2.346417        63.8492 
 303   0.0000       2.352401        64.0121 
 304   0.0000       2.370921        64.5160 
 305   0.0000       2.381877        64.8142 
 306   0.0000       2.382870        64.8412 
 307   0.0000       2.394199        65.1495 
 308   0.0000       2.415460        65.7280 
 309   0.0000       2.416429        65.7544 
 310   0.0000       2.421388        65.8893 
 311   0.0000       2.429863        66.1199 
 312   0.0000       2.438063        66.3431 
 313   0.0000       2.452832        66.7449 
 314   0.0000       2.468909        67.1824 
 315   0.0000       2.474340        67.3302 
 316   0.0000       2.487037        67.6757 
 317   0.0000       2.498739        67.9942 
 318   0.0000       2.515893        68.4609 
 319   0.0000       2.518328        68.5272 
 320   0.0000       2.526677        68.7544 
 321   0.0000       2.531722        68.8917 
 322   0.0000       2.549213        69.3676 
 323   0.0000       2.550864        69.4125 
 324   0.0000       2.555481        69.5382 
 325   0.0000       2.562430        69.7273 
 326   0.0000       2.562799        69.7373 
 327   0.0000       2.576420        70.1079 
 328   0.0000       2.585963        70.3676 
 329   0.0000       2.586659        70.3866 
 330   0.0000       2.605148        70.8897 
 331   0.0000       2.608451        70.9796 
 332   0.0000       2.612099        71.0788 
 333   0.0000       2.624182        71.4076 
 334   0.0000       2.632013        71.6207 
 335   0.0000       2.643342        71.9290 
 336   0.0000       2.658021        72.3284 
 337   0.0000       2.672450        72.7211 
 338   0.0000       2.685032        73.0634 
 339   0.0000       2.693198        73.2856 
 340   0.0000       2.701307        73.5063 
 341   0.0000       2.712144        73.8012 
 342   0.0000       2.736097        74.4530 
 343   0.0000       2.739320        74.5407 
 344   0.0000       2.750572        74.8469 
 345   0.0000       2.754441        74.9522 
 346   0.0000       2.774574        75.5000 
 347   0.0000       2.797287        76.1181 
 348   0.0000       2.804818        76.3230 
 349   0.0000       2.813637        76.5630 
 350   0.0000       2.848547        77.5129 
 351   0.0000       2.848881        77.5220 
 352   0.0000       2.866619        78.0047 
 353   0.0000       2.869539        78.0841 
 354   0.0000       2.892327        78.7042 
 355   0.0000       2.893061        78.7242 
 356   0.0000       2.903970        79.0210 
 357   0.0000       2.942677        80.0743 
 358   0.0000       2.947139        80.1957 
 359   0.0000       2.972612        80.8889 
 360   0.0000       2.986573        81.2688 
 361   0.0000       2.988256        81.3146 
 362   0.0000       3.001277        81.6689 
 363   0.0000       3.027208        82.3745 
 364   0.0000       3.030143        82.4544 
 365   0.0000       3.038198        82.6736 
 366   0.0000       3.058054        83.2139 
 367   0.0000       3.070538        83.5536 
 368   0.0000       3.083965        83.9189 
 369   0.0000       3.087227        84.0077 
 370   0.0000       3.100680        84.3738 
 371   0.0000       3.109100        84.6029 
 372   0.0000       3.116741        84.8108 
 373   0.0000       3.118493        84.8585 
 374   0.0000       3.122739        84.9741 
 375   0.0000       3.126629        85.0799 
 376   0.0000       3.141087        85.4733 
 377   0.0000       3.145236        85.5862 
 378   0.0000       3.150596        85.7321 
 379   0.0000       3.163558        86.0848 
 380   0.0000       3.168821        86.2280 
 381   0.0000       3.173562        86.3570 
 382   0.0000       3.182312        86.5951 
 383   0.0000       3.184592        86.6572 
 384   0.0000       3.187607        86.7392 
 385   0.0000       3.196898        86.9920 
 386   0.0000       3.218527        87.5806 
 387   0.0000       3.228154        87.8425 
 388   0.0000       3.237387        88.0938 
 389   0.0000       3.243731        88.2664 
 390   0.0000       3.249203        88.4153 
 391   0.0000       3.252644        88.5089 
 392   0.0000       3.257160        88.6318 
 393   0.0000       3.259814        88.7040 
 394   0.0000       3.268161        88.9312 
 395   0.0000       3.285202        89.3949 
 396   0.0000       3.302193        89.8572 
 397   0.0000       3.313993        90.1783 
 398   0.0000       3.317101        90.2629 
 399   0.0000       3.330950        90.6398 
 400   0.0000       3.331459        90.6536 
 401   0.0000       3.348216        91.1096 
 402   0.0000       3.359830        91.4256 
 403   0.0000       3.381110        92.0047 
 404   0.0000       3.387220        92.1709 
 405   0.0000       3.400657        92.5366 
 406   0.0000       3.401444        92.5580 
 407   0.0000       3.417595        92.9975 
 408   0.0000       3.451895        93.9309 
 409   0.0000       3.457706        94.0890 
 410   0.0000       3.470558        94.4387 
 411   0.0000       3.485495        94.8451 
 412   0.0000       3.488933        94.9387 
 413   0.0000       3.498326        95.1943 
 414   0.0000       3.511005        95.5393 
 415   0.0000       3.514753        95.6413 
 416   0.0000       3.528986        96.0286 
 417   0.0000       3.541320        96.3642 
 418   0.0000       3.541583        96.3714 
 419   0.0000       3.549055        96.5747 
 420   0.0000       3.558231        96.8244 
 421   0.0000       3.580881        97.4407 
 422   0.0000       3.585146        97.5568 
 423   0.0000       3.612669        98.3057 
 424   0.0000       3.620438        98.5171 
 425   0.0000       3.636778        98.9618 
 426   0.0000       3.639506        99.0360 
 427   0.0000       3.661111        99.6239 
 428   0.0000       3.677780       100.0775 
 429   0.0000       3.705213       100.8240 
 430   0.0000       3.705650       100.8359 
 431   0.0000       3.718720       101.1915 
 432   0.0000       3.741964       101.8240 
 433   0.0000       3.762433       102.3810 
 434   0.0000       3.770802       102.6087 
 435   0.0000       3.778222       102.8106 
 436   0.0000       3.811718       103.7221 
 437   0.0000       3.819413       103.9315 
 438   0.0000       3.865849       105.1951 
 439   0.0000       3.868128       105.2571 
 440   0.0000       3.888900       105.8224 
 441   0.0000       3.893095       105.9365 
 442   0.0000       3.936310       107.1124 
 443   0.0000       3.943362       107.3043 
 444   0.0000       3.956642       107.6657 
 445   0.0000       3.959659       107.7478 
 446   0.0000       3.960406       107.7681 
 447   0.0000       3.980694       108.3202 
 448   0.0000       3.993896       108.6794 
 449   0.0000       4.014139       109.2303 
 450   0.0000       4.038938       109.9051 
 451   0.0000       4.046330       110.1063 
 452   0.0000       4.065139       110.6180 
 453   0.0000       4.097948       111.5108 
 454   0.0000       4.121354       112.1477 
 455   0.0000       4.125381       112.2573 
 456   0.0000       4.152030       112.9825 
 457   0.0000       4.172043       113.5270 
 458   0.0000       4.230556       115.1193 
 459   0.0000       4.247058       115.5683 
 460   0.0000       4.274202       116.3070 
 461   0.0000       4.292420       116.8027 
 462   0.0000       4.309712       117.2732 
 463   0.0000       4.312528       117.3498 
 464   0.0000       4.329843       117.8210 
 465   0.0000       4.332092       117.8822 
 466   0.0000       4.344170       118.2109 
 467   0.0000       4.344670       118.2245 
 468   0.0000       4.356039       118.5338 
 469   0.0000       4.361074       118.6708 
 470   0.0000       4.371618       118.9578 
 471   0.0000       4.393159       119.5439 
 472   0.0000       4.412288       120.0645 
 473   0.0000       4.421116       120.3047 
 474   0.0000       4.445197       120.9599 
 475   0.0000       4.477749       121.8457 
 476   0.0000       4.490338       122.1883 
 477   0.0000       4.536982       123.4576 
 478   0.0000       4.551971       123.8654 
 479   0.0000       4.580535       124.6427 
 480   0.0000       4.602099       125.2295 
 481   0.0000       4.616347       125.6172 
 482   0.0000       4.658161       126.7550 
 483   0.0000       4.774448       129.9193 
 484   0.0000       4.785969       130.2328 
 485   0.0000       4.793766       130.4450 
 486   0.0000       4.804173       130.7282 
 487   0.0000       4.809366       130.8695 
 488   0.0000       4.812109       130.9441 
 489   0.0000       4.862787       132.3232 
 490   0.0000       4.919612       133.8694 
 491   0.0000       4.926556       134.0584 
 492   0.0000       4.946782       134.6088 
 493   0.0000       4.954514       134.8192 
 494   0.0000       5.035324       137.0181 
 495   0.0000       5.055200       137.5590 
 496   0.0000       5.072153       138.0203 
 497   0.0000       5.168143       140.6323 
 498   0.0000       5.176426       140.8577 
 499   0.0000       5.205414       141.6465 
 500   0.0000       5.221303       142.0789 
 501   0.0000       5.242031       142.6429 
 502   0.0000       5.253642       142.9589 
 503   0.0000       5.368163       146.0751 
 504   0.0000       5.416006       147.3770 
 505   0.0000       5.430307       147.7662 
 506   0.0000       5.463691       148.6746 
 507   0.0000       5.596748       152.2953 
 508   0.0000       5.605739       152.5399 
 509   0.0000       5.726110       155.8154 
 510   0.0000       5.775530       157.1602 
 511   0.0000       5.869997       159.7307 
 512   0.0000       5.910032       160.8202 
 513   0.0000       6.059907       164.8984 
 514   0.0000       6.082586       165.5156 
 515   0.0000       6.227550       169.4603 
 516   0.0000      22.254706       605.5814 
 517   0.0000      22.280261       606.2767 
 518   0.0000      22.292182       606.6011 
 519   0.0000      22.308849       607.0546 
 520   0.0000      22.316798       607.2710 
 521   0.0000      22.408553       609.7677 
 522   0.0000      22.572445       614.2275 
 523   0.0000      22.639442       616.0505 
 524   0.0000      22.690573       617.4419 
 525   0.0000      23.079020       628.0121 
 526   0.0000      23.307997       634.2428 
 527   0.0000      33.011987       898.3018 
[...]
     76       0.060398  -0.049037   0.012201  -0.005526   0.002798  -0.000288
     77       0.102776  -0.079769   0.019814  -0.007781   0.003908  -0.000786
     78      -0.001335   0.054156  -0.013342   0.003238  -0.001635   0.009481
     79       0.007953  -0.034211   0.008761  -0.003124   0.001649  -0.010836
     80       0.005082  -0.082961   0.020642  -0.005851   0.003048  -0.013727
     81      -0.053262   0.010328   0.049757   0.005457   0.003591  -0.000689
     82       0.048948  -0.009625  -0.046139  -0.005187  -0.003386   0.000270
     83      -0.088648   0.016651   0.079698   0.007685   0.004978  -0.000792
     84       0.023391   0.020053   0.086977   0.000869   0.000372   0.000135
     85      -0.194565  -0.167967  -0.729746  -0.007741  -0.003461   0.003028
     86      -0.040846  -0.036215  -0.157431  -0.001823  -0.000816   0.000317
     87      -0.019285   0.010860  -0.002597  -0.000070   0.000041   0.000296
     88       0.561423  -0.345856   0.082635  -0.001695  -0.000042  -0.000535
     89      -0.152554   0.094334  -0.022546   0.000671  -0.000094   0.000067
     90       0.031077   0.090464  -0.020591   0.000979  -0.000322  -0.000098
     91      -0.244451  -0.716657   0.163392  -0.008186   0.002874  -0.003132
     92       0.059599   0.178715  -0.040766   0.002204  -0.000788   0.000435
     93      -0.013297   0.001821   0.008366  -0.000115  -0.000074  -0.000291
     94       0.475155  -0.073161  -0.335550  -0.000274   0.000935   0.000547
     95       0.113597  -0.017563  -0.080583  -0.000290   0.000085   0.000047
     96      -0.016594   0.006459   0.032221   0.010570   0.007503  -0.000129
     97       0.016173  -0.006925  -0.034611  -0.011035  -0.007820  -0.001845
     98      -0.024205   0.010142   0.050318   0.015399   0.010697  -0.000406
     99      -0.019156   0.031616  -0.008145   0.011312  -0.006329   0.000126
    100       0.019253  -0.035079   0.009051  -0.012198   0.006815   0.001815
    101       0.027047  -0.047838   0.012273  -0.015923   0.008683  -0.000476


-----------
IR SPECTRUM
-----------

 Mode   freq       eps      Int      T**2         TX        TY        TZ
       cm**-1   L/(mol*cm) km/mol    a.u.
----------------------------------------------------------------------------
  6:     59.48   0.000018    0.09  0.000093  (-0.001390  0.000042  0.009563)
  7:     68.42   0.000051    0.26  0.000234  (-0.015275 -0.000561 -0.000618)
  8:     90.80   0.000079    0.40  0.000270  ( 0.016083  0.003377  0.000281)
  9:     97.20   0.000008    0.04  0.000025  ( 0.004830 -0.001125  0.000568)
 10:    105.62   0.000007    0.04  0.000022  ( 0.003145 -0.000326 -0.003482)
 11:    126.06   0.000007    0.03  0.000017  ( 0.003989 -0.000219  0.000899)
 12:    149.26   0.000004    0.02  0.000008  ( 0.000355  0.000087  0.002798)
 13:    212.93   0.000001    0.00  0.000001  ( 0.000204 -0.000495  0.000868)
 14:    220.60   0.000019    0.10  0.000027  (-0.000654 -0.005122 -0.000005)
 15:    253.14   0.000003    0.02  0.000004  ( 0.001442 -0.000700 -0.001217)
 16:    255.57   0.000003    0.01  0.000003  ( 0.001436 -0.000379  0.001032)
 17:    281.82   0.000018    0.09  0.000020  (-0.003059  0.001606 -0.002882)
 18:    286.11   0.000281    1.42  0.000307  (-0.017290  0.002261  0.001712)
 19:    290.61   0.001112    5.62  0.001194  (-0.034301 -0.004171 -0.000479)
 20:    291.81   0.000013    0.07  0.000014  (-0.003360  0.000947 -0.001442)
 21:    320.10   0.000052    0.26  0.000051  (-0.000290 -0.007119  0.000402)
 22:    328.86   0.000020    0.10  0.000019  (-0.000093  0.000388  0.004342)
 23:    378.03   0.000113    0.57  0.000093  ( 0.009285  0.002631  0.000072)
 24:    433.95   0.000076    0.38  0.000054  ( 0.006467 -0.003554  0.000103)
 25:    459.95   0.000134    0.68  0.000091  ( 0.000027  0.000297  0.009543)
 26:    481.07   0.000014    0.07  0.000009  ( 0.000084 -0.000087  0.003047)
 27:    546.32   0.001480    7.48  0.000846  (-0.001123  0.029055 -0.000419)
 28:    607.62   0.000692    3.50  0.000356  ( 0.000156  0.000054  0.018854)
 29:    616.56   0.000297    1.50  0.000150  ( 0.005412 -0.010977 -0.000583)
 30:    678.41   0.002662   13.45  0.001225  ( 0.034284 -0.007016  0.000049)
 31:    710.84   0.000000    0.00  0.000000  (-0.000060  0.000022  0.000427)
 32:    748.67   0.000865    4.37  0.000361  ( 0.000082  0.000306  0.018991)
 33:    794.92   0.000571    2.88  0.000224  (-0.004210 -0.014359  0.000247)
 34:    866.77   0.001334    6.74  0.000480  (-0.021632 -0.003533  0.000146)
 35:    908.82   0.000000    0.00  0.000000  ( 0.000008 -0.000055  0.000100)
 36:    920.68   0.000158    0.80  0.000053  ( 0.001561 -0.007139  0.000076)
 37:    954.13   0.000200    1.01  0.000065  (-0.005587  0.001865  0.005539)
 38:    954.83   0.000261    1.32  0.000085  ( 0.007894 -0.002428  0.004149)
 39:    972.66   0.000013    0.07  0.000004  (-0.000058 -0.000013  0.002070)
 40:    973.50   0.000096    0.49  0.000031  ( 0.005519 -0.000564  0.000022)
 41:    985.03   0.000043    0.22  0.000014  (-0.000030 -0.000148  0.003692)
 42:   1061.50   0.000090    0.46  0.000027  (-0.004966  0.001378 -0.000025)
 43:   1068.77   0.000237    1.20  0.000069  (-0.000002  0.008310 -0.000186)
 44:   1083.66   0.000037    0.18  0.000011  ( 0.000021  0.000397  0.003222)
 45:   1109.51   0.000413    2.09  0.000116  (-0.000088 -0.000339 -0.010773)
 46:   1140.38   0.001890    9.55  0.000517  (-0.001486  0.022691 -0.000469)
 47:   1161.79   0.000124    0.63  0.000033  ( 0.000226 -0.000318 -0.005756)
 48:   1177.39   0.002031   10.26  0.000538  ( 0.018349 -0.014186  0.000539)
 49:   1180.31   0.000115    0.58  0.000030  (-0.000789  0.000716  0.005412)
 50:   1209.28   0.000756    3.82  0.000195  ( 0.004639 -0.013177  0.000234)
 51:   1224.85   0.000663    3.35  0.000169  (-0.000080  0.003260 -0.012578)
 52:   1227.15   0.026504  133.94  0.006740  (-0.001366  0.082084 -0.000632)
 53:   1254.27   0.003800   19.20  0.000945  ( 0.003475  0.030544 -0.000651)
 54:   1340.03   0.000190    0.96  0.000044  (-0.000097 -0.000649 -0.006623)
 55:   1371.16   0.000295    1.49  0.000067  (-0.001460 -0.000614  0.008037)
 56:   1371.48   0.000127    0.64  0.000029  (-0.004311 -0.001697 -0.002720)
 57:   1397.34   0.003735   18.87  0.000834  (-0.007065 -0.027335  0.006078)
 58:   1400.69   0.002846   14.38  0.000634  ( 0.001632  0.005772  0.024458)
 59:   1425.19   0.005057   25.56  0.001107  ( 0.030477  0.013263 -0.001571)
 60:   1425.45   0.000547    2.76  0.000120  (-0.003244 -0.000702 -0.010426)
 61:   1428.89   0.002033   10.28  0.000444  (-0.014052  0.015675  0.000942)
 62:   1441.64   0.005293   26.75  0.001146  ( 0.001628  0.002569  0.033712)
 63:   1443.74   0.001422    7.19  0.000307  (-0.004852 -0.016472  0.003545)
 64:   1445.79   0.002620   13.24  0.000565  (-0.000912 -0.000277  0.023760)
 65:   1475.30   0.002220   11.22  0.000470  ( 0.012022 -0.018032  0.000074)
 66:   1480.67   0.000144    0.73  0.000030  ( 0.001482  0.000977 -0.005208)
 67:   1484.83   0.003187   16.11  0.000670  ( 0.025360  0.005121  0.000636)
 68:   1489.01   0.000402    2.03  0.000084  ( 0.001444  0.000497  0.009046)
 69:   1490.19   0.000326    1.65  0.000068  (-0.007805 -0.001999  0.001848)
 70:   1493.12   0.003123   15.78  0.000653  (-0.001001 -0.000859 -0.025513)
 71:   1495.36   0.000343    1.73  0.000072  (-0.004745 -0.003062  0.006300)
 72:   1496.39   0.003402   17.19  0.000709  ( 0.020481  0.017012  0.000747)
 73:   1506.28   0.002992   15.12  0.000620  ( 0.004756 -0.004169  0.024082)
 74:   1506.99   0.001010    5.10  0.000209  ( 0.009090 -0.011127 -0.001632)
 75:   1508.35   0.003369   17.02  0.000697  (-0.020181  0.016178  0.005285)
 76:   1514.97   0.000407    2.06  0.000084  ( 0.002484 -0.002888  0.008332)
 77:   1516.37   0.001112    5.62  0.000229  ( 0.008891 -0.012185 -0.001171)
 78:   1520.72   0.001146    5.79  0.000235  ( 0.000450  0.000189 -0.015326)
 79:   1634.32   0.019596   99.03  0.003742  (-0.001849 -0.061134  0.001014)
 80:   1711.79   0.004168   21.06  0.000760  (-0.000000  0.000392  0.027563)
 81:   3075.36   0.001252    6.33  0.000127  ( 0.010787  0.002298 -0.002332)
 82:   3075.43   0.000879    4.44  0.000089  (-0.008706 -0.002201 -0.002919)
 83:   3077.81   0.000807    4.08  0.000082  ( 0.001382 -0.005043  0.007381)
 84:   3077.82   0.000974    4.92  0.000099  (-0.001238  0.004206  0.008920)
 85:   3083.36   0.001488    7.52  0.000151  (-0.000725 -0.012251  0.000057)
 86:   3084.37   0.000208    1.05  0.000021  (-0.000135 -0.000293  0.004579)
 87:   3124.82   0.000117    0.59  0.000012  (-0.002347  0.002211  0.001141)
 88:   3125.55   0.000097    0.49  0.000010  (-0.002120  0.002024 -0.001037)
 89:   3150.72   0.000328    1.66  0.000032  (-0.005476 -0.001363 -0.000791)
 90:   3150.92   0.000440    2.23  0.000044  (-0.006401 -0.001602  0.000299)
 91:   3153.94   0.000376    1.90  0.000037  ( 0.000487  0.000112  0.006082)
 92:   3153.99   0.001660    8.39  0.000164  (-0.012710 -0.001594  0.000322)
 93:   3160.38   0.002356   11.90  0.000233  (-0.010776  0.009445  0.005223)
 94:   3160.59   0.004845   24.48  0.000478  (-0.002633  0.001965 -0.021623)
 95:   3170.42   0.000444    2.25  0.000044  ( 0.000904 -0.001030 -0.006470)
 96:   3170.46   0.001604    8.11  0.000158  ( 0.010189 -0.007323  0.000645)
 97:   3174.70   0.002454   12.40  0.000241  ( 0.001984  0.015209 -0.002440)
 98:   3174.92   0.001046    5.29  0.000103  ( 0.001344  0.009537  0.003177)
 99:   3185.15   0.000649    3.28  0.000064  ( 0.000013  0.007952 -0.000579)
100:   3190.89   0.000679    3.43  0.000066  ( 0.000053  0.000405  0.008142)
101:   3319.01   0.003348   16.92  0.000315  ( 0.000013 -0.000435 -0.017738)

* The epsilon (eps) is given for a Dirac delta lineshape.
** The dipole moment derivative (T) already includes vibrational overlap.

The first frequency considered to be a vibration is 6
The total number of vibrations considered is 96


--------------------------
THERMOCHEMISTRY AT 298.15K
--------------------------

Temperature         ... 298.15 K
Pressure            ... 1.00 atm
Total Mass          ... 181.30 AMU

Throughout the following assumptions are being made:
  (1) The electronic state is orbitally nondegenerate
  (2) There are no thermally accessible electronically excited states
  (3) Hindered rotations indicated by low frequency modes are not
      treated as such but are treated as vibrations and this may
      cause some error
  (4) All equations used are the standard statistical mechanics
      equations for an ideal gas
  (5) All vibrations are strictly harmonic

freq.      59.48  E(vib)   ...       0.51 
freq.      68.42  E(vib)   ...       0.50 
freq.      90.80  E(vib)   ...       0.47 
freq.      97.20  E(vib)   ...       0.46 
freq.     105.62  E(vib)   ...       0.45 
freq.     126.06  E(vib)   ...       0.43 
freq.     149.26  E(vib)   ...       0.40 
freq.     212.93  E(vib)   ...       0.34 
freq.     220.60  E(vib)   ...       0.33 
freq.     253.14  E(vib)   ...       0.30 
freq.     255.57  E(vib)   ...       0.30 
freq.     281.82  E(vib)   ...       0.28 
freq.     286.11  E(vib)   ...       0.27 
freq.     290.61  E(vib)   ...       0.27 
freq.     291.81  E(vib)   ...       0.27 
freq.     320.10  E(vib)   ...       0.25 
freq.     328.86  E(vib)   ...       0.24 
freq.     378.03  E(vib)   ...       0.21 
freq.     433.95  E(vib)   ...       0.17 
freq.     459.95  E(vib)   ...       0.16 
freq.     481.07  E(vib)   ...       0.15 
freq.     546.32  E(vib)   ...       0.12 
freq.     607.62  E(vib)   ...       0.10 
freq.     616.56  E(vib)   ...       0.09 
freq.     678.41  E(vib)   ...       0.08 
freq.     710.84  E(vib)   ...       0.07 
freq.     748.67  E(vib)   ...       0.06 
freq.     794.92  E(vib)   ...       0.05 
freq.     866.77  E(vib)   ...       0.04 
freq.     908.82  E(vib)   ...       0.03 
freq.     920.68  E(vib)   ...       0.03 
freq.     954.13  E(vib)   ...       0.03 
freq.     954.83  E(vib)   ...       0.03 
freq.     972.66  E(vib)   ...       0.03 
freq.     973.50  E(vib)   ...       0.03 
freq.     985.03  E(vib)   ...       0.02 
freq.    1061.50  E(vib)   ...       0.02 
freq.    1068.77  E(vib)   ...       0.02 
freq.    1083.66  E(vib)   ...       0.02 
freq.    1109.51  E(vib)   ...       0.02 
freq.    1140.38  E(vib)   ...       0.01 
freq.    1161.79  E(vib)   ...       0.01 
freq.    1177.39  E(vib)   ...       0.01 
freq.    1180.31  E(vib)   ...       0.01 
freq.    1209.28  E(vib)   ...       0.01 
freq.    1224.85  E(vib)   ...       0.01 
freq.    1227.15  E(vib)   ...       0.01 
freq.    1254.27  E(vib)   ...       0.01 
freq.    1340.03  E(vib)   ...       0.01 
freq.    1371.16  E(vib)   ...       0.01 
freq.    1371.48  E(vib)   ...       0.01 
freq.    1397.34  E(vib)   ...       0.00 
freq.    1400.69  E(vib)   ...       0.00 
freq.    1425.19  E(vib)   ...       0.00 
freq.    1425.45  E(vib)   ...       0.00 
freq.    1428.89  E(vib)   ...       0.00 
freq.    1441.64  E(vib)   ...       0.00 
freq.    1443.74  E(vib)   ...       0.00 
freq.    1445.79  E(vib)   ...       0.00 
freq.    1475.30  E(vib)   ...       0.00 
freq.    1480.67  E(vib)   ...       0.00 
freq.    1484.83  E(vib)   ...       0.00 
freq.    1489.01  E(vib)   ...       0.00 
freq.    1490.19  E(vib)   ...       0.00 
freq.    1493.12  E(vib)   ...       0.00 
freq.    1495.36  E(vib)   ...       0.00 
freq.    1496.39  E(vib)   ...       0.00 
freq.    1506.28  E(vib)   ...       0.00 
freq.    1506.99  E(vib)   ...       0.00 
freq.    1508.35  E(vib)   ...       0.00 
freq.    1514.97  E(vib)   ...       0.00 
freq.    1516.37  E(vib)   ...       0.00 
freq.    1520.72  E(vib)   ...       0.00 
freq.    1634.32  E(vib)   ...       0.00 
freq.    1711.79  E(vib)   ...       0.00 
freq.    3075.36  E(vib)   ...       0.00 
freq.    3075.43  E(vib)   ...       0.00 
freq.    3077.81  E(vib)   ...       0.00 
freq.    3077.82  E(vib)   ...       0.00 
freq.    3083.36  E(vib)   ...       0.00 
freq.    3084.37  E(vib)   ...       0.00 
freq.    3124.82  E(vib)   ...       0.00 
freq.    3125.55  E(vib)   ...       0.00 
freq.    3150.72  E(vib)   ...       0.00 
freq.    3150.92  E(vib)   ...       0.00 
freq.    3153.94  E(vib)   ...       0.00 
freq.    3153.99  E(vib)   ...       0.00 
freq.    3160.38  E(vib)   ...       0.00 
freq.    3160.59  E(vib)   ...       0.00 
freq.    3170.42  E(vib)   ...       0.00 
freq.    3170.46  E(vib)   ...       0.00 
freq.    3174.70  E(vib)   ...       0.00 
freq.    3174.92  E(vib)   ...       0.00 
freq.    3185.15  E(vib)   ...       0.00 
freq.    3190.89  E(vib)   ...       0.00 
freq.    3319.01  E(vib)   ...       0.00 

------------
INNER ENERGY
------------

The inner energy is: U= E(el) + E(ZPE) + E(vib) + E(rot) + E(trans)
    E(el)   - is the total energy from the electronic structure calculation
              = E(kin-el) + E(nuc-el) + E(el-el) + E(nuc-nuc)
    E(ZPE)  - the the zero temperature vibrational energy from the frequency calculation
    E(vib)  - the the finite temperature correction to E(ZPE) due to population
              of excited vibrational states
    E(rot)  - is the rotational thermal energy
    E(trans)- is the translational thermal energy

Summary of contributions to the inner energy U:
Electronic energy                ...   -541.20505899 Eh
Zero point energy                ...      0.31253423 Eh     196.12 kcal/mol
Thermal vibrational correction   ...      0.01249203 Eh       7.84 kcal/mol
Thermal rotational correction    ...      0.00141627 Eh       0.89 kcal/mol
Thermal translational correction ...      0.00141627 Eh       0.89 kcal/mol
-----------------------------------------------------------------------
Total thermal energy                   -540.87720019 Eh


Summary of corrections to the electronic energy:
(perhaps to be used in another calculation)
Total thermal correction                  0.01532458 Eh       9.62 kcal/mol
Non-thermal (ZPE) correction              0.31253423 Eh     196.12 kcal/mol
-----------------------------------------------------------------------
Total correction                          0.32785880 Eh     205.73 kcal/mol


--------
ENTHALPY
--------

The enthalpy is H = U + kB*T
                kB is Boltzmann's constant
Total free energy                 ...   -540.87720019 Eh 
Thermal Enthalpy correction       ...      0.00094421 Eh       0.59 kcal/mol
-----------------------------------------------------------------------
Total Enthalpy                    ...   -540.87625598 Eh


Note: Only C1 symmetry has been detected, increase convergence thresholds 
      if your molecule has a higher symmetry. Symmetry factor of 1.0 is   
      used for the rotational entropy correction. 
 

Note: Rotational entropy computed according to Herzberg 
Infrared and Raman Spectra, Chapter V,1, Van Nostrand Reinhold, 1945 
Point Group:  C1, Symmetry Number:   1  
Rotational constants in cm-1:     0.036746     0.019212     0.014631 

Vibrational entropy computed according to the QRRHO of S. Grimme
Chem.Eur.J. 2012 18 9955


-------
ENTROPY
-------

The entropy contributions are T*S = T*(S(el)+S(vib)+S(rot)+S(trans))
     S(el)   - electronic entropy
     S(vib)  - vibrational entropy
     S(rot)  - rotational entropy
     S(trans)- translational entropy
The entropies will be listed as multiplied by the temperature to get
units of energy

Electronic entropy                ...      0.00000000 Eh      0.00 kcal/mol
Vibrational entropy               ...      0.02172062 Eh     13.63 kcal/mol
Rotational entropy                ...      0.01493067 Eh      9.37 kcal/mol
Translational entropy             ...      0.01971392 Eh     12.37 kcal/mol
-----------------------------------------------------------------------
Final entropy term                ...      0.05636521 Eh     35.37 kcal/mol

In case the symmetry of your molecule has not been determined correctly
or in case you have a reason to use a different symmetry number we print 
out the resulting rotational entropy values for sn=1,12 :
 --------------------------------------------------------
|  sn= 1 | S(rot)=       0.01493067 Eh      9.37 kcal/mol|
|  sn= 2 | S(rot)=       0.01427621 Eh      8.96 kcal/mol|
|  sn= 3 | S(rot)=       0.01389338 Eh      8.72 kcal/mol|
|  sn= 4 | S(rot)=       0.01362175 Eh      8.55 kcal/mol|
|  sn= 5 | S(rot)=       0.01341107 Eh      8.42 kcal/mol|
|  sn= 6 | S(rot)=       0.01323892 Eh      8.31 kcal/mol|
|  sn= 7 | S(rot)=       0.01309338 Eh      8.22 kcal/mol|
|  sn= 8 | S(rot)=       0.01296730 Eh      8.14 kcal/mol|
|  sn= 9 | S(rot)=       0.01285609 Eh      8.07 kcal/mol|
|  sn=10 | S(rot)=       0.01275661 Eh      8.00 kcal/mol|
|  sn=11 | S(rot)=       0.01266662 Eh      7.95 kcal/mol|
|  sn=12 | S(rot)=       0.01258447 Eh      7.90 kcal/mol|
 --------------------------------------------------------


-------------------
GIBBS FREE ENERGY
-------------------

The Gibbs free energy is G = H - T*S

Total enthalpy                    ...   -540.87625598 Eh 
Total entropy correction          ...     -0.05636521 Eh    -35.37 kcal/mol
-----------------------------------------------------------------------
Final Gibbs free energy         ...   -540.93262119 Eh

For completeness - the Gibbs free energy minus the electronic energy
G-E(el)                           ...      0.27243780 Eh    170.96 kcal/mol


Timings for individual modules:

Sum of individual times         ...     4595.370 sec (=  76.590 min)
GTO integral calculation        ...        5.728 sec (=   0.095 min)   0.1 %
SCF iterations                  ...     1205.424 sec (=  20.090 min)  26.2 %
SCF Gradient evaluation         ...      318.594 sec (=   5.310 min)   6.9 %
Geometry relaxation             ...        0.724 sec (=   0.012 min)   0.0 %
Analytical frequency calculation...     3064.901 sec (=  51.082 min)  66.7 %
                             ****ORCA TERMINATED NORMALLY****
TOTAL RUN TIME: 0 days 1 hours 16 minutes 38 seconds 124 msec
