
                                 *****************
                                 * O   R   C   A *
                                 *****************

                                            #,                                       
                                            ###                                      
                                            ####                                     
                                            #####                                    
                                            ######                                   
                                           ########,                                 
                                     ,,################,,,,,                         
                               ,,#################################,,                 
                          ,,##########################################,,             
                       ,#########################################, ''#####,          
                    ,#############################################,,   '####,        
                  ,##################################################,,,,####,       
                ,###########''''           ''''###############################       
              ,#####''   ,,,,##########,,,,          '''####'''          '####       
            ,##' ,,,,###########################,,,                        '##       
           ' ,,###''''                  '''############,,,                           
         ,,##''                                '''############,,,,        ,,,,,,###''
      ,#''                                            '''#######################'''  
     '                                                          ''''####''''         
             ,#######,   #######,   ,#######,      ##                                
            ,#'     '#,  ##    ##  ,#'     '#,    #''#        ######   ,####,        
            ##       ##  ##   ,#'  ##            #'  '#       #        #'  '#        
            ##       ##  #######   ##           ,######,      #####,   #    #        
            '#,     ,#'  ##    ##  '#,     ,#' ,#      #,         ##   #,  ,#        
             '#######'   ##     ##  '#######'  #'      '#     #####' # '####'        



                  #######################################################
                  #                        -***-                        #
                  #          Department of theory and spectroscopy      #
                  #    Directorship and core code : Frank Neese         #
                  #        Max Planck Institute fuer Kohlenforschung    #
                  #                Kaiser Wilhelm Platz 1               #
                  #                 D-45470 Muelheim/Ruhr               #
                  #                      Germany                        #
                  #                                                     #
                  #                  All rights reserved                #
                  #                        -***-                        #
                  #######################################################


                         Program Version 5.0.3 -  RELEASE  -


 With contributions from (in alphabetic order):
   Daniel Aravena         : Magnetic Suceptibility
   Michael Atanasov       : Ab Initio Ligand Field Theory (pilot matlab implementation)
   Alexander A. Auer      : GIAO ZORA, VPT2 properties, NMR spectrum
   Ute Becker             : Parallelization
   Giovanni Bistoni       : ED, misc. LED, open-shell LED, HFLD
   Martin Brehm           : Molecular dynamics
   Dmytro Bykov           : SCF Hessian
   Vijay G. Chilkuri      : MRCI spin determinant printing, contributions to CSF-ICE
   Dipayan Datta          : RHF DLPNO-CCSD density
   Achintya Kumar Dutta   : EOM-CC, STEOM-CC
   Dmitry Ganyushin       : Spin-Orbit,Spin-Spin,Magnetic field MRCI
   Miquel Garcia          : C-PCM and meta-GGA Hessian, CC/C-PCM, Gaussian charge scheme
   Yang Guo               : DLPNO-NEVPT2, F12-NEVPT2, CIM, IAO-localization
   Andreas Hansen         : Spin unrestricted coupled pair/coupled cluster methods
   Benjamin Helmich-Paris : MC-RPA, TRAH-SCF, COSX integrals
   Lee Huntington         : MR-EOM, pCC
   Robert Izsak           : Overlap fitted RIJCOSX, COSX-SCS-MP3, EOM
   Marcus Kettner         : VPT2
   Christian Kollmar      : KDIIS, OOCD, Brueckner-CCSD(T), CCSD density, CASPT2, CASPT2-K
   Simone Kossmann        : Meta GGA functionals, TD-DFT gradient, OOMP2, MP2 Hessian
   Martin Krupicka        : Initial AUTO-CI
   Lucas Lang             : DCDCAS
   Marvin Lechner         : AUTO-CI (C++ implementation), FIC-MRCC
   Dagmar Lenk            : GEPOL surface, SMD
   Dimitrios Liakos       : Extrapolation schemes; Compound Job, initial MDCI parallelization
   Dimitrios Manganas     : Further ROCIS development; embedding schemes
   Dimitrios Pantazis     : SARC Basis sets
   Anastasios Papadopoulos: AUTO-CI, single reference methods and gradients
   Taras Petrenko         : DFT Hessian,TD-DFT gradient, ASA, ECA, R-Raman, ABS, FL, XAS/XES, NRVS
   Peter Pinski           : DLPNO-MP2, DLPNO-MP2 Gradient
   Christoph Reimann      : Effective Core Potentials
   Marius Retegan         : Local ZFS, SOC
   Christoph Riplinger    : Optimizer, TS searches, QM/MM, DLPNO-CCSD(T), (RO)-DLPNO pert. Triples
   Tobias Risthaus        : Range-separated hybrids, TD-DFT gradient, RPA, STAB
   Michael Roemelt        : Original ROCIS implementation
   Masaaki Saitow         : Open-shell DLPNO-CCSD energy and density
   Barbara Sandhoefer     : DKH picture change effects
   Avijit Sen             : IP-ROCIS
   Kantharuban Sivalingam : CASSCF convergence, NEVPT2, FIC-MRCI
   Bernardo de Souza      : ESD, SOC TD-DFT
   Georgi Stoychev        : AutoAux, RI-MP2 NMR, DLPNO-MP2 response
   Willem Van den Heuvel  : Paramagnetic NMR
   Boris Wezisla          : Elementary symmetry handling
   Frank Wennmohs         : Technical directorship


 We gratefully acknowledge several colleagues who have allowed us to
 interface, adapt or use parts of their codes:
   Stefan Grimme, W. Hujo, H. Kruse, P. Pracht,  : VdW corrections, initial TS optimization,
                  C. Bannwarth, S. Ehlert          DFT functionals, gCP, sTDA/sTD-DF
   Ed Valeev, F. Pavosevic, A. Kumar             : LibInt (2-el integral package), F12 methods
   Garnet Chan, S. Sharma, J. Yang, R. Olivares  : DMRG
   Ulf Ekstrom                                   : XCFun DFT Library
   Mihaly Kallay                                 : mrcc  (arbitrary order and MRCC methods)
   Jiri Pittner, Ondrej Demel                    : Mk-CCSD
   Frank Weinhold                                : gennbo (NPA and NBO analysis)
   Christopher J. Cramer and Donald G. Truhlar   : smd solvation model
   Lars Goerigk                                  : TD-DFT with DH, B97 family of functionals
   V. Asgeirsson, H. Jonsson                     : NEB implementation
   FAccTs GmbH                                   : IRC, NEB, NEB-TS, DLPNO-Multilevel, CI-OPT
                                                   MM, QMMM, 2- and 3-layer-ONIOM, Crystal-QMMM,
                                                   LR-CPCM, SF, NACMEs, symmetry and pop. for TD-DFT,
                                                   nearIR, NL-DFT gradient (VV10), updates on ESD,
                                                   ML-optimized integration grids
   S Lehtola, MJT Oliveira, MAL Marques          : LibXC Library
   Liviu Ungur et al                             : ANISO software


 Your calculation uses the libint2 library for the computation of 2-el integrals
 For citations please refer to: http://libint.valeyev.net

 Your ORCA version has been built with support for libXC version: 5.1.0
 For citations please refer to: https://tddft.org/programs/libxc/

 This ORCA versions uses:
   CBLAS   interface :  Fast vector & matrix operations
   LAPACKE interface :  Fast linear algebra routines
   SCALAPACK package :  Parallel linear algebra routines
   Shared memory     :  Shared parallel matrices
   BLAS/LAPACK       :  OpenBLAS 0.3.15  USE64BITINT DYNAMIC_ARCH NO_AFFINITY SkylakeX SINGLE_THREADED
        Core in use  :  SkylakeX
   Copyright (c) 2011-2014, The OpenBLAS Project




***************************************
The coordinates will be read from file: MeCl.xyz
***************************************


Your calculation utilizes the atom-pairwise dispersion correction
based on tight binding partial charges (D4)
Cite in your paper:
E.Caldeweyher, C.Bannwarth, S.Grimme, J.Chem.Phys., (2017), 147, 034112.
E.Caldeweyher, S.Ehlert, A.Hansen, H.Neugebauer, S.Grimme, J.Chem.Phys., (2018), in progress.
   

XCFun DFT library Copyright 2009-2010 Ulf Ekstrom and contributors.
See http://admol.org/xcfun for more information.
This is free software; see the source code for copying conditions.
There is ABSOLUTELY NO WARRANTY; not even for MERCHANTABILITY or FITNESS FOR A PARTICULAR PURPOSE.
For details see the documentation.
Scientific users of this library should cite U. Ekstrom, L. Visscher, R. Bast, A. J. Thorvaldsen and K. Ruud;
J.Chem.Theor.Comp. 2010, DOI: 10.1021/ct100117s
XCFun Version 0.99 

================================================================================

----- Orbital basis set information -----
Your calculation utilizes the basis: def2-SVP
   F. Weigend and R. Ahlrichs, Phys. Chem. Chem. Phys. 7, 3297 (2005).

----- AuxJ basis set information -----
Your calculation utilizes the auxiliary basis: def2/J
   F. Weigend, Phys. Chem. Chem. Phys. 8, 1057 (2006).

================================================================================
                                        WARNINGS
                       Please study these warnings very carefully!
================================================================================


WARNING: Geometry Optimization
  ===> : Switching off AutoStart
         For restart on a previous wavefunction, please use MOREAD

INFO   : the flag for use of the SHARK integral package has been found!

================================================================================
                                       INPUT FILE
================================================================================
NAME = MeCl_Water.inp
|  1> # ORCAForces - ../2023_02/pKa_prediction/Yates_carbene_xyzs/Our_level/Uncharged/Water/2/MeCl_Water.inp
|  2> # Basic Mode
|  3> #
|  4> ! Opt FREQ wB97X D4 Def2-SVP SlowConv TightSCF DEFGRID2 Def2/J RIJCOSX CPCM(Water)
|  5> 
|  6> %maxcore 4500
|  7> 
|  8> %PAL NPROCS 4 END
|  9> 
| 10> %geom 
| 11> Maxiter 150
| 12> END
| 13> 
| 14> * xyzfile 0 1 MeCl.xyz
| 15> 
| 16>                          ****END OF INPUT****
================================================================================

                       *****************************
                       * Geometry Optimization Run *
                       *****************************

Geometry optimization settings:
Update method            Update   .... BFGS
Choice of coordinates    CoordSys .... Z-matrix Internals
Initial Hessian          InHess   .... Almoef's Model

Convergence Tolerances:
Energy Change            TolE     ....  5.0000e-06 Eh
Max. Gradient            TolMAXG  ....  3.0000e-04 Eh/bohr
RMS Gradient             TolRMSG  ....  1.0000e-04 Eh/bohr
Max. Displacement        TolMAXD  ....  4.0000e-03 bohr
RMS Displacement         TolRMSD  ....  2.0000e-03 bohr
Strict Convergence                ....  False
------------------------------------------------------------------------------
                        ORCA OPTIMIZATION COORDINATE SETUP
------------------------------------------------------------------------------

The optimization will be done in new redundant internal coordinates
Making redundant internal coordinates   ...  (new redundants) done
Evaluating the initial hessian          ...  (Almloef) done
Evaluating the coordinates              ...  done
Calculating the B-matrix                .... done
Calculating the G-matrix                .... done
Diagonalizing the G-matrix              .... done
The first mode is                       ....   29
The number of degrees of freedom        ....   39

    -----------------------------------------------------------------
                    Redundant Internal Coordinates


    -----------------------------------------------------------------
         Definition                    Initial Value    Approx d2E/dq
    -----------------------------------------------------------------
      1. B(C   2,N   0)                  1.3864         0.566997   
      2. B(C   3,C   2)                  1.3586         0.701060   
      3. B(C   3,N   1)                  1.3864         0.566997   
      4. B(C   4,N   1)                  1.3683         0.605922   
      5. B(C   4,N   0)                  1.3683         0.605922   
      6. B(Cl  5,C   2)                  1.7183         0.419744   
      7. B(Cl  6,C   3)                  1.7183         0.419744   
      8. B(C   7,N   0)                  1.4560         0.439049   
      9. B(C   8,N   1)                  1.4560         0.439049   
     10. B(H   9,C   7)                  1.0873         0.363629   
     11. B(H  10,C   8)                  1.0873         0.363629   
     12. B(H  11,C   7)                  1.0921         0.357374   
     13. B(H  12,C   8)                  1.0921         0.357374   
     14. B(H  13,C   8)                  1.0921         0.357374   
     15. B(H  14,C   7)                  1.0921         0.357374   
     16. A(C   4,N   0,C   7)          122.8703         0.401280   
     17. A(C   2,N   0,C   4)          112.1285         0.419890   
     18. A(C   2,N   0,C   7)          125.0012         0.396622   
     19. A(C   4,N   1,C   8)          122.8703         0.401280   
     20. A(C   3,N   1,C   4)          112.1285         0.419890   
     21. A(C   3,N   1,C   8)          125.0012         0.396622   
     22. A(C   3,C   2,Cl  5)          129.1030         0.432553   
     23. A(N   0,C   2,Cl  5)          124.5052         0.413745   
     24. A(N   0,C   2,C   3)          106.3918         0.433832   
     25. A(C   2,C   3,Cl  6)          129.1030         0.432553   
     26. A(N   1,C   3,C   2)          106.3918         0.433832   
     27. A(N   1,C   3,Cl  6)          124.5052         0.413745   
     28. A(N   0,C   4,N   1)          102.9594         0.424900   
     29. A(N   0,C   7,H   9)          106.6024         0.331606   
     30. A(H  11,C   7,H  14)          109.0436         0.290146   
     31. A(H   9,C   7,H  14)          109.8030         0.290938   
     32. A(N   0,C   7,H  14)          110.7815         0.330655   
     33. A(H   9,C   7,H  11)          109.8030         0.290938   
     34. A(N   0,C   7,H  11)          110.7815         0.330655   
     35. A(N   1,C   8,H  10)          106.6024         0.331606   
     36. A(H  12,C   8,H  13)          109.0436         0.290146   
     37. A(H  10,C   8,H  13)          109.8030         0.290938   
     38. A(N   1,C   8,H  13)          110.7815         0.330655   
     39. A(H  10,C   8,H  12)          109.8030         0.290938   
     40. A(N   1,C   8,H  12)          110.7815         0.330655   
     41. D(Cl  5,C   2,N   0,C   4)    180.0000         0.025712   
     42. D(Cl  5,C   2,N   0,C   7)      0.0000         0.025712   
     43. D(C   3,C   2,N   0,C   7)    180.0000         0.025712   
     44. D(C   3,C   2,N   0,C   4)      0.0000         0.025712   
     45. D(Cl  6,C   3,N   1,C   4)    180.0000         0.025712   
     46. D(C   2,C   3,N   1,C   8)    180.0000         0.025712   
     47. D(Cl  6,C   3,C   2,Cl  5)      0.0000         0.034624   
     48. D(N   1,C   3,C   2,Cl  5)    180.0000         0.034624   
     49. D(Cl  6,C   3,C   2,N   0)    180.0000         0.034624   
     50. D(C   2,C   3,N   1,C   4)      0.0000         0.025712   
     51. D(N   1,C   3,C   2,N   0)      0.0000         0.034624   
     52. D(Cl  6,C   3,N   1,C   8)      0.0000         0.025712   
     53. D(N   0,C   4,N   1,C   3)      0.0000         0.026850   
     54. D(N   1,C   4,N   0,C   7)    180.0000         0.026850   
     55. D(N   1,C   4,N   0,C   2)      0.0000         0.026850   
     56. D(N   0,C   4,N   1,C   8)    180.0000         0.026850   
     57. D(H  14,C   7,N   0,C   4)    119.4245         0.016437   
     58. D(H  14,C   7,N   0,C   2)    -60.5755         0.016437   
     59. D(H  11,C   7,N   0,C   4)   -119.4245         0.016437   
     60. D(H  11,C   7,N   0,C   2)     60.5755         0.016437   
     61. D(H   9,C   7,N   0,C   4)      0.0000         0.016437   
     62. D(H   9,C   7,N   0,C   2)    180.0000         0.016437   
     63. D(H  13,C   8,N   1,C   4)   -119.4245         0.016437   
     64. D(H  13,C   8,N   1,C   3)     60.5755         0.016437   
     65. D(H  12,C   8,N   1,C   4)    119.4245         0.016437   
     66. D(H  12,C   8,N   1,C   3)    -60.5755         0.016437   
     67. D(H  10,C   8,N   1,C   4)      0.0000         0.016437   
     68. D(H  10,C   8,N   1,C   3)    180.0000         0.016437   
    -----------------------------------------------------------------

Number of atoms                         .... 15
Number of degrees of freedom            .... 68

         *************************************************************
         *                GEOMETRY OPTIMIZATION CYCLE   1            *
         *************************************************************
---------------------------------
CARTESIAN COORDINATES (ANGSTROEM)
---------------------------------
  N      0.000000    1.070580    1.098524
  N      0.000000   -1.070580    1.098524
  C      0.000000    0.679325   -0.231548
  C      0.000000   -0.679325   -0.231548
  C      0.000000    0.000000    1.950721
  Cl     0.000000    1.763072   -1.564957
  Cl     0.000000   -1.763072   -1.564957
  C      0.000000    2.450493    1.563167
  C      0.000000   -2.450493    1.563167
  H      0.000000    2.412414    2.649845
  H      0.000000   -2.412414    2.649845
  H     -0.889311    2.977775    1.211438
  H     -0.889311   -2.977775    1.211438
  H      0.889311   -2.977775    1.211438
  H      0.889311    2.977775    1.211438

----------------------------
CARTESIAN COORDINATES (A.U.)
----------------------------
  NO LB      ZA    FRAG     MASS         X           Y           Z
   0 N     7.0000    0    14.007    0.000000    2.023103    2.075910
   1 N     7.0000    0    14.007    0.000000   -2.023103    2.075910
   2 C     6.0000    0    12.011    0.000000    1.283738   -0.437562
   3 C     6.0000    0    12.011    0.000000   -1.283738   -0.437562
   4 C     6.0000    0    12.011    0.000000    0.000000    3.686328
   5 Cl   17.0000    0    35.453    0.000000    3.331723   -2.957340
   6 Cl   17.0000    0    35.453    0.000000   -3.331723   -2.957340
   7 C     6.0000    0    12.011    0.000000    4.630761    2.953958
   8 C     6.0000    0    12.011    0.000000   -4.630761    2.953958
   9 H     1.0000    0     1.008    0.000000    4.558802    5.007481
  10 H     1.0000    0     1.008    0.000000   -4.558802    5.007481
  11 H     1.0000    0     1.008   -1.680554    5.627179    2.289286
  12 H     1.0000    0     1.008   -1.680554   -5.627179    2.289286
  13 H     1.0000    0     1.008    1.680554   -5.627179    2.289286
  14 H     1.0000    0     1.008    1.680554    5.627179    2.289286

--------------------------------
INTERNAL COORDINATES (ANGSTROEM)
--------------------------------
 N      0   0   0     0.000000000000     0.00000000     0.00000000
 N      1   0   0     2.141160000000     0.00000000     0.00000000
 C      1   2   0     1.386424177591    73.60818579     0.00000000
 C      3   1   2     1.358650000000   106.39181421     0.00000000
 C      1   2   3     1.368349832173    38.52029141   180.00000000
 Cl     3   1   2     1.718280280190   124.50521251   180.00000085
 Cl     4   3   1     1.718280280190   129.10297329   180.00000000
 C      1   2   3     1.456040179740   161.39064011   180.00000085
 C      2   1   3     1.456040179740   161.39064011   180.00000085
 H      8   1   2     1.087344970984   106.60244189     0.00000000
 H      9   2   1     1.087344970984   106.60244189     0.00000000
 H      8   1   2     1.092068519685   110.78153168   240.57548463
 H      9   2   1     1.092068519685   110.78153168   119.42451537
 H      9   2   1     1.092068519685   110.78153168   240.57548463
 H      8   1   2     1.092068519685   110.78153168   119.42451537

---------------------------
INTERNAL COORDINATES (A.U.)
---------------------------
 N      0   0   0     0.000000000000     0.00000000     0.00000000
 N      1   0   0     4.046206008907     0.00000000     0.00000000
 C      1   2   0     2.619962001094    73.60818579     0.00000000
 C      3   1   2     2.567476411852   106.39181421     0.00000000
 C      1   2   3     2.585806438205    38.52029141   180.00000000
 Cl     3   1   2     3.247079150877   124.50521251   180.00000085
 Cl     4   3   1     3.247079150877   129.10297329   180.00000000
 C      1   2   3     2.751517179695   161.39064011   180.00000085
 C      2   1   3     2.751517179695   161.39064011   180.00000085
 H      8   1   2     2.054784208257   106.60244189     0.00000000
 H      9   2   1     2.054784208257   106.60244189     0.00000000
 H      8   1   2     2.063710421681   110.78153168   240.57548463
 H      9   2   1     2.063710421681   110.78153168   119.42451537
 H      9   2   1     2.063710421681   110.78153168   240.57548463
 H      8   1   2     2.063710421681   110.78153168   119.42451537

---------------------
BASIS SET INFORMATION
---------------------
There are 4 groups of distinct atoms

 Group   1 Type N   : 7s4p1d contracted to 3s2p1d pattern {511/31/1}
 Group   2 Type C   : 7s4p1d contracted to 3s2p1d pattern {511/31/1}
 Group   3 Type Cl  : 10s7p1d contracted to 4s3p1d pattern {5311/511/1}
 Group   4 Type H   : 4s1p contracted to 2s1p pattern {31/1}

Atom   0N    basis set group =>   1
Atom   1N    basis set group =>   1
Atom   2C    basis set group =>   2
Atom   3C    basis set group =>   2
Atom   4C    basis set group =>   2
Atom   5Cl   basis set group =>   3
Atom   6Cl   basis set group =>   3
Atom   7C    basis set group =>   2
Atom   8C    basis set group =>   2
Atom   9H    basis set group =>   4
Atom  10H    basis set group =>   4
Atom  11H    basis set group =>   4
Atom  12H    basis set group =>   4
Atom  13H    basis set group =>   4
Atom  14H    basis set group =>   4
---------------------------------
AUXILIARY/J BASIS SET INFORMATION
---------------------------------
There are 4 groups of distinct atoms

 Group   1 Type N   : 12s5p4d2f1g contracted to 6s4p3d1f1g pattern {711111/2111/211/2/1}
 Group   2 Type C   : 12s5p4d2f1g contracted to 6s4p3d1f1g pattern {711111/2111/211/2/1}
 Group   3 Type Cl  : 14s5p5d2f1g contracted to 8s4p3d1f1g pattern {71111111/2111/311/2/1}
 Group   4 Type H   : 5s2p1d contracted to 3s1p1d pattern {311/2/1}

Atom   0N    basis set group =>   1
Atom   1N    basis set group =>   1
Atom   2C    basis set group =>   2
Atom   3C    basis set group =>   2
Atom   4C    basis set group =>   2
Atom   5Cl   basis set group =>   3
Atom   6Cl   basis set group =>   3
Atom   7C    basis set group =>   2
Atom   8C    basis set group =>   2
Atom   9H    basis set group =>   4
Atom  10H    basis set group =>   4
Atom  11H    basis set group =>   4
Atom  12H    basis set group =>   4
Atom  13H    basis set group =>   4
Atom  14H    basis set group =>   4


           ************************************************************
           *        Program running with 4 parallel MPI-processes     *
           *              working on a common directory               *
           ************************************************************
------------------------------------------------------------------------------
                           ORCA GTO INTEGRAL CALCULATION
                           -- RI-GTO INTEGRALS CHOSEN --
------------------------------------------------------------------------------
------------------------------------------------------------------------------
                   ___                                                        
                  /   \      - P O W E R E D   B Y -                         
                 /     \                                                     
                 |  |  |   _    _      __       _____    __    __             
                 |  |  |  | |  | |    /  \     |  _  \  |  |  /  |          
                  \  \/   | |  | |   /    \    | | | |  |  | /  /          
                 / \  \   | |__| |  /  /\  \   | |_| |  |  |/  /          
                |  |  |   |  __  | /  /__\  \  |    /   |      \           
                |  |  |   | |  | | |   __   |  |    \   |  |\   \          
                \     /   | |  | | |  |  |  |  | |\  \  |  | \   \       
                 \___/    |_|  |_| |__|  |__|  |_| \__\ |__|  \__/        
                                                                              
                      - O R C A' S   B I G   F R I E N D -                    
                                      &                                       
                       - I N T E G R A L  F E E D E R -                       
                                                                              
 v1 FN, 2020, v2 2021                                                         
------------------------------------------------------------------------------


Reading SHARK input file MeCl_Water.SHARKINP.tmp ... ok
----------------------
SHARK INTEGRAL PACKAGE
----------------------

Number of atoms                             ...     15
Number of basis functions                   ...    164
Number of shells                            ...     76
Maximum angular momentum                    ...      2
Integral batch strategy                     ... SHARK/LIBINT Hybrid
RI-J (if used) integral strategy            ... SPLIT-RIJ (Revised 2003 algorithm where possible)
Printlevel                                  ...      1
Contraction scheme used                     ... SEGMENTED contraction
Coulomb Range Separation                    ... NOT USED
Exchange Range Separation                   ... Long Range
   Mu parameter                             ...  0.300000
   Scaling (regular/separated)              ...  0.157706  0.842294
Finite Nucleus Model                        ... NOT USED
Auxiliary Coulomb fitting basis             ... AVAILABLE
   # of basis functions in Aux-J            ...    511
   # of shells in Aux-J                     ...    169
   Maximum angular momentum in Aux-J        ...      4
Auxiliary J/K fitting basis                 ... NOT available
Auxiliary Correlation fitting basis         ... NOT available
Auxiliary 'external' fitting basis          ... NOT available
Integral threshold                          ...     2.500000e-11
Primitive cut-off                           ...     2.500000e-12
Primitive pair pre-selection threshold      ...     2.500000e-12

Calculating pre-screening integrals         ... done (  0.0 sec) Dimension = 76
Organizing shell pair data                  ... done (  0.0 sec)
Shell pair information
Total number of shell pairs                 ...      2926
Shell pairs after pre-screening             ...      2639
Total number of primitive shell pairs       ...     11480
Primitive shell pairs kept                  ...      7285
          la=0 lb=0:    781 shell pairs
          la=1 lb=0:    950 shell pairs
          la=1 lb=1:    317 shell pairs
          la=2 lb=0:    335 shell pairs
          la=2 lb=1:    214 shell pairs
          la=2 lb=2:     42 shell pairs

Calculating one electron integrals          ... done (  0.0 sec)
Calculating RI/J V-Matrix + Cholesky decomp.... done (  0.0 sec)
Calculating Nuclear repulsion               ... done (  0.0 sec) ENN=    602.821895816992 Eh

SHARK setup successfully completed in   0.2 seconds

Maximum memory used throughout the entire GTOINT-calculation: 11.4 MB


           ************************************************************
           *        Program running with 4 parallel MPI-processes     *
           *              working on a common directory               *
           ************************************************************
-------------------------------------------------------------------------------
                                 ORCA SCF
-------------------------------------------------------------------------------

------------
SCF SETTINGS
------------
Hamiltonian:
 Density Functional     Method          .... DFT(GTOs)
 Exchange Functional    Exchange        .... WB97X
 Correlation Functional Correlation     .... WB97X
 Gradients option       PostSCFGGA      .... off
 Hybrid DFT is turned on
   Fraction HF Exchange ScalHFX         ....  0.157706
   Scaling of DF-GGA-X  ScalDFX         ....  0.000000
   Scaling of DF-GGA-C  ScalDFC         ....  1.000000
   Scaling of DF-LDA-C  ScalLDAC        ....  1.000000
   Perturbative correction              ....  0.000000
   Density functional embedding theory  .... OFF
 Long-range corrected/Screened/Range-Separated Hybrid DFT is turned on
   Amount of maximum screened exact exchange              ....  0.842294
   Range separation parameter mu (erf(mu*r12)/r12)        ....  0.300000
 RI-approximation to the Coulomb term is turned on
   Number of AuxJ basis functions       .... 511
   RIJ-COSX (HFX calculated with COS-X)).... on


General Settings:
 Integral files         IntName         .... MeCl_Water
 Hartree-Fock type      HFTyp           .... RHF
 Total Charge           Charge          ....    0
 Multiplicity           Mult            ....    1
 Number of Electrons    NEL             ....   84
 Basis Dimension        Dim             ....  164
 Nuclear Repulsion      ENuc            ....    602.8218958170 Eh

Convergence Acceleration:
 DIIS                   CNVDIIS         .... on
   Start iteration      DIISMaxIt       ....     0
   Startup error        DIISStart       ....  0.200000
   # of expansion vecs  DIISMaxEq       ....     5
   Bias factor          DIISBfac        ....   1.050
   Max. coefficient     DIISMaxC        ....  10.000
 Trust-Rad. Augm. Hess. CNVTRAH         .... auto
   Auto Start mean grad. ratio tolernc. ....  1.125000
   Auto Start start iteration           ....    20
   Auto Start num. interpolation iter.  ....    10
   Max. Number of Micro iterations      ....    16
   Max. Number of Macro iterations      .... Maxiter - #DIIS iter
   Number of Davidson start vectors     ....     2
   Converg. threshold I  (grad. norm)   ....   1.000e-05
   Converg. threshold II (energy diff.) ....   1.000e-08
   Grad. Scal. Fac. for Micro threshold ....   0.100
   Minimum threshold for Micro iter.    ....   0.010
   NR start threshold (gradient norm)   ....   0.001
   Initial trust radius                 ....   0.400
   Minimum AH scaling param. (alpha)    ....   1.000
   Maximum AH scaling param. (alpha)    .... 1000.000
   Orbital update algorithm             .... Taylor
   White noise on init. David. guess    .... on
   Maximum white noise                  ....   0.010
   Quad. conv. algorithm                .... NR
 SOSCF                  CNVSOSCF        .... on
   Start iteration      SOSCFMaxIt      ....   150
   Startup grad/error   SOSCFStart      ....  0.001000
 Level Shifting         CNVShift        .... on
   Level shift para.    LevelShift      ....    0.2500
   Turn off err/grad.   ShiftErr        ....    0.0000
 Zerner damping         CNVZerner       .... off
 Static damping         CNVDamp         .... on
   Fraction old density DampFac         ....    0.8500
   Max. Damping (<1)    DampMax         ....    0.9800
   Min. Damping (>=0)   DampMin         ....    0.0000
   Turn off err/grad.   DampErr         ....    0.0300
 Fernandez-Rico         CNVRico         .... off

SCF Procedure:
 Maximum # iterations   MaxIter         ....   125
 SCF integral mode      SCFMode         .... Direct
   Integral package                     .... SHARK and LIBINT hybrid scheme
 Reset frequency        DirectResetFreq ....    20
 Integral Threshold     Thresh          ....  2.500e-11 Eh
 Primitive CutOff       TCut            ....  2.500e-12 Eh

Convergence Tolerance:
 Convergence Check Mode ConvCheckMode   .... Total+1el-Energy
 Convergence forced     ConvForced      .... 0
 Energy Change          TolE            ....  1.000e-08 Eh
 1-El. energy change                    ....  1.000e-05 Eh
 Orbital Gradient       TolG            ....  1.000e-05
 Orbital Rotation angle TolX            ....  1.000e-05
 DIIS Error             TolErr          ....  5.000e-07


Diagonalization of the overlap matrix:
Smallest eigenvalue                        ... 9.156e-04
Time for diagonalization                   ...    0.005 sec
Threshold for overlap eigenvalues          ... 1.000e-08
Number of eigenvalues below threshold      ... 0
Time for construction of square roots      ...    0.003 sec
Total time needed                          ...    0.009 sec

Time for model grid setup =    0.217 sec

------------------------------
INITIAL GUESS: MODEL POTENTIAL
------------------------------
Loading Hartree-Fock densities                     ... done
Calculating cut-offs                               ... done
Initializing the effective Hamiltonian             ... done
Setting up the integral package (SHARK)            ... done
Starting the Coulomb interaction                   ... done (   0.0 sec)
Reading the grid                                   ... done
Mapping shells                                     ... done
Starting the XC term evaluation                    ... done (   0.1 sec)
  promolecular density results
     # of electrons  =     83.995337858
     EX              =    -95.231396065
     EC              =     -3.019488490
     EX+EC           =    -98.250884554
Transforming the Hamiltonian                       ... done (   0.0 sec)
Diagonalizing the Hamiltonian                      ... done (   0.0 sec)
Back transforming the eigenvectors                 ... done (   0.0 sec)
Now organizing SCF variables                       ... done
                      ------------------
                      INITIAL GUESS DONE (   0.4 sec)
                      ------------------
-------------------
DFT GRID GENERATION
-------------------

General Integration Accuracy     IntAcc      ... 4.388
Radial Grid Type                 RadialGrid  ... OptM3 with GC (2021)
Angular Grid (max. ang.)         AngularGrid ... 4 (Lebedev-302)
Angular grid pruning method      GridPruning ... 4 (adaptive)
Weight generation scheme         WeightScheme... Becke
Basis function cutoff            BFCut       ... 1.0000e-11
Integration weight cutoff        WCut        ... 1.0000e-14
Angular grids for H and He will be reduced by one unit
Partially contracted basis set               ... off
Rotationally invariant grid construction     ... off

Total number of grid points                  ...    76127
Total number of batches                      ...     1196
Average number of points per batch           ...       63
Average number of grid points per atom       ...     5075
Time for grid setup =    0.467 sec

--------------------
COSX GRID GENERATION
--------------------

GRIDX 1
-------
General Integration Accuracy     IntAcc      ... 3.816
Radial Grid Type                 RadialGrid  ... OptM3 with GC (2021)
Angular Grid (max. ang.)         AngularGrid ... 1 (Lebedev-50)
Angular grid pruning method      GridPruning ... 4 (adaptive)
Weight generation scheme         WeightScheme... Becke
Basis function cutoff            BFCut       ... 1.0000e-11
Integration weight cutoff        WCut        ... 1.0000e-14
Angular grids for H and He will be reduced by one unit
Partially contracted basis set               ... on
Rotationally invariant grid construction     ... off

Total number of grid points                  ...     9535
Total number of batches                      ...      158
Average number of points per batch           ...       60
Average number of grid points per atom       ...      636
UseSFitting                                  ... on

GRIDX 2
-------
General Integration Accuracy     IntAcc      ... 4.020
Radial Grid Type                 RadialGrid  ... OptM3 with GC (2021)
Angular Grid (max. ang.)         AngularGrid ... 2 (Lebedev-110)
Angular grid pruning method      GridPruning ... 4 (adaptive)
Weight generation scheme         WeightScheme... Becke
Basis function cutoff            BFCut       ... 1.0000e-11
Integration weight cutoff        WCut        ... 1.0000e-14
Angular grids for H and He will be reduced by one unit
Partially contracted basis set               ... on
Rotationally invariant grid construction     ... off

Total number of grid points                  ...    21095
Total number of batches                      ...      337
Average number of points per batch           ...       62
Average number of grid points per atom       ...     1406
UseSFitting                                  ... on

GRIDX 3
-------
General Integration Accuracy     IntAcc      ... 4.338
Radial Grid Type                 RadialGrid  ... OptM3 with GC (2021)
Angular Grid (max. ang.)         AngularGrid ... 3 (Lebedev-194)
Angular grid pruning method      GridPruning ... 4 (adaptive)
Weight generation scheme         WeightScheme... Becke
Basis function cutoff            BFCut       ... 1.0000e-11
Integration weight cutoff        WCut        ... 1.0000e-14
Angular grids for H and He will be reduced by one unit
Partially contracted basis set               ... on
Rotationally invariant grid construction     ... off

Total number of grid points                  ...    47581
Total number of batches                      ...      750
Average number of points per batch           ...       63
Average number of grid points per atom       ...     3172
UseSFitting                                  ... on

Time for X-Grid setup             =    0.438 sec


--------------------
CPCM SOLVATION MODEL
--------------------
CPCM parameters:
  Epsilon                                         ...      80.4000
  Refrac                                          ...       1.3300
  Rsolv                                           ...       1.3000
  Surface type                                    ... GAUSSIAN VDW
  Epsilon function type                           ...         CPCM
Radii:
 Radius for N  used is    3.5149 Bohr (=   1.8600 Ang.)
 Radius for C  used is    3.8550 Bohr (=   2.0400 Ang.)
 Radius for Cl used is    3.9684 Bohr (=   2.1000 Ang.)
 Radius for H  used is    2.4944 Bohr (=   1.3200 Ang.)
Calculating surface                               ...        done! (  0.0s)
GEPOL surface points                              ...          871
GEPOL Volume                                      ...    1189.6849
GEPOL Surface-area                                ...     667.8378
Calculating surface distance matrix               ...        done! (  0.0s)
Performing Cholesky decomposition & store         ...        done! (  0.0s)
Overall time for CPCM initialization              ...                 0.0s
--------------
SCF ITERATIONS
--------------
ITER       Energy         Delta-E        Max-DP      RMS-DP      [F,P]     Damp
               ***  Starting incremental Fock matrix formation  ***
  0  -1223.3039255373   0.000000000000 0.03895820  0.00071511  0.1176709 0.8500
  1  -1223.3254736775  -0.021548140203 0.04051950  0.00069275  0.0956788 0.8500
                               ***Turning on DIIS***
  2  -1223.3420772527  -0.016603575122 0.03456231  0.00057312  0.0742879 0.8500
  3  -1223.3545520933  -0.012474840634 0.02600180  0.00041595  0.0569851 0.8500
  4  -1223.3642725006  -0.009720407287 0.02029371  0.00032336  0.0455562 0.8500
  5  -1223.3719913968  -0.007718896245 0.01667288  0.00026810  0.0376977 0.8500
  6  -1223.3783032120  -0.006311815194 0.01405352  0.00022800  0.0317232 0.8500
  7  -1223.3835515963  -0.005248384274 0.08064051  0.00131687  0.0268869 0.0000
  8  -1223.4119825792  -0.028430982879 0.00137766  0.00006082  0.0011617 0.0000
                      *** Initiating the SOSCF procedure ***
                           *** Shutting down DIIS ***
                      *** Re-Reading the Fockian *** 
                      *** Removing any level shift *** 
ITER      Energy       Delta-E        Grad      Rot      Max-DP    RMS-DP
  9  -1223.41200868  -0.0000261049  0.000860  0.000860  0.000712  0.000035
               *** Restarting incremental Fock matrix formation ***
 10  -1223.41207268  -0.0000639971  0.000573  0.001307  0.000804  0.000027
 11  -1223.41207582  -0.0000031353  0.000172  0.001000  0.000744  0.000024
 12  -1223.41207671  -0.0000008946  0.000070  0.000142  0.000144  0.000006
 13  -1223.41207682  -0.0000001085  0.000009  0.000024  0.000061  0.000001
 14  -1223.41207682  -0.0000000021  0.000005  0.000016  0.000050  0.000001
                  ***Gradient check signals convergence***
              ***Rediagonalizing the Fockian in SOSCF/NRSCF***

               *****************************************************
               *                     SUCCESS                       *
               *           SCF CONVERGED AFTER  15 CYCLES          *
               *****************************************************

Old exchange energy                            =    -26.389136033 Eh
New exchange energy                            =    -26.389142163 Eh
Exchange energy change after final integration =     -0.000006130 Eh
Total energy after final integration           =  -1223.412082961 Eh
Final COS-X integration done in                =     5.967 sec

----------------
TOTAL SCF ENERGY
----------------

Total Energy       :        -1223.41208296 Eh          -33290.73525 eV

Components:
Nuclear Repulsion  :          602.82189582 Eh           16403.61773 eV
Electronic Energy  :        -1826.23397878 Eh          -49694.35297 eV
One Electron Energy:        -2877.43241118 Eh          -78298.91655 eV
Two Electron Energy:         1051.19843240 Eh           28604.56357 eV
Max COSX asymmetry :            0.00000264 Eh               0.00007 eV
CPCM Dielectric    :           -0.01053333 Eh              -0.28663 eV

Virial components:
Potential Energy   :        -2441.55606683 Eh          -66438.11823 eV
Kinetic Energy     :         1218.14398387 Eh           33147.38298 eV
Virial Ratio       :            2.00432469


DFT components:
N(Alpha)           :       41.999966411059 electrons
N(Beta)            :       41.999966411059 electrons
N(Total)           :       83.999932822119 electrons
E(XC)              :      -73.183333185837 Eh       
DFET-embed. en.    :        0.000000000000 Eh       
CPCM Solvation Model Properties:
Surface-charge          :           -0.01455381
Charge-correction       :           -0.00016494 Eh              -0.00449 eV
Free-energy (cav+disp)  :  This term is not implemented in the current solvation scheme

---------------
SCF CONVERGENCE
---------------

  Last Energy change         ...   -9.5456e-09  Tolerance :   1.0000e-08
  Last MAX-Density change    ...    3.5527e-15  Tolerance :   1.0000e-07
  Last RMS-Density change    ...    7.3963e-17  Tolerance :   5.0000e-09
  Last Orbital Gradient      ...    1.6443e-06  Tolerance :   1.0000e-05
  Last Orbital Rotation      ...    5.1473e-06  Tolerance :   1.0000e-05

             **** THE GBW FILE WAS UPDATED (MeCl_Water.gbw) ****
             **** DENSITY MeCl_Water.scfp WAS UPDATED ****
             **** ENERGY FILE WAS UPDATED (MeCl_Water.en.tmp) ****
             **** THE GBW FILE WAS UPDATED (MeCl_Water.gbw) ****
             **** DENSITY MeCl_Water.scfp WAS UPDATED ****
----------------
ORBITAL ENERGIES
----------------

  NO   OCC          E(Eh)            E(eV) 
   0   2.0000    -101.502982     -2762.0366 
   1   2.0000    -101.502966     -2762.0361 
   2   2.0000     -14.472414      -393.8144 
   3   2.0000     -14.472407      -393.8142 
   4   2.0000     -10.364353      -282.0284 
   5   2.0000     -10.363787      -282.0130 
   6   2.0000     -10.306547      -280.4554 
   7   2.0000     -10.306519      -280.4546 
   8   2.0000     -10.297232      -280.2019 
   9   2.0000      -9.575165      -260.5535 
  10   2.0000      -9.575144      -260.5529 
  11   2.0000      -7.344351      -199.8499 
  12   2.0000      -7.344346      -199.8498 
  13   2.0000      -7.332899      -199.5383 
  14   2.0000      -7.332894      -199.5382 
  15   2.0000      -7.332890      -199.5381 
  16   2.0000      -7.332888      -199.5380 
  17   2.0000      -1.174238       -31.9527 
  18   2.0000      -1.063934       -28.9511 
  19   2.0000      -1.022507       -27.8238 
  20   2.0000      -0.988591       -26.9009 
  21   2.0000      -0.903316       -24.5805 
  22   2.0000      -0.835733       -22.7415 
  23   2.0000      -0.809937       -22.0395 
  24   2.0000      -0.714676       -19.4473 
  25   2.0000      -0.708762       -19.2864 
  26   2.0000      -0.637194       -17.3389 
  27   2.0000      -0.613796       -16.7022 
  28   2.0000      -0.579464       -15.7680 
  29   2.0000      -0.565352       -15.3840 
  30   2.0000      -0.560916       -15.2633 
  31   2.0000      -0.554485       -15.0883 
  32   2.0000      -0.515847       -14.0369 
  33   2.0000      -0.513221       -13.9655 
  34   2.0000      -0.496582       -13.5127 
  35   2.0000      -0.468047       -12.7362 
  36   2.0000      -0.458694       -12.4817 
  37   2.0000      -0.448504       -12.2044 
  38   2.0000      -0.443270       -12.0620 
  39   2.0000      -0.382002       -10.3948 
  40   2.0000      -0.339168        -9.2292 
  41   2.0000      -0.322672        -8.7804 
  42   0.0000       0.102719         2.7951 
  43   0.0000       0.116036         3.1575 
  44   0.0000       0.120069         3.2672 
  45   0.0000       0.161451         4.3933 
  46   0.0000       0.177353         4.8260 
  47   0.0000       0.180792         4.9196 
  48   0.0000       0.217273         5.9123 
  49   0.0000       0.221069         6.0156 
  50   0.0000       0.237997         6.4762 
  51   0.0000       0.242939         6.6107 
  52   0.0000       0.246279         6.7016 
  53   0.0000       0.271817         7.3965 
  54   0.0000       0.314264         8.5516 
  55   0.0000       0.333250         9.0682 
  56   0.0000       0.348931         9.4949 
  57   0.0000       0.422913        11.5081 
  58   0.0000       0.422978        11.5098 
  59   0.0000       0.454110        12.3570 
  60   0.0000       0.468470        12.7477 
  61   0.0000       0.490622        13.3505 
  62   0.0000       0.533623        14.5206 
  63   0.0000       0.543015        14.7762 
  64   0.0000       0.551004        14.9936 
  65   0.0000       0.573183        15.5971 
  66   0.0000       0.588607        16.0168 
  67   0.0000       0.615051        16.7364 
  68   0.0000       0.619133        16.8475 
  69   0.0000       0.676036        18.3959 
  70   0.0000       0.676980        18.4216 
  71   0.0000       0.680762        18.5245 
  72   0.0000       0.689733        18.7686 
  73   0.0000       0.694347        18.8941 
  74   0.0000       0.728609        19.8265 
  75   0.0000       0.755946        20.5703 
  76   0.0000       0.759162        20.6578 
  77   0.0000       0.764531        20.8039 
  78   0.0000       0.764558        20.8047 
  79   0.0000       0.772435        21.0190 
  80   0.0000       0.780587        21.2408 
  81   0.0000       0.784683        21.3523 
  82   0.0000       0.812348        22.1051 
  83   0.0000       0.814693        22.1689 
  84   0.0000       0.828016        22.5315 
  85   0.0000       0.857616        23.3369 
  86   0.0000       0.861410        23.4401 
  87   0.0000       0.865758        23.5585 
  88   0.0000       0.866601        23.5814 
  89   0.0000       0.874262        23.7899 
  90   0.0000       0.877990        23.8913 
  91   0.0000       0.932701        25.3801 
  92   0.0000       0.940839        25.6015 
  93   0.0000       0.947973        25.7957 
  94   0.0000       0.950893        25.8751 
  95   0.0000       0.998874        27.1808 
  96   0.0000       1.038405        28.2564 
  97   0.0000       1.038883        28.2694 
  98   0.0000       1.043108        28.3844 
  99   0.0000       1.061403        28.8823 
 100   0.0000       1.126438        30.6519 
 101   0.0000       1.143942        31.1283 
 102   0.0000       1.156503        31.4700 
 103   0.0000       1.209212        32.9043 
 104   0.0000       1.248248        33.9666 
 105   0.0000       1.286154        34.9980 
 106   0.0000       1.325554        36.0702 
 107   0.0000       1.333462        36.2853 
 108   0.0000       1.345480        36.6124 
 109   0.0000       1.398334        38.0506 
 110   0.0000       1.492989        40.6263 
 111   0.0000       1.503090        40.9012 
 112   0.0000       1.549483        42.1636 
 113   0.0000       1.623037        44.1651 
 114   0.0000       1.631578        44.3975 
 115   0.0000       1.633703        44.4553 
 116   0.0000       1.633704        44.4553 
 117   0.0000       1.645290        44.7706 
 118   0.0000       1.662521        45.2395 
 119   0.0000       1.733416        47.1687 
 120   0.0000       1.743247        47.4362 
 121   0.0000       1.757458        47.8229 
 122   0.0000       1.883549        51.2540 
 123   0.0000       1.888475        51.3880 
 124   0.0000       1.892713        51.5033 
 125   0.0000       1.915746        52.1301 
 126   0.0000       1.930028        52.5187 
 127   0.0000       1.939170        52.7675 
 128   0.0000       1.940531        52.8045 
 129   0.0000       1.997557        54.3563 
 130   0.0000       2.063590        56.1531 
 131   0.0000       2.093459        56.9659 
 132   0.0000       2.121400        57.7262 
 133   0.0000       2.138501        58.1916 
 134   0.0000       2.150861        58.5279 
 135   0.0000       2.180592        59.3369 
 136   0.0000       2.198321        59.8194 
 137   0.0000       2.239467        60.9390 
 138   0.0000       2.258228        61.4495 
 139   0.0000       2.344310        63.7919 
 140   0.0000       2.346613        63.8546 
 141   0.0000       2.378273        64.7161 
 142   0.0000       2.438198        66.3467 
 143   0.0000       2.440054        66.3973 
 144   0.0000       2.488094        67.7045 
 145   0.0000       2.511719        68.3473 
 146   0.0000       2.568838        69.9016 
 147   0.0000       2.608347        70.9767 
 148   0.0000       2.747397        74.7605 
 149   0.0000       2.761135        75.1343 
 150   0.0000       2.774409        75.4955 
 151   0.0000       2.815698        76.6190 
 152   0.0000       2.840809        77.3024 
 153   0.0000       2.846066        77.4454 
 154   0.0000       2.913810        79.2888 
 155   0.0000       2.956628        80.4539 
 156   0.0000       3.043516        82.8183 
 157   0.0000       3.046367        82.8959 
 158   0.0000       3.054123        83.1069 
 159   0.0000       3.080826        83.8335 
 160   0.0000       3.216607        87.5283 
 161   0.0000       3.266300        88.8805 
 162   0.0000       3.359644        91.4206 
 163   0.0000       3.411501        92.8317 

                    ********************************
                    * MULLIKEN POPULATION ANALYSIS *
                    ********************************

-----------------------
MULLIKEN ATOMIC CHARGES
-----------------------
   0 N :   -0.252012
   1 N :   -0.252012
   2 C :    0.096704
   3 C :    0.096704
   4 C :   -0.158354
   5 Cl:   -0.062565
   6 Cl:   -0.062565
   7 C :    0.104412
   8 C :    0.104411
   9 H :    0.060219
  10 H :    0.060219
  11 H :    0.066210
  12 H :    0.066210
  13 H :    0.066210
  14 H :    0.066210
Sum of atomic charges:    0.0000000

--------------------------------
MULLIKEN REDUCED ORBITAL CHARGES
--------------------------------
  0 N s       :     3.413800  s :     3.413800
      pz      :     1.098641  p :     3.805890
      px      :     1.522870
      py      :     1.184379
      dz2     :     0.009073  d :     0.032322
      dxz     :     0.005558
      dyz     :     0.008375
      dx2y2   :     0.004813
      dxy     :     0.004502
  1 N s       :     3.413801  s :     3.413801
      pz      :     1.098640  p :     3.805889
      px      :     1.522870
      py      :     1.184379
      dz2     :     0.009073  d :     0.032322
      dxz     :     0.005558
      dyz     :     0.008375
      dx2y2   :     0.004813
      dxy     :     0.004502
  2 C s       :     3.023013  s :     3.023013
      pz      :     0.762938  p :     2.812275
      px      :     1.134694
      py      :     0.914643
      dz2     :     0.019812  d :     0.068009
      dxz     :     0.011474
      dyz     :     0.018451
      dx2y2   :     0.006931
      dxy     :     0.011342
  3 C s       :     3.023014  s :     3.023014
      pz      :     0.762937  p :     2.812274
      px      :     1.134694
      py      :     0.914643
      dz2     :     0.019812  d :     0.068008
      dxz     :     0.011474
      dyz     :     0.018451
      dx2y2   :     0.006931
      dxy     :     0.011342
  4 C s       :     3.620363  s :     3.620363
      pz      :     1.128463  p :     2.472583
      px      :     0.698201
      py      :     0.645920
      dz2     :     0.008381  d :     0.065408
      dxz     :     0.009699
      dyz     :     0.028688
      dx2y2   :     0.007080
      dxy     :     0.011560
  5 Cls       :     5.940623  s :     5.940623
      pz      :     3.501488  p :    11.081441
      px      :     3.934824
      py      :     3.645129
      dz2     :     0.007751  d :     0.040502
      dxz     :     0.006138
      dyz     :     0.018197
      dx2y2   :     0.004004
      dxy     :     0.004411
  6 Cls       :     5.940623  s :     5.940623
      pz      :     3.501488  p :    11.081440
      px      :     3.934824
      py      :     3.645128
      dz2     :     0.007751  d :     0.040502
      dxz     :     0.006138
      dyz     :     0.018197
      dx2y2   :     0.004004
      dxy     :     0.004411
  7 C s       :     2.993938  s :     2.993938
      pz      :     1.033710  p :     2.863820
      px      :     1.051206
      py      :     0.778904
      dz2     :     0.008211  d :     0.037830
      dxz     :     0.002807
      dyz     :     0.006385
      dx2y2   :     0.009729
      dxy     :     0.010698
  8 C s       :     2.993939  s :     2.993939
      pz      :     1.033711  p :     2.863820
      px      :     1.051205
      py      :     0.778904
      dz2     :     0.008211  d :     0.037830
      dxz     :     0.002807
      dyz     :     0.006385
      dx2y2   :     0.009729
      dxy     :     0.010698
  9 H s       :     0.916013  s :     0.916013
      pz      :     0.016230  p :     0.023768
      px      :     0.004860
      py      :     0.002679
 10 H s       :     0.916013  s :     0.916013
      pz      :     0.016230  p :     0.023768
      px      :     0.004860
      py      :     0.002679
 11 H s       :     0.910174  s :     0.910174
      pz      :     0.005677  p :     0.023615
      px      :     0.012383
      py      :     0.005556
 12 H s       :     0.910174  s :     0.910174
      pz      :     0.005677  p :     0.023616
      px      :     0.012383
      py      :     0.005556
 13 H s       :     0.910174  s :     0.910174
      pz      :     0.005677  p :     0.023616
      px      :     0.012383
      py      :     0.005556
 14 H s       :     0.910174  s :     0.910174
      pz      :     0.005677  p :     0.023615
      px      :     0.012383
      py      :     0.005556


                     *******************************
                     * LOEWDIN POPULATION ANALYSIS *
                     *******************************

----------------------
LOEWDIN ATOMIC CHARGES
----------------------
   0 N :    0.013056
   1 N :    0.013056
   2 C :   -0.168865
   3 C :   -0.168865
   4 C :   -0.279914
   5 Cl:    0.148767
   6 Cl:    0.148767
   7 C :    0.035578
   8 C :    0.035578
   9 H :    0.039769
  10 H :    0.039769
  11 H :    0.035826
  12 H :    0.035826
  13 H :    0.035826
  14 H :    0.035826

-------------------------------
LOEWDIN REDUCED ORBITAL CHARGES
-------------------------------
  0 N s       :     3.071189  s :     3.071189
      pz      :     1.183921  p :     3.841252
      px      :     1.453555
      py      :     1.203776
      dz2     :     0.023325  d :     0.074504
      dxz     :     0.010953
      dyz     :     0.023225
      dx2y2   :     0.009865
      dxy     :     0.007135
  1 N s       :     3.071189  s :     3.071189
      pz      :     1.183921  p :     3.841252
      px      :     1.453555
      py      :     1.203776
      dz2     :     0.023325  d :     0.074504
      dxz     :     0.010953
      dyz     :     0.023225
      dx2y2   :     0.009865
      dxy     :     0.007135
  2 C s       :     2.890670  s :     2.890670
      pz      :     0.934118  p :     3.121877
      px      :     1.141273
      py      :     1.046485
      dz2     :     0.050991  d :     0.156319
      dxz     :     0.022226
      dyz     :     0.041971
      dx2y2   :     0.018506
      dxy     :     0.022625
  3 C s       :     2.890670  s :     2.890670
      pz      :     0.934118  p :     3.121877
      px      :     1.141273
      py      :     1.046485
      dz2     :     0.050991  d :     0.156318
      dxz     :     0.022226
      dyz     :     0.041971
      dx2y2   :     0.018506
      dxy     :     0.022625
  4 C s       :     3.222725  s :     3.222725
      pz      :     1.360294  p :     2.917766
      px      :     0.749017
      py      :     0.808454
      dz2     :     0.013528  d :     0.139423
      dxz     :     0.013408
      dyz     :     0.065957
      dx2y2   :     0.021488
      dxy     :     0.025043
  5 Cls       :     5.740925  s :     5.740925
      pz      :     3.505713  p :    11.062796
      px      :     3.914111
      py      :     3.642972
      dz2     :     0.009067  d :     0.047512
      dxz     :     0.007109
      dyz     :     0.021715
      dx2y2   :     0.004463
      dxy     :     0.005158
  6 Cls       :     5.740925  s :     5.740925
      pz      :     3.505713  p :    11.062796
      px      :     3.914111
      py      :     3.642972
      dz2     :     0.009067  d :     0.047512
      dxz     :     0.007109
      dyz     :     0.021715
      dx2y2   :     0.004463
      dxy     :     0.005158
  7 C s       :     2.828927  s :     2.828927
      pz      :     1.071135  p :     3.041235
      px      :     1.090356
      py      :     0.879744
      dz2     :     0.022185  d :     0.094259
      dxz     :     0.006315
      dyz     :     0.014875
      dx2y2   :     0.023021
      dxy     :     0.027863
  8 C s       :     2.828927  s :     2.828927
      pz      :     1.071135  p :     3.041235
      px      :     1.090356
      py      :     0.879744
      dz2     :     0.022185  d :     0.094259
      dxz     :     0.006315
      dyz     :     0.014875
      dx2y2   :     0.023021
      dxy     :     0.027864
  9 H s       :     0.892874  s :     0.892874
      pz      :     0.045378  p :     0.067357
      px      :     0.013099
      py      :     0.008880
 10 H s       :     0.892874  s :     0.892874
      pz      :     0.045378  p :     0.067357
      px      :     0.013099
      py      :     0.008880
 11 H s       :     0.897846  s :     0.897846
      pz      :     0.015584  p :     0.066327
      px      :     0.033638
      py      :     0.017105
 12 H s       :     0.897846  s :     0.897846
      pz      :     0.015584  p :     0.066327
      px      :     0.033638
      py      :     0.017105
 13 H s       :     0.897847  s :     0.897847
      pz      :     0.015584  p :     0.066327
      px      :     0.033638
      py      :     0.017105
 14 H s       :     0.897846  s :     0.897846
      pz      :     0.015584  p :     0.066327
      px      :     0.033638
      py      :     0.017105


                      *****************************
                      * MAYER POPULATION ANALYSIS *
                      *****************************

  NA   - Mulliken gross atomic population
  ZA   - Total nuclear charge
  QA   - Mulliken gross atomic charge
  VA   - Mayer's total valence
  BVA  - Mayer's bonded valence
  FA   - Mayer's free valence

  ATOM       NA         ZA         QA         VA         BVA        FA
  0 N      7.2520     7.0000    -0.2520     3.3915     3.3915     0.0000
  1 N      7.2520     7.0000    -0.2520     3.3915     3.3915     0.0000
  2 C      5.9033     6.0000     0.0967     3.9454     3.9454     0.0000
  3 C      5.9033     6.0000     0.0967     3.9454     3.9454     0.0000
  4 C      6.1584     6.0000    -0.1584     2.6971     2.6971     0.0000
  5 Cl    17.0626    17.0000    -0.0626     1.1789     1.1789    -0.0000
  6 Cl    17.0626    17.0000    -0.0626     1.1789     1.1789     0.0000
  7 C      5.8956     6.0000     0.1044     3.8635     3.8635     0.0000
  8 C      5.8956     6.0000     0.1044     3.8635     3.8635    -0.0000
  9 H      0.9398     1.0000     0.0602     1.0203     1.0203    -0.0000
 10 H      0.9398     1.0000     0.0602     1.0203     1.0203     0.0000
 11 H      0.9338     1.0000     0.0662     0.9962     0.9962    -0.0000
 12 H      0.9338     1.0000     0.0662     0.9962     0.9962    -0.0000
 13 H      0.9338     1.0000     0.0662     0.9962     0.9962    -0.0000
 14 H      0.9338     1.0000     0.0662     0.9962     0.9962     0.0000

  Mayer bond orders larger than 0.100000
B(  0-N ,  2-C ) :   1.1376 B(  0-N ,  4-C ) :   1.2340 B(  0-N ,  7-C ) :   0.9257 
B(  1-N ,  3-C ) :   1.1376 B(  1-N ,  4-C ) :   1.2340 B(  1-N ,  8-C ) :   0.9257 
B(  2-C ,  3-C ) :   1.5965 B(  2-C ,  5-Cl) :   1.0735 B(  3-C ,  6-Cl) :   1.0735 
B(  7-C ,  9-H ) :   0.9703 B(  7-C , 11-H ) :   0.9780 B(  7-C , 14-H ) :   0.9780 
B(  8-C , 10-H ) :   0.9703 B(  8-C , 12-H ) :   0.9780 B(  8-C , 13-H ) :   0.9780 


-------
TIMINGS
-------

Total SCF time: 0 days 0 hours 0 min 43 sec 

Total time                  ....      43.520 sec
Sum of individual times     ....      43.111 sec  ( 99.1%)

Fock matrix formation       ....      41.632 sec  ( 95.7%)
  Split-RI-J                ....       1.854 sec  (  4.5% of F)
  Chain of spheres X        ....      31.664 sec  ( 76.1% of F)
  XC integration            ....       4.685 sec  ( 11.3% of F)
    Basis function eval.    ....       1.466 sec  ( 31.3% of XC)
    Density eval.           ....       0.842 sec  ( 18.0% of XC)
    XC-Functional eval.     ....       0.650 sec  ( 13.9% of XC)
    XC-Potential eval.      ....       0.914 sec  ( 19.5% of XC)
Diagonalization             ....       0.064 sec  (  0.1%)
Density matrix formation    ....       0.006 sec  (  0.0%)
Population analysis         ....       0.072 sec  (  0.2%)
Initial guess               ....       0.134 sec  (  0.3%)
Orbital Transformation      ....       0.000 sec  (  0.0%)
Orbital Orthonormalization  ....       0.000 sec  (  0.0%)
DIIS solution               ....       0.048 sec  (  0.1%)
SOSCF solution              ....       0.033 sec  (  0.1%)
Grid generation             ....       1.121 sec  (  2.6%)

Maximum memory used throughout the entire SCF-calculation: 53.2 MB


-------------------------------------------------------------------------------
                          DFT DISPERSION CORRECTION                            
                                                                               
                                 DFTD4 V2.5                                    
-------------------------------------------------------------------------------
The WB97X functional is recognized
Active option DFTDOPT                   ...         5   

Starting D4
-------------------------   ----------------
Dispersion correction           -0.002548145
-------------------------   ----------------


-------------------------   --------------------
FINAL SINGLE POINT ENERGY     -1223.414631106613
-------------------------   --------------------



           ************************************************************
           *        Program running with 4 parallel MPI-processes     *
           *              working on a common directory               *
           ************************************************************
------------------------------------------------------------------------------
                         ORCA SCF GRADIENT CALCULATION
------------------------------------------------------------------------------

 ... reading COSX grid (gridx3)
Gradient of the Kohn-Sham DFT energy:
Kohn-Sham wavefunction type      ... RKS
Hartree-Fock exchange scaling    ...    0.158
Number of operators              ...    1
Number of atoms                  ...   15
Basis set dimensions             ...  164
Integral neglect threshold       ... 2.5e-11
Integral primitive cutoff        ... 2.5e-12
SHARK Integral package           ... ON

Nuc. rep. gradient       (SHARK) ... done (  0.0 sec)
HCore & Overlap gradient (SHARK) ... done (  0.1 sec)
RI-J gradient            (SHARK) ... done (  0.4 sec)
COSX-gradient                    ... done (  6.2 sec)
Exchange-correlation gradient    ... done
Dispersion correction            ... Starting D4
Starting D4
Starting D4
Starting D4


------------------- 
Dispersion Gradient 
------------------- 
   1  :   -0.000000000    0.000014945    0.000009106
   2  :    0.000000000   -0.000014945    0.000009106
   3  :   -0.000000000    0.000007449   -0.000007514
   4  :   -0.000000000   -0.000007449   -0.000007514
   5  :   -0.000000000    0.000000000    0.000024095
   6  :   -0.000000000    0.000037370   -0.000042514
   7  :   -0.000000000   -0.000037370   -0.000042514
   8  :    0.000000000    0.000044618    0.000018893
   9  :   -0.000000000   -0.000044618    0.000018893
  10  :    0.000000000    0.000008289    0.000008478
  11  :   -0.000000000   -0.000008289    0.000008478
  12  :   -0.000002442    0.000008779    0.000002435
  13  :   -0.000002442   -0.000008779    0.000002435
  14  :    0.000002442   -0.000008779    0.000002435
  15  :    0.000002442    0.000008779    0.000002435

  |G| =    0.000477067

done

------------------
CARTESIAN GRADIENT
------------------

   1   N   :    0.000000007    0.001824716   -0.001803597
   2   N   :   -0.000000043   -0.001824553   -0.001803630
   3   C   :    0.000000012   -0.003661906    0.000707166
   4   C   :   -0.000000003    0.003661926    0.000707470
   5   C   :    0.000000008   -0.000000000    0.012914651
   6   Cl  :   -0.000000006    0.004678639   -0.007421353
   7   Cl  :    0.000000008   -0.004678628   -0.007421323
   8   C   :    0.000000004    0.006588166    0.004928549
   9   C   :    0.000000023   -0.006588419    0.004928694
  10   H   :   -0.000000003   -0.001019062   -0.005918582
  11   H   :   -0.000000003    0.001019051   -0.005918623
  12   H   :    0.004356829   -0.002064119    0.001636725
  13   H   :    0.004356840    0.002064126    0.001636694
  14   H   :   -0.004356841    0.002064103    0.001636706
  15   H   :   -0.004356826   -0.002064135    0.001636704

Difference to translation invariance:
           :    0.0000000059   -0.0000000947    0.0004462483

Difference to rotation invariance:
           :   -0.0000001768    0.0000000153   -0.0000000792

Norm of the cartesian gradient     ...    0.0259407120
RMS gradient                       ...    0.0038670130
MAX gradient                       ...    0.0129146505

-------
TIMINGS
-------

Total SCF gradient time            ...        8.598 sec

One electron gradient       ....       0.056 sec  (  0.6%)
RI-J Coulomb gradient       ....       0.419 sec  (  4.9%)
COSX gradient               ....       6.205 sec  ( 72.2%)
XC gradient                 ....       1.237 sec  ( 14.4%)
CPCM gradient               ....       0.198 sec  (  2.3%)
   A-Matrix (El+Nuc)        ....       0.038 sec  (  0.4%)
   Potential                ....       0.161 sec  (  1.9%)

Maximum memory used throughout the entire SCFGRAD-calculation: 41.2 MB
------------------------------------------------------------------------------
                         ORCA GEOMETRY RELAXATION STEP
------------------------------------------------------------------------------

Reading the OPT-File                    .... done
Getting information on internals        .... done
Copying old internal coords+grads       .... done
Making the new internal coordinates     .... (new redundants).... done
Validating the new internal coordinates .... (new redundants).... done
Calculating the B-matrix                .... done
Calculating the G,G- and P matrices     .... done
Transforming gradient to internals      .... done
Projecting the internal gradient        .... done
Number of atoms                         ....  15
Number of internal coordinates          ....  68
Current Energy                          .... -1223.414631107 Eh
Current gradient norm                   ....     0.025940712 Eh/bohr
Maximum allowed component of the step   ....  0.300
Current trust radius                    ....  0.300
Evaluating the initial hessian          ....  (Almloef) done
Projecting the Hessian                  .... done
Forming the augmented Hessian           .... done
Diagonalizing the augmented Hessian     .... done
Last element of RFO vector              ....  0.998329018
Lowest eigenvalues of augmented Hessian:
 -0.001389049  0.016436647  0.016436647  0.020850981  0.021911101
Length of the computed step             ....  0.057882291
The final length of the internal step   ....  0.057882291
Converting the step to cartesian space:
 Initial RMS(Int)=    0.0070192588
Transforming coordinates:
 Iter   0:  RMS(Cart)=    0.0161096171 RMS(Int)=    1.7037823109
 Iter   1:  RMS(Cart)=    0.0000940897 RMS(Int)=    0.0000533893
 Iter   2:  RMS(Cart)=    0.0000008411 RMS(Int)=    0.0000006909
 Iter   3:  RMS(Cart)=    0.0000000117 RMS(Int)=    0.0000000064
done
Storing new coordinates                 .... done

                                .--------------------.
          ----------------------|Geometry convergence|-------------------------
          Item                value                   Tolerance       Converged
          ---------------------------------------------------------------------
          RMS gradient        0.0029596023            0.0001000000      NO
          MAX gradient        0.0087330555            0.0003000000      NO
          RMS step            0.0070192588            0.0020000000      NO
          MAX step            0.0207370568            0.0040000000      NO
          ........................................................
          Max(Bonds)      0.0110      Max(Angles)    0.67
          Max(Dihed)        0.06      Max(Improp)    0.00
          ---------------------------------------------------------------------

The optimization has not yet converged - more geometry cycles are needed


    ---------------------------------------------------------------------------
                         Redundant Internal Coordinates
                            (Angstroem and degrees)

        Definition                    Value    dE/dq     Step     New-Value
    ----------------------------------------------------------------------------
     1. B(C   2,N   0)                1.3864  0.006856 -0.0064    1.3801   
     2. B(C   3,C   2)                1.3586  0.002285 -0.0017    1.3570   
     3. B(C   3,N   1)                1.3864  0.006856 -0.0064    1.3801   
     4. B(C   4,N   1)                1.3683  0.005575 -0.0049    1.3635   
     5. B(C   4,N   0)                1.3683  0.005575 -0.0049    1.3635   
     6. B(Cl  5,C   2)                1.7183  0.008733 -0.0110    1.7073   
     7. B(Cl  6,C   3)                1.7183  0.008733 -0.0110    1.7073   
     8. B(C   7,N   0)                1.4560  0.002056 -0.0025    1.4536   
     9. B(C   8,N   1)                1.4560  0.002056 -0.0025    1.4536   
    10. B(H   9,C   7)                1.0873 -0.005909  0.0086    1.0959   
    11. B(H  10,C   8)                1.0873 -0.005909  0.0086    1.0959   
    12. B(H  11,C   7)                1.0921 -0.005062  0.0075    1.0995   
    13. B(H  12,C   8)                1.0921 -0.005062  0.0075    1.0995   
    14. B(H  13,C   8)                1.0921 -0.005062  0.0075    1.0995   
    15. B(H  14,C   7)                1.0921 -0.005062  0.0075    1.0995   
    16. A(C   4,N   0,C   7)          122.87 -0.004693    0.67    123.54   
    17. A(C   2,N   0,C   4)          112.13  0.002029   -0.28    111.85   
    18. A(C   2,N   0,C   7)          125.00  0.002665   -0.39    124.62   
    19. A(C   4,N   1,C   8)          122.87 -0.004693    0.67    123.54   
    20. A(C   3,N   1,C   4)          112.13  0.002028   -0.28    111.85   
    21. A(C   3,N   1,C   8)          125.00  0.002665   -0.39    124.62   
    22. A(C   3,C   2,Cl  5)          129.10 -0.001495    0.20    129.30   
    23. A(N   0,C   2,Cl  5)          124.51  0.001976   -0.27    124.23   
    24. A(N   0,C   2,C   3)          106.39 -0.000481    0.08    106.47   
    25. A(C   2,C   3,Cl  6)          129.10 -0.001495    0.20    129.30   
    26. A(N   1,C   3,C   2)          106.39 -0.000481    0.08    106.47   
    27. A(N   1,C   3,Cl  6)          124.51  0.001976   -0.27    124.23   
    28. A(N   0,C   4,N   1)          102.96 -0.003096    0.40    103.36   
    29. A(N   0,C   7,H   9)          106.60 -0.002008    0.37    106.97   
    30. A(H  11,C   7,H  14)          109.04 -0.000507    0.05    109.09   
    31. A(H   9,C   7,H  14)          109.80  0.000512   -0.07    109.73   
    32. A(N   0,C   7,H  14)          110.78  0.000745   -0.14    110.64   
    33. A(H   9,C   7,H  11)          109.80  0.000512   -0.07    109.73   
    34. A(N   0,C   7,H  11)          110.78  0.000745   -0.14    110.64   
    35. A(N   1,C   8,H  10)          106.60 -0.002008    0.37    106.97   
    36. A(H  12,C   8,H  13)          109.04 -0.000507    0.05    109.09   
    37. A(H  10,C   8,H  13)          109.80  0.000512   -0.07    109.73   
    38. A(N   1,C   8,H  13)          110.78  0.000745   -0.14    110.64   
    39. A(H  10,C   8,H  12)          109.80  0.000512   -0.07    109.73   
    40. A(N   1,C   8,H  12)          110.78  0.000745   -0.14    110.64   
    41. D(Cl  5,C   2,N   0,C   4)    180.00 -0.000000    0.00    180.00   
    42. D(Cl  5,C   2,N   0,C   7)      0.00 -0.000000    0.00      0.00   
    43. D(C   3,C   2,N   0,C   7)    180.00 -0.000000    0.00    180.00   
    44. D(C   3,C   2,N   0,C   4)      0.00 -0.000000    0.00      0.00   
    45. D(Cl  6,C   3,N   1,C   4)    180.00 -0.000000    0.00    180.00   
    46. D(C   2,C   3,N   1,C   8)    180.00  0.000000   -0.00    180.00   
    47. D(Cl  6,C   3,C   2,Cl  5)      0.00  0.000000   -0.00     -0.00   
    48. D(N   1,C   3,C   2,Cl  5)    180.00  0.000000   -0.00    180.00   
    49. D(Cl  6,C   3,C   2,N   0)    180.00  0.000000   -0.00    180.00   
    50. D(C   2,C   3,N   1,C   4)      0.00 -0.000000    0.00      0.00   
    51. D(N   1,C   3,C   2,N   0)      0.00  0.000000   -0.00     -0.00   
    52. D(Cl  6,C   3,N   1,C   8)      0.00 -0.000000   -0.00     -0.00   
    53. D(N   0,C   4,N   1,C   3)      0.00  0.000000   -0.00     -0.00   
    54. D(N   1,C   4,N   0,C   7)    180.00  0.000000   -0.00    180.00   
    55. D(N   1,C   4,N   0,C   2)      0.00  0.000000   -0.00     -0.00   
    56. D(N   0,C   4,N   1,C   8)    180.00 -0.000000    0.00    180.00   
    57. D(H  14,C   7,N   0,C   4)    119.42 -0.000181    0.06    119.49   
    58. D(H  14,C   7,N   0,C   2)    -60.58 -0.000181    0.06    -60.51   
    59. D(H  11,C   7,N   0,C   4)   -119.42  0.000181   -0.06   -119.49   
    60. D(H  11,C   7,N   0,C   2)     60.58  0.000181   -0.06     60.51   
    61. D(H   9,C   7,N   0,C   4)      0.00  0.000000   -0.00     -0.00   
    62. D(H   9,C   7,N   0,C   2)    180.00  0.000000   -0.00    180.00   
    63. D(H  13,C   8,N   1,C   4)   -119.42  0.000181   -0.06   -119.49   
    64. D(H  13,C   8,N   1,C   3)     60.58  0.000181   -0.06     60.51   
    65. D(H  12,C   8,N   1,C   4)    119.42 -0.000181    0.06    119.49   
    66. D(H  12,C   8,N   1,C   3)    -60.58 -0.000181    0.06    -60.51   
    67. D(H  10,C   8,N   1,C   4)      0.00  0.000000   -0.00     -0.00   
    68. D(H  10,C   8,N   1,C   3)    180.00  0.000000    0.00    180.00   
    ----------------------------------------------------------------------------

         *************************************************************
         *                GEOMETRY OPTIMIZATION CYCLE   2            *
         *************************************************************
---------------------------------
CARTESIAN COORDINATES (ANGSTROEM)
---------------------------------
  N      0.000000    1.069736    1.103107
  N      0.000000   -1.069736    1.103107
  C      0.000000    0.678483   -0.220325
  C      0.000000   -0.678483   -0.220325
  C      0.000000   -0.000000    1.948495
  Cl     0.000000    1.759840   -1.541523
  Cl    -0.000000   -1.759840   -1.541523
  C     -0.000000    2.451017    1.555798
  C      0.000000   -2.451016    1.555798
  H     -0.000000    2.428612    2.651480
  H      0.000000   -2.428611    2.651480
  H     -0.895671    2.977087    1.195241
  H     -0.895671   -2.977087    1.195241
  H      0.895671   -2.977087    1.195241
  H      0.895671    2.977087    1.195241

----------------------------
CARTESIAN COORDINATES (A.U.)
----------------------------
  NO LB      ZA    FRAG     MASS         X           Y           Z
   0 N     7.0000    0    14.007    0.000000    2.021508    2.084570
   1 N     7.0000    0    14.007    0.000000   -2.021509    2.084570
   2 C     6.0000    0    12.011    0.000000    1.282148   -0.416353
   3 C     6.0000    0    12.011    0.000000   -1.282148   -0.416354
   4 C     6.0000    0    12.011    0.000000   -0.000000    3.682121
   5 Cl   17.0000    0    35.453    0.000000    3.325615   -2.913056
   6 Cl   17.0000    0    35.453   -0.000001   -3.325615   -2.913057
   7 C     6.0000    0    12.011   -0.000000    4.631750    2.940032
   8 C     6.0000    0    12.011    0.000000   -4.631750    2.940032
   9 H     1.0000    0     1.008   -0.000000    4.589411    5.010572
  10 H     1.0000    0     1.008    0.000000   -4.589411    5.010572
  11 H     1.0000    0     1.008   -1.692573    5.625878    2.258678
  12 H     1.0000    0     1.008   -1.692573   -5.625878    2.258679
  13 H     1.0000    0     1.008    1.692573   -5.625879    2.258678
  14 H     1.0000    0     1.008    1.692573    5.625879    2.258679

--------------------------------
INTERNAL COORDINATES (ANGSTROEM)
--------------------------------
 N      0   0   0     0.000000000000     0.00000000     0.00000000
 N      1   0   0     2.139472576945     0.00000000     0.00000000
 C      1   2   0     1.380054328713    73.53046083     0.00000000
 C      3   1   2     1.356966675686   106.46954535     0.00000000
 C      1   2   3     1.363457467717    38.31850258   180.00000000
 Cl     3   1   2     1.707306702341   124.23128851   180.00000391
 Cl     4   3   1     1.707306752187   129.29918025   179.99998509
 C      1   2   3     1.453569658097   161.85433279   179.99998349
 C      2   1   3     1.453569360587   161.85431247   180.00002627
 H      8   1   2     1.095911394942   106.97424106     0.00000000
 H      9   2   1     1.095911468812   106.97423541     0.00000000
 H      8   1   2     1.099535149795   110.64206027   240.51379444
 H      9   2   1     1.099535158742   110.64207168   119.48617075
[...]
      2       0.006317   0.041713  -0.000000  -0.000000  -0.165384  -0.079890
      3       0.000000   0.000000  -0.012753   0.013066   0.000000  -0.000000
      4       0.048618   0.033762   0.000000  -0.000000   0.451169  -0.051192
      5      -0.006315   0.041714   0.000000  -0.000000  -0.165372   0.079895
      6       0.000000   0.000000  -0.000936  -0.000655   0.000000  -0.000000
      7      -0.018330  -0.013908  -0.000000   0.000000  -0.075420   0.018082
      8      -0.003926  -0.028072   0.000000   0.000000   0.230864   0.078003
      9      -0.000000  -0.000000   0.000936  -0.000655   0.000000  -0.000000
     10      -0.018330   0.013908  -0.000000  -0.000000   0.075423   0.018080
     11       0.003925  -0.028073  -0.000000  -0.000000   0.230851  -0.078010
     12      -0.000000  -0.000000   0.000000  -0.000608  -0.000000  -0.000000
     13      -0.027812   0.000000  -0.000000  -0.000000   0.000005   0.029793
     14      -0.000001  -0.034122   0.000000   0.000000  -0.107450   0.000001
     15       0.000000   0.000000   0.000038  -0.000046  -0.000000  -0.000000
     16       0.000937  -0.001161   0.000000   0.000000   0.012927   0.001426
     17      -0.000201   0.000834   0.000000  -0.000000  -0.018708  -0.003435
     18      -0.000000  -0.000000  -0.000038  -0.000046  -0.000000   0.000000
     19       0.000937   0.001161   0.000000  -0.000000  -0.012927   0.001426
     20       0.000201   0.000834   0.000000   0.000000  -0.018707   0.003435
     21      -0.000000   0.000000   0.032249   0.032084   0.000000  -0.000000
     22      -0.105115   0.099357   0.000000   0.000000   0.158807   0.044035
     23      -0.042858   0.029220   0.000000  -0.000000   0.046964  -0.006112
     24       0.000000   0.000000  -0.032250   0.032084  -0.000000  -0.000000
     25      -0.105114  -0.099357  -0.000000   0.000000  -0.158801   0.044040
     26       0.042857   0.029220   0.000000  -0.000000   0.046967   0.006111
     27       0.000001  -0.000001  -0.494807  -0.494305   0.000000   0.000002
     28       0.481855  -0.483618   0.000001   0.000002   0.252314   0.293449
     29      -0.042546   0.030423  -0.000001  -0.000001   0.051658  -0.002669
     30      -0.000001  -0.000002   0.494813  -0.494299   0.000001   0.000001
     31       0.481852   0.483621   0.000001  -0.000001  -0.252255   0.293457
     32       0.042545   0.030423  -0.000000   0.000000   0.051660   0.002668
     33       0.059546  -0.098052  -0.028322  -0.028269  -0.002010  -0.269551
     34       0.223107  -0.254599   0.142432   0.142972   0.203289  -0.275012
     35       0.267709  -0.224883   0.325406   0.325567   0.117069   0.222988
     36      -0.059549  -0.098053   0.028320  -0.028266  -0.001963   0.269554
     37       0.223106   0.254599   0.142436  -0.142972  -0.203331  -0.275009
     38      -0.267703  -0.224883  -0.325410   0.325563   0.117023  -0.222995
     39       0.059548   0.098053   0.028321  -0.028268   0.001964  -0.269554
     40       0.223107   0.254601  -0.142434   0.142970  -0.203331  -0.275009
     41      -0.267705  -0.224886   0.325409  -0.325562   0.117024  -0.222993
     42      -0.059546   0.098052  -0.028319  -0.028266   0.002010   0.269551
     43       0.223107  -0.254599  -0.142436  -0.142974   0.203290  -0.275010
     44       0.267709  -0.224884  -0.325405  -0.325565   0.117070   0.222992
                 36         37         38         39         40         41    
      0       0.000000  -0.000000   0.000000   0.000000  -0.000000   0.000344
      1      -0.024260   0.215254  -0.126266  -0.000063  -0.000403  -0.000000
      2       0.066660   0.023501   0.033051   0.000037   0.000315  -0.000000
      3       0.000000   0.000000   0.000000  -0.000000  -0.000000   0.000344
      4       0.024259   0.215257   0.126267  -0.000063   0.000403   0.000000
      5       0.066660  -0.023500   0.033051  -0.000037   0.000315  -0.000000
      6       0.000000   0.000000  -0.000000   0.000000  -0.000000   0.000082
      7      -0.022054  -0.055938   0.669180  -0.000130  -0.000097  -0.000000
      8      -0.019377  -0.092587  -0.059973   0.000699  -0.000798   0.000000
      9      -0.000000   0.000000   0.000000  -0.000000  -0.000000   0.000083
     10       0.022054  -0.055937  -0.669180  -0.000130   0.000097   0.000000
     11      -0.019377   0.092587  -0.059972  -0.000699  -0.000798   0.000000
     12      -0.000000   0.000000  -0.000000  -0.000000  -0.000000  -0.000231
     13       0.000000  -0.215948  -0.000000   0.001503  -0.000000   0.000000
     14      -0.066069  -0.000001  -0.031839   0.000000   0.000462  -0.000000
     15      -0.000000  -0.000000   0.000000   0.000000   0.000000  -0.000001
     16       0.000250   0.000424  -0.024550   0.000030  -0.000078  -0.000000
     17      -0.000930   0.004619   0.019867  -0.000006   0.000052  -0.000000
     18       0.000000   0.000000   0.000000  -0.000000  -0.000000  -0.000001
     19      -0.000250   0.000424   0.024550   0.000030   0.000078  -0.000000
     20      -0.000930  -0.004619   0.019867   0.000006   0.000052   0.000000
     21       0.000000  -0.000000   0.000000  -0.000000   0.000000  -0.067608
     22      -0.027941  -0.017070   0.025491  -0.035105   0.035210   0.000000
     23       0.006527  -0.012377  -0.022657  -0.002093   0.002229  -0.000000
     24      -0.000000  -0.000000  -0.000000  -0.000000  -0.000000  -0.067727
     25       0.027941  -0.017071  -0.025491  -0.035117  -0.035198   0.000000
     26       0.006527   0.012377  -0.022657   0.002094   0.002228   0.000000
     27      -0.000002   0.000001  -0.000000  -0.000000   0.000000  -0.006620
     28      -0.217562  -0.055182  -0.092145   0.000189  -0.000302   0.000000
     29       0.002636  -0.008835  -0.026082   0.321427  -0.321685  -0.000001
     30       0.000001   0.000000   0.000000  -0.000000  -0.000000  -0.006632
     31       0.217561  -0.055177   0.092145   0.000189   0.000302   0.000000
     32       0.002636   0.008835  -0.026081  -0.321543  -0.321571   0.000000
     33       0.277384  -0.222412   0.018796  -0.365529   0.365429   0.403935
     34       0.338246  -0.397194   0.095195   0.205257  -0.205749  -0.233372
     35      -0.174730   0.004548   0.021166  -0.147958   0.147835   0.172132
     36       0.277380   0.222414   0.018796   0.365660   0.365298   0.404643
     37      -0.338240  -0.397198  -0.095195   0.205331   0.205675   0.233781
     38      -0.174731  -0.004552   0.021166   0.148010   0.147781   0.172433
     39      -0.277380  -0.222415  -0.018796  -0.365660  -0.365298   0.404642
     40      -0.338240  -0.397198  -0.095195   0.205331   0.205675  -0.233781
     41      -0.174729  -0.004551   0.021166   0.148011   0.147781  -0.172433
     42      -0.277383   0.222411  -0.018796   0.365530  -0.365429   0.403935
     43       0.338245  -0.397193   0.095195   0.205257  -0.205749   0.233372
     44      -0.174733   0.004551   0.021166  -0.147957   0.147834  -0.172131
                 42         43         44    
      0      -0.000379   0.000000  -0.000000
      1      -0.000000  -0.000182   0.000160
      2       0.000000  -0.000160  -0.000230
      3       0.000378   0.000000   0.000000
      4      -0.000000   0.000183   0.000160
      5       0.000000  -0.000159   0.000231
      6      -0.000208   0.000000  -0.000000
      7      -0.000000  -0.000420   0.000430
      8       0.000000  -0.000025   0.000056
      9       0.000208   0.000000   0.000000
     10      -0.000000   0.000421   0.000429
     11      -0.000000  -0.000025  -0.000056
     12       0.000000   0.000000  -0.000000
     13      -0.000000   0.000000   0.000107
     14      -0.000000   0.000069  -0.000000
     15       0.000003  -0.000000  -0.000000
     16      -0.000000   0.000027  -0.000013
     17       0.000000  -0.000025   0.000008
     18      -0.000003   0.000000   0.000000
     19      -0.000000  -0.000027  -0.000013
     20      -0.000000  -0.000025  -0.000008
     21       0.067702  -0.000000   0.000000
     22      -0.000000  -0.016491   0.016500
     23       0.000000   0.064975  -0.065120
     24      -0.067584   0.000000   0.000000
     25       0.000000   0.016537   0.016454
     26       0.000000   0.065157   0.064939
     27       0.006625   0.000001  -0.000001
     28      -0.000000   0.000962  -0.000970
     29       0.000001  -0.629102   0.630981
     30      -0.006613  -0.000001  -0.000001
     31       0.000000  -0.000965  -0.000968
     32       0.000000  -0.630858  -0.629225
     33      -0.404628  -0.183986   0.184333
     34       0.233830   0.101333  -0.101591
     35      -0.172404  -0.071078   0.071216
     36       0.403921  -0.184499  -0.183820
     37       0.233421  -0.101615  -0.101308
     38       0.172102  -0.071276  -0.071018
     39       0.403921   0.184499   0.183820
     40      -0.233421  -0.101616  -0.101309
     41      -0.172102  -0.071276  -0.071018
     42      -0.404629   0.183986  -0.184333
     43      -0.233830   0.101332  -0.101591
     44       0.172403  -0.071077   0.071216


-----------
IR SPECTRUM
-----------

 Mode   freq       eps      Int      T**2         TX        TY        TZ
       cm**-1   L/(mol*cm) km/mol    a.u.
----------------------------------------------------------------------------
  6:    100.51   0.000000    0.00  0.000000  (-0.000007 -0.000000  0.000000)
  7:    108.47   0.000363    1.83  0.001044  (-0.032303  0.000000 -0.000000)
  8:    120.43   0.000000    0.00  0.000000  (-0.000007  0.000000 -0.000000)
  9:    166.06   0.001993   10.07  0.003745  (-0.061199  0.000000  0.000000)
 10:    168.49   0.000130    0.66  0.000241  ( 0.000000 -0.000000  0.015532)
 11:    234.61   0.000036    0.18  0.000048  ( 0.000000 -0.006902  0.000000)
 12:    271.73   0.001839    9.29  0.002112  ( 0.045956  0.000000 -0.000000)
 13:    282.79   0.001790    9.05  0.001975  (-0.000000 -0.000000 -0.044443)
 14:    322.22   0.000000    0.00  0.000000  ( 0.000000 -0.000000  0.000000)
 15:    439.88   0.001860    9.40  0.001319  ( 0.000000  0.036321  0.000000)
 16:    542.81   0.001396    7.05  0.000802  ( 0.000000 -0.000000 -0.028327)
 17:    578.88   0.002809   14.20  0.001515  (-0.000000 -0.038917  0.000000)
 18:    639.92   0.000567    2.86  0.000276  (-0.016622 -0.000000  0.000000)
 19:    650.76   0.000951    4.80  0.000456  ( 0.000000  0.000000 -0.021351)
 20:    670.00   0.000000    0.00  0.000000  ( 0.000000  0.000000  0.000000)
 21:    890.02   0.000066    0.33  0.000023  ( 0.000000  0.004820 -0.000000)
 22:   1081.86   0.000080    0.40  0.000023  (-0.000000 -0.000000  0.004793)
 23:   1090.26   0.000008    0.04  0.000002  ( 0.000000  0.001544  0.000000)
 24:   1112.16   0.012649   63.92  0.003549  (-0.000000 -0.000000  0.059574)
 25:   1142.26   0.000038    0.19  0.000010  (-0.003232 -0.000000 -0.000000)
 26:   1143.72   0.000000    0.00  0.000000  ( 0.000000 -0.000000 -0.000000)
 27:   1176.33   0.018830   95.16  0.004995  ( 0.000000  0.070677  0.000000)
 28:   1383.87   0.003678   18.58  0.000829  ( 0.000000 -0.028797  0.000000)
 29:   1396.89   0.000381    1.93  0.000085  (-0.000000  0.000000 -0.009225)
 30:   1418.41   0.008812   44.53  0.001939  (-0.000000 -0.044031 -0.000000)
 31:   1430.85   0.001290    6.52  0.000281  (-0.000000  0.000000 -0.016775)
 32:   1446.93   0.000000    0.00  0.000000  ( 0.000000 -0.000000  0.000000)
 33:   1447.38   0.007868   39.76  0.001696  (-0.041187  0.000000  0.000000)
 34:   1464.77   0.009566   48.34  0.002038  ( 0.000000  0.000001  0.045145)
 35:   1472.21   0.005715   28.88  0.001211  ( 0.000000  0.034806 -0.000002)
 36:   1478.45   0.012849   64.94  0.002712  (-0.000000  0.000000 -0.052079)
 37:   1490.67   0.016425   83.00  0.003438  ( 0.000000 -0.058638 -0.000000)
 38:   1699.41   0.006447   32.58  0.001184  ( 0.000000 -0.000000 -0.034406)
 39:   3084.34   0.013087   66.14  0.001324  (-0.000000 -0.036389  0.000001)
 40:   3084.99   0.000299    1.51  0.000030  (-0.000000  0.000007  0.005501)
 41:   3187.09   0.003339   16.87  0.000327  (-0.018081 -0.000000  0.000000)
 42:   3187.12   0.000000    0.00  0.000000  ( 0.000016  0.000000  0.000000)
 43:   3225.77   0.000303    1.53  0.000029  (-0.000000  0.000003  0.005416)
 44:   3225.97   0.000057    0.29  0.000006  ( 0.000000  0.002354 -0.000008)

* The epsilon (eps) is given for a Dirac delta lineshape.
** The dipole moment derivative (T) already includes vibrational overlap.

The first frequency considered to be a vibration is 6
The total number of vibrations considered is 39


--------------------------
THERMOCHEMISTRY AT 298.15K
--------------------------

Temperature         ... 298.15 K
Pressure            ... 1.00 atm
Total Mass          ... 165.02 AMU

Throughout the following assumptions are being made:
  (1) The electronic state is orbitally nondegenerate
  (2) There are no thermally accessible electronically excited states
  (3) Hindered rotations indicated by low frequency modes are not
      treated as such but are treated as vibrations and this may
      cause some error
  (4) All equations used are the standard statistical mechanics
      equations for an ideal gas
  (5) All vibrations are strictly harmonic

freq.     100.51  E(vib)   ...       0.46 
freq.     108.47  E(vib)   ...       0.45 
freq.     120.43  E(vib)   ...       0.44 
freq.     166.06  E(vib)   ...       0.39 
freq.     168.49  E(vib)   ...       0.38 
freq.     234.61  E(vib)   ...       0.32 
freq.     271.73  E(vib)   ...       0.29 
freq.     282.79  E(vib)   ...       0.28 
freq.     322.22  E(vib)   ...       0.25 
freq.     439.88  E(vib)   ...       0.17 
freq.     542.81  E(vib)   ...       0.12 
freq.     578.88  E(vib)   ...       0.11 
freq.     639.92  E(vib)   ...       0.09 
freq.     650.76  E(vib)   ...       0.08 
freq.     670.00  E(vib)   ...       0.08 
freq.     890.02  E(vib)   ...       0.04 
freq.    1081.86  E(vib)   ...       0.02 
freq.    1090.26  E(vib)   ...       0.02 
freq.    1112.16  E(vib)   ...       0.01 
freq.    1142.26  E(vib)   ...       0.01 
freq.    1143.72  E(vib)   ...       0.01 
freq.    1176.33  E(vib)   ...       0.01 
freq.    1383.87  E(vib)   ...       0.00 
freq.    1396.89  E(vib)   ...       0.00 
freq.    1418.41  E(vib)   ...       0.00 
freq.    1430.85  E(vib)   ...       0.00 
freq.    1446.93  E(vib)   ...       0.00 
freq.    1447.38  E(vib)   ...       0.00 
freq.    1464.77  E(vib)   ...       0.00 
freq.    1472.21  E(vib)   ...       0.00 
freq.    1478.45  E(vib)   ...       0.00 
freq.    1490.67  E(vib)   ...       0.00 
freq.    1699.41  E(vib)   ...       0.00 
freq.    3084.34  E(vib)   ...       0.00 
freq.    3084.99  E(vib)   ...       0.00 
freq.    3187.09  E(vib)   ...       0.00 
freq.    3187.12  E(vib)   ...       0.00 
freq.    3225.77  E(vib)   ...       0.00 
freq.    3225.97  E(vib)   ...       0.00 

------------
INNER ENERGY
------------

The inner energy is: U= E(el) + E(ZPE) + E(vib) + E(rot) + E(trans)
    E(el)   - is the total energy from the electronic structure calculation
              = E(kin-el) + E(nuc-el) + E(el-el) + E(nuc-nuc)
    E(ZPE)  - the the zero temperature vibrational energy from the frequency calculation
    E(vib)  - the the finite temperature correction to E(ZPE) due to population
              of excited vibrational states
    E(rot)  - is the rotational thermal energy
    E(trans)- is the translational thermal energy

Summary of contributions to the inner energy U:
Electronic energy                ...  -1223.41557488 Eh
Zero point energy                ...      0.10948713 Eh      68.70 kcal/mol
Thermal vibrational correction   ...      0.00647229 Eh       4.06 kcal/mol
Thermal rotational correction    ...      0.00141627 Eh       0.89 kcal/mol
Thermal translational correction ...      0.00141627 Eh       0.89 kcal/mol
-----------------------------------------------------------------------
Total thermal energy                  -1223.29678292 Eh


Summary of corrections to the electronic energy:
(perhaps to be used in another calculation)
Total thermal correction                  0.00930483 Eh       5.84 kcal/mol
Non-thermal (ZPE) correction              0.10948713 Eh      68.70 kcal/mol
-----------------------------------------------------------------------
Total correction                          0.11879196 Eh      74.54 kcal/mol


--------
ENTHALPY
--------

The enthalpy is H = U + kB*T
                kB is Boltzmann's constant
Total free energy                 ...  -1223.29678292 Eh 
Thermal Enthalpy correction       ...      0.00094421 Eh       0.59 kcal/mol
-----------------------------------------------------------------------
Total Enthalpy                    ...  -1223.29583871 Eh


Note: Rotational entropy computed according to Herzberg 
Infrared and Raman Spectra, Chapter V,1, Van Nostrand Reinhold, 1945 
Point Group:  C2v, Symmetry Number:   2  
Rotational constants in cm-1:     0.051589     0.036741     0.021637 

Vibrational entropy computed according to the QRRHO of S. Grimme
Chem.Eur.J. 2012 18 9955


-------
ENTROPY
-------

The entropy contributions are T*S = T*(S(el)+S(vib)+S(rot)+S(trans))
     S(el)   - electronic entropy
     S(vib)  - vibrational entropy
     S(rot)  - rotational entropy
     S(trans)- translational entropy
The entropies will be listed as multiplied by the temperature to get
units of energy

Electronic entropy                ...      0.00000000 Eh      0.00 kcal/mol
Vibrational entropy               ...      0.01139022 Eh      7.15 kcal/mol
Rotational entropy                ...      0.01362526 Eh      8.55 kcal/mol
Translational entropy             ...      0.01958067 Eh     12.29 kcal/mol
-----------------------------------------------------------------------
Final entropy term                ...      0.04459615 Eh     27.98 kcal/mol

In case the symmetry of your molecule has not been determined correctly
or in case you have a reason to use a different symmetry number we print 
out the resulting rotational entropy values for sn=1,12 :
 --------------------------------------------------------
|  sn= 1 | S(rot)=       0.01427971 Eh      8.96 kcal/mol|
|  sn= 2 | S(rot)=       0.01362526 Eh      8.55 kcal/mol|
|  sn= 3 | S(rot)=       0.01324242 Eh      8.31 kcal/mol|
|  sn= 4 | S(rot)=       0.01297080 Eh      8.14 kcal/mol|
|  sn= 5 | S(rot)=       0.01276011 Eh      8.01 kcal/mol|
|  sn= 6 | S(rot)=       0.01258797 Eh      7.90 kcal/mol|
|  sn= 7 | S(rot)=       0.01244242 Eh      7.81 kcal/mol|
|  sn= 8 | S(rot)=       0.01231634 Eh      7.73 kcal/mol|
|  sn= 9 | S(rot)=       0.01220513 Eh      7.66 kcal/mol|
|  sn=10 | S(rot)=       0.01210565 Eh      7.60 kcal/mol|
|  sn=11 | S(rot)=       0.01201566 Eh      7.54 kcal/mol|
|  sn=12 | S(rot)=       0.01193351 Eh      7.49 kcal/mol|
 --------------------------------------------------------


-------------------
GIBBS FREE ENERGY
-------------------

The Gibbs free energy is G = H - T*S

Total enthalpy                    ...  -1223.29583871 Eh 
Total entropy correction          ...     -0.04459615 Eh    -27.98 kcal/mol
-----------------------------------------------------------------------
Final Gibbs free energy         ...  -1223.34043486 Eh

For completeness - the Gibbs free energy minus the electronic energy
G-E(el)                           ...      0.07514002 Eh     47.15 kcal/mol


Timings for individual modules:

Sum of individual times         ...      347.750 sec (=   5.796 min)
GTO integral calculation        ...        3.238 sec (=   0.054 min)   0.9 %
SCF iterations                  ...      175.562 sec (=   2.926 min)  50.5 %
SCF Gradient evaluation         ...       44.930 sec (=   0.749 min)  12.9 %
Geometry relaxation             ...        0.200 sec (=   0.003 min)   0.1 %
Analytical frequency calculation...      123.819 sec (=   2.064 min)  35.6 %
                             ****ORCA TERMINATED NORMALLY****
TOTAL RUN TIME: 0 days 0 hours 5 minutes 49 seconds 720 msec
