
                                 *****************
                                 * O   R   C   A *
                                 *****************

                                            #,                                       
                                            ###                                      
                                            ####                                     
                                            #####                                    
                                            ######                                   
                                           ########,                                 
                                     ,,################,,,,,                         
                               ,,#################################,,                 
                          ,,##########################################,,             
                       ,#########################################, ''#####,          
                    ,#############################################,,   '####,        
                  ,##################################################,,,,####,       
                ,###########''''           ''''###############################       
              ,#####''   ,,,,##########,,,,          '''####'''          '####       
            ,##' ,,,,###########################,,,                        '##       
           ' ,,###''''                  '''############,,,                           
         ,,##''                                '''############,,,,        ,,,,,,###''
      ,#''                                            '''#######################'''  
     '                                                          ''''####''''         
             ,#######,   #######,   ,#######,      ##                                
            ,#'     '#,  ##    ##  ,#'     '#,    #''#        ######   ,####,        
            ##       ##  ##   ,#'  ##            #'  '#       #        #'  '#        
            ##       ##  #######   ##           ,######,      #####,   #    #        
            '#,     ,#'  ##    ##  '#,     ,#' ,#      #,         ##   #,  ,#        
             '#######'   ##     ##  '#######'  #'      '#     #####' # '####'        



                  #######################################################
                  #                        -***-                        #
                  #          Department of theory and spectroscopy      #
                  #    Directorship and core code : Frank Neese         #
                  #        Max Planck Institute fuer Kohlenforschung    #
                  #                Kaiser Wilhelm Platz 1               #
                  #                 D-45470 Muelheim/Ruhr               #
                  #                      Germany                        #
                  #                                                     #
                  #                  All rights reserved                #
                  #                        -***-                        #
                  #######################################################


                         Program Version 5.0.3 -  RELEASE  -


 With contributions from (in alphabetic order):
   Daniel Aravena         : Magnetic Suceptibility
   Michael Atanasov       : Ab Initio Ligand Field Theory (pilot matlab implementation)
   Alexander A. Auer      : GIAO ZORA, VPT2 properties, NMR spectrum
   Ute Becker             : Parallelization
   Giovanni Bistoni       : ED, misc. LED, open-shell LED, HFLD
   Martin Brehm           : Molecular dynamics
   Dmytro Bykov           : SCF Hessian
   Vijay G. Chilkuri      : MRCI spin determinant printing, contributions to CSF-ICE
   Dipayan Datta          : RHF DLPNO-CCSD density
   Achintya Kumar Dutta   : EOM-CC, STEOM-CC
   Dmitry Ganyushin       : Spin-Orbit,Spin-Spin,Magnetic field MRCI
   Miquel Garcia          : C-PCM and meta-GGA Hessian, CC/C-PCM, Gaussian charge scheme
   Yang Guo               : DLPNO-NEVPT2, F12-NEVPT2, CIM, IAO-localization
   Andreas Hansen         : Spin unrestricted coupled pair/coupled cluster methods
   Benjamin Helmich-Paris : MC-RPA, TRAH-SCF, COSX integrals
   Lee Huntington         : MR-EOM, pCC
   Robert Izsak           : Overlap fitted RIJCOSX, COSX-SCS-MP3, EOM
   Marcus Kettner         : VPT2
   Christian Kollmar      : KDIIS, OOCD, Brueckner-CCSD(T), CCSD density, CASPT2, CASPT2-K
   Simone Kossmann        : Meta GGA functionals, TD-DFT gradient, OOMP2, MP2 Hessian
   Martin Krupicka        : Initial AUTO-CI
   Lucas Lang             : DCDCAS
   Marvin Lechner         : AUTO-CI (C++ implementation), FIC-MRCC
   Dagmar Lenk            : GEPOL surface, SMD
   Dimitrios Liakos       : Extrapolation schemes; Compound Job, initial MDCI parallelization
   Dimitrios Manganas     : Further ROCIS development; embedding schemes
   Dimitrios Pantazis     : SARC Basis sets
   Anastasios Papadopoulos: AUTO-CI, single reference methods and gradients
   Taras Petrenko         : DFT Hessian,TD-DFT gradient, ASA, ECA, R-Raman, ABS, FL, XAS/XES, NRVS
   Peter Pinski           : DLPNO-MP2, DLPNO-MP2 Gradient
   Christoph Reimann      : Effective Core Potentials
   Marius Retegan         : Local ZFS, SOC
   Christoph Riplinger    : Optimizer, TS searches, QM/MM, DLPNO-CCSD(T), (RO)-DLPNO pert. Triples
   Tobias Risthaus        : Range-separated hybrids, TD-DFT gradient, RPA, STAB
   Michael Roemelt        : Original ROCIS implementation
   Masaaki Saitow         : Open-shell DLPNO-CCSD energy and density
   Barbara Sandhoefer     : DKH picture change effects
   Avijit Sen             : IP-ROCIS
   Kantharuban Sivalingam : CASSCF convergence, NEVPT2, FIC-MRCI
   Bernardo de Souza      : ESD, SOC TD-DFT
   Georgi Stoychev        : AutoAux, RI-MP2 NMR, DLPNO-MP2 response
   Willem Van den Heuvel  : Paramagnetic NMR
   Boris Wezisla          : Elementary symmetry handling
   Frank Wennmohs         : Technical directorship


 We gratefully acknowledge several colleagues who have allowed us to
 interface, adapt or use parts of their codes:
   Stefan Grimme, W. Hujo, H. Kruse, P. Pracht,  : VdW corrections, initial TS optimization,
                  C. Bannwarth, S. Ehlert          DFT functionals, gCP, sTDA/sTD-DF
   Ed Valeev, F. Pavosevic, A. Kumar             : LibInt (2-el integral package), F12 methods
   Garnet Chan, S. Sharma, J. Yang, R. Olivares  : DMRG
   Ulf Ekstrom                                   : XCFun DFT Library
   Mihaly Kallay                                 : mrcc  (arbitrary order and MRCC methods)
   Jiri Pittner, Ondrej Demel                    : Mk-CCSD
   Frank Weinhold                                : gennbo (NPA and NBO analysis)
   Christopher J. Cramer and Donald G. Truhlar   : smd solvation model
   Lars Goerigk                                  : TD-DFT with DH, B97 family of functionals
   V. Asgeirsson, H. Jonsson                     : NEB implementation
   FAccTs GmbH                                   : IRC, NEB, NEB-TS, DLPNO-Multilevel, CI-OPT
                                                   MM, QMMM, 2- and 3-layer-ONIOM, Crystal-QMMM,
                                                   LR-CPCM, SF, NACMEs, symmetry and pop. for TD-DFT,
                                                   nearIR, NL-DFT gradient (VV10), updates on ESD,
                                                   ML-optimized integration grids
   S Lehtola, MJT Oliveira, MAL Marques          : LibXC Library
   Liviu Ungur et al                             : ANISO software


 Your calculation uses the libint2 library for the computation of 2-el integrals
 For citations please refer to: http://libint.valeyev.net

 Your ORCA version has been built with support for libXC version: 5.1.0
 For citations please refer to: https://tddft.org/programs/libxc/

 This ORCA versions uses:
   CBLAS   interface :  Fast vector & matrix operations
   LAPACKE interface :  Fast linear algebra routines
   SCALAPACK package :  Parallel linear algebra routines
   Shared memory     :  Shared parallel matrices
   BLAS/LAPACK       :  OpenBLAS 0.3.15  USE64BITINT DYNAMIC_ARCH NO_AFFINITY SkylakeX SINGLE_THREADED
        Core in use  :  SkylakeX
   Copyright (c) 2011-2014, The OpenBLAS Project




***************************************
The coordinates will be read from file: iPrH.xyz
***************************************


Your calculation utilizes the atom-pairwise dispersion correction
based on tight binding partial charges (D4)
Cite in your paper:
E.Caldeweyher, C.Bannwarth, S.Grimme, J.Chem.Phys., (2017), 147, 034112.
E.Caldeweyher, S.Ehlert, A.Hansen, H.Neugebauer, S.Grimme, J.Chem.Phys., (2018), in progress.
   

XCFun DFT library Copyright 2009-2010 Ulf Ekstrom and contributors.
See http://admol.org/xcfun for more information.
This is free software; see the source code for copying conditions.
There is ABSOLUTELY NO WARRANTY; not even for MERCHANTABILITY or FITNESS FOR A PARTICULAR PURPOSE.
For details see the documentation.
Scientific users of this library should cite U. Ekstrom, L. Visscher, R. Bast, A. J. Thorvaldsen and K. Ruud;
J.Chem.Theor.Comp. 2010, DOI: 10.1021/ct100117s
XCFun Version 0.99 

================================================================================

----- Orbital basis set information -----
Your calculation utilizes the basis: def2-SVP
   F. Weigend and R. Ahlrichs, Phys. Chem. Chem. Phys. 7, 3297 (2005).

----- AuxJ basis set information -----
Your calculation utilizes the auxiliary basis: def2/J
   F. Weigend, Phys. Chem. Chem. Phys. 8, 1057 (2006).

================================================================================
                                        WARNINGS
                       Please study these warnings very carefully!
================================================================================


WARNING: Geometry Optimization
  ===> : Switching off AutoStart
         For restart on a previous wavefunction, please use MOREAD

INFO   : the flag for use of the SHARK integral package has been found!

================================================================================
                                       INPUT FILE
================================================================================
NAME = iPrH_Water.inp
|  1> # ORCAForces - ../2023_02/pKa_prediction/Yates_carbene_xyzs/Our_level/Uncharged/Water/2/iPrH_Water.inp
|  2> # Basic Mode
|  3> #
|  4> ! Opt FREQ wB97X D4 Def2-SVP SlowConv TightSCF DEFGRID2 Def2/J RIJCOSX CPCM(Water)
|  5> 
|  6> %maxcore 4500
|  7> 
|  8> %PAL NPROCS 4 END
|  9> 
| 10> %geom 
| 11> Maxiter 150
| 12> END
| 13> 
| 14> * xyzfile 0 1 iPrH.xyz
| 15> 
| 16>                          ****END OF INPUT****
================================================================================

                       *****************************
                       * Geometry Optimization Run *
                       *****************************

Geometry optimization settings:
Update method            Update   .... BFGS
Choice of coordinates    CoordSys .... Z-matrix Internals
Initial Hessian          InHess   .... Almoef's Model

Convergence Tolerances:
Energy Change            TolE     ....  5.0000e-06 Eh
Max. Gradient            TolMAXG  ....  3.0000e-04 Eh/bohr
RMS Gradient             TolRMSG  ....  1.0000e-04 Eh/bohr
Max. Displacement        TolMAXD  ....  4.0000e-03 bohr
RMS Displacement         TolRMSD  ....  2.0000e-03 bohr
Strict Convergence                ....  False
------------------------------------------------------------------------------
                        ORCA OPTIMIZATION COORDINATE SETUP
------------------------------------------------------------------------------

The optimization will be done in new redundant internal coordinates
Making redundant internal coordinates   ...  (new redundants) done
Evaluating the initial hessian          ...  (Almloef) done
Evaluating the coordinates              ...  done
Calculating the B-matrix                .... done
Calculating the G-matrix                .... done
Diagonalizing the G-matrix              .... done
Small eigenvalue found = 1.995e-02
Small eigenvalue found = 2.067e-02
The first mode is                       ....   65
The number of degrees of freedom        ....   75

    -----------------------------------------------------------------
                    Redundant Internal Coordinates


    -----------------------------------------------------------------
         Definition                    Initial Value    Approx d2E/dq
    -----------------------------------------------------------------
      1. B(N   2,C   0)                  1.4699         0.417280   
      2. B(N   3,C   1)                  1.4699         0.417280   
      3. B(C   4,N   2)                  1.3910         0.557608   
      4. B(C   5,C   4)                  1.3543         0.712437   
      5. B(C   5,N   3)                  1.3910         0.557608   
      6. B(C   6,N   3)                  1.3674         0.607966   
      7. B(C   6,N   2)                  1.3674         0.607966   
      8. B(C   7,C   0)                  1.5320         0.370779   
      9. B(C   8,C   0)                  1.5320         0.370779   
     10. B(C   9,C   1)                  1.5320         0.370779   
     11. B(C  10,C   1)                  1.5320         0.370779   
     12. B(H  11,C   4)                  1.0771         0.377507   
     13. B(H  12,C   5)                  1.0771         0.377507   
     14. B(H  13,C   0)                  1.0912         0.358544   
     15. B(H  14,C   1)                  1.0912         0.358544   
     16. B(H  15,C   7)                  1.0942         0.354523   
     17. B(H  16,C   8)                  1.0942         0.354523   
     18. B(H  17,C   9)                  1.0942         0.354523   
     19. B(H  18,C  10)                  1.0942         0.354523   
     20. B(H  19,C   7)                  1.0931         0.355982   
     21. B(H  20,C   8)                  1.0931         0.355982   
     22. B(H  21,C   9)                  1.0931         0.355982   
     23. B(H  22,C  10)                  1.0931         0.355982   
     24. B(H  23,C   7)                  1.0920         0.357471   
     25. B(H  24,C   8)                  1.0920         0.357471   
     26. B(H  25,C   9)                  1.0920         0.357471   
     27. B(H  26,C  10)                  1.0920         0.357471   
     28. A(N   2,C   0,C   7)          111.2083         0.367520   
     29. A(C   8,C   0,H  13)          108.9909         0.323689   
     30. A(N   2,C   0,H  13)          103.5027         0.328066   
     31. A(C   7,C   0,H  13)          108.9909         0.323689   
     32. A(N   2,C   0,C   8)          111.2083         0.367520   
     33. A(C   7,C   0,C   8)          112.5117         0.362420   
     34. A(C   9,C   1,C  10)          112.5117         0.362420   
     35. A(N   3,C   1,C   9)          111.2083         0.367520   
     36. A(C  10,C   1,H  14)          108.9909         0.323689   
     37. A(N   3,C   1,H  14)          103.5027         0.328066   
     38. A(C   9,C   1,H  14)          108.9909         0.323689   
     39. A(N   3,C   1,C  10)          111.2083         0.367520   
     40. A(C   4,N   2,C   6)          112.6104         0.418893   
     41. A(C   0,N   2,C   6)          122.1158         0.397942   
     42. A(C   0,N   2,C   4)          125.2738         0.391955   
     43. A(C   1,N   3,C   6)          122.1158         0.397942   
     44. A(C   1,N   3,C   5)          125.2738         0.391955   
     45. A(C   5,N   3,C   6)          112.6104         0.418893   
     46. A(N   2,C   4,C   5)          106.2087         0.433785   
     47. A(C   5,C   4,H  11)          129.9458         0.364268   
     48. A(N   2,C   4,H  11)          123.8454         0.347274   
     49. A(N   3,C   5,H  12)          123.8454         0.347274   
     50. A(N   3,C   5,C   4)          106.2087         0.433785   
     51. A(C   4,C   5,H  12)          129.9458         0.364268   
     52. A(N   2,C   6,N   3)          102.3617         0.425413   
     53. A(H  15,C   7,H  19)          107.7541         0.289605   
     54. A(C   0,C   7,H  19)          110.1843         0.323308   
     55. A(C   0,C   7,H  15)          111.5463         0.323091   
     56. A(H  19,C   7,H  23)          108.4122         0.289981   
     57. A(H  15,C   7,H  23)          108.2819         0.289794   
     58. A(C   0,C   7,H  23)          110.5563         0.323530   
     59. A(C   0,C   8,H  16)          111.5463         0.323091   
     60. A(H  20,C   8,H  24)          108.4122         0.289981   
     61. A(H  16,C   8,H  24)          108.2819         0.289794   
     62. A(C   0,C   8,H  24)          110.5563         0.323530   
     63. A(H  16,C   8,H  20)          107.7541         0.289605   
     64. A(C   0,C   8,H  20)          110.1843         0.323308   
     65. A(C   1,C   9,H  17)          111.5463         0.323091   
     66. A(H  21,C   9,H  25)          108.4122         0.289981   
     67. A(H  17,C   9,H  25)          108.2819         0.289794   
     68. A(C   1,C   9,H  25)          110.5563         0.323530   
     69. A(H  17,C   9,H  21)          107.7541         0.289605   
     70. A(C   1,C   9,H  21)          110.1843         0.323308   
     71. A(C   1,C  10,H  18)          111.5463         0.323091   
     72. A(H  22,C  10,H  26)          108.4122         0.289981   
     73. A(H  18,C  10,H  26)          108.2819         0.289794   
     74. A(C   1,C  10,H  26)          110.5563         0.323530   
     75. A(H  18,C  10,H  22)          107.7541         0.289605   
     76. A(C   1,C  10,H  22)          110.1843         0.323308   
     77. D(C   4,N   2,C   0,C   7)    -63.1175         0.014849   
     78. D(C   6,N   2,C   0,H  13)      0.0000         0.014849   
     79. D(C   6,N   2,C   0,C   7)    116.8825         0.014849   
     80. D(C   4,N   2,C   0,H  13)    180.0000         0.014849   
     81. D(C   6,N   2,C   0,C   8)   -116.8825         0.014849   
     82. D(C   4,N   2,C   0,C   8)     63.1175         0.014849   
     83. D(C   5,N   3,C   1,C  10)     63.1175         0.014849   
     84. D(C   6,N   3,C   1,H  14)      0.0000         0.014849   
     85. D(C   6,N   3,C   1,C   9)    116.8825         0.014849   
     86. D(C   6,N   3,C   1,C  10)   -116.8825         0.014849   
     87. D(C   5,N   3,C   1,H  14)    180.0000         0.014849   
     88. D(C   5,N   3,C   1,C   9)    -63.1175         0.014849   
     89. D(H  11,C   4,N   2,C   0)      0.0000         0.024819   
     90. D(C   5,C   4,N   2,C   6)      0.0000         0.024819   
     91. D(C   5,C   4,N   2,C   0)    180.0000         0.024819   
     92. D(H  11,C   4,N   2,C   6)    180.0000         0.024819   
     93. D(H  12,C   5,C   4,H  11)      0.0000         0.035856   
     94. D(N   3,C   5,C   4,N   2)      0.0000         0.035856   
     95. D(H  12,C   5,N   3,C   6)    180.0000         0.024819   
     96. D(N   3,C   5,C   4,H  11)    180.0000         0.035856   
     97. D(H  12,C   5,N   3,C   1)      0.0000         0.024819   
     98. D(C   4,C   5,N   3,C   6)      0.0000         0.024819   
     99. D(C   4,C   5,N   3,C   1)    180.0000         0.024819   
    100. D(H  12,C   5,C   4,N   2)    180.0000         0.035856   
    101. D(N   2,C   6,N   3,C   5)      0.0000         0.027043   
    102. D(N   3,C   6,N   2,C   4)      0.0000         0.027043   
    103. D(N   3,C   6,N   2,C   0)    180.0000         0.027043   
    104. D(N   2,C   6,N   3,C   1)    180.0000         0.027043   
    105. D(H  15,C   7,C   0,C   8)    -60.0030         0.010987   
    106. D(H  15,C   7,C   0,N   2)     65.5090         0.010987   
    107. D(H  15,C   7,C   0,H  13)    178.9881         0.010987   
    108. D(H  23,C   7,C   0,H  13)     58.4399         0.010987   
    109. D(H  23,C   7,C   0,C   8)    179.4489         0.010987   
    110. D(H  23,C   7,C   0,N   2)    -55.0392         0.010987   
    111. D(H  19,C   7,C   0,H  13)    -61.3788         0.010987   
    112. D(H  19,C   7,C   0,C   8)     59.6301         0.010987   
    113. D(H  19,C   7,C   0,N   2)   -174.8579         0.010987   
    114. D(H  24,C   8,C   0,H  13)    -58.4399         0.010987   
    115. D(H  24,C   8,C   0,C   7)   -179.4489         0.010987   
    116. D(H  24,C   8,C   0,N   2)     55.0392         0.010987   
    117. D(H  20,C   8,C   0,H  13)     61.3788         0.010987   
    118. D(H  20,C   8,C   0,C   7)    -59.6301         0.010987   
    119. D(H  20,C   8,C   0,N   2)    174.8579         0.010987   
    120. D(H  16,C   8,C   0,H  13)   -178.9881         0.010987   
    121. D(H  16,C   8,C   0,C   7)     60.0030         0.010987   
    122. D(H  16,C   8,C   0,N   2)    -65.5090         0.010987   
    123. D(H  25,C   9,C   1,C  10)    179.4489         0.010987   
    124. D(H  25,C   9,C   1,N   3)    -55.0392         0.010987   
    125. D(H  21,C   9,C   1,H  14)    -61.3788         0.010987   
    126. D(H  21,C   9,C   1,C  10)     59.6301         0.010987   
    127. D(H  21,C   9,C   1,N   3)   -174.8579         0.010987   
    128. D(H  17,C   9,C   1,H  14)    178.9881         0.010987   
    129. D(H  17,C   9,C   1,C  10)    -60.0030         0.010987   
    130. D(H  25,C   9,C   1,H  14)     58.4399         0.010987   
    131. D(H  17,C   9,C   1,N   3)     65.5090         0.010987   
    132. D(H  26,C  10,C   1,N   3)     55.0392         0.010987   
    133. D(H  22,C  10,C   1,H  14)     61.3788         0.010987   
    134. D(H  22,C  10,C   1,C   9)    -59.6301         0.010987   
    135. D(H  22,C  10,C   1,N   3)    174.8579         0.010987   
    136. D(H  18,C  10,C   1,H  14)   -178.9881         0.010987   
    137. D(H  18,C  10,C   1,C   9)     60.0030         0.010987   
    138. D(H  26,C  10,C   1,C   9)   -179.4489         0.010987   
    139. D(H  18,C  10,C   1,N   3)    -65.5090         0.010987   
    140. D(H  26,C  10,C   1,H  14)    -58.4399         0.010987   
    -----------------------------------------------------------------

Number of atoms                         .... 27
Number of degrees of freedom            .... 140

         *************************************************************
         *                GEOMETRY OPTIMIZATION CYCLE   1            *
         *************************************************************
---------------------------------
CARTESIAN COORDINATES (ANGSTROEM)
---------------------------------
  C      0.000000    2.454663    0.548592
  C      0.000000   -2.454663    0.548592
  N      0.000000    1.065406    0.068467
  N      0.000000   -1.065406    0.068467
  C      0.000000    0.677134   -1.267213
  C      0.000000   -0.677134   -1.267213
  C      0.000000    0.000000    0.925662
  C      1.273936    3.189444    0.119237
  C     -1.273936    3.189444    0.119237
  C     -1.273936   -3.189444    0.119237
  C      1.273936   -3.189444    0.119237
  H      0.000000    1.368732   -2.093012
  H      0.000000   -1.368732   -2.093012
  H      0.000000    2.348895    1.634633
  H      0.000000   -2.348895    1.634633
  H      1.325441    3.302800   -0.967905
  H     -1.325441    3.302800   -0.967905
  H     -1.325441   -3.302800   -0.967905
  H      1.325441   -3.302800   -0.967905
  H      1.299422    4.189356    0.560215
  H     -1.299422    4.189356    0.560215
  H     -1.299422   -4.189356    0.560215
  H      1.299422   -4.189356    0.560215
  H      2.160705    2.644264    0.449193
  H     -2.160705    2.644264    0.449193
  H     -2.160705   -2.644264    0.449193
  H      2.160705   -2.644264    0.449193

----------------------------
CARTESIAN COORDINATES (A.U.)
----------------------------
  NO LB      ZA    FRAG     MASS         X           Y           Z
   0 C     6.0000    0    12.011    0.000000    4.638641    1.036689
   1 C     6.0000    0    12.011    0.000000   -4.638641    1.036689
   2 N     7.0000    0    14.007    0.000000    2.013326    0.129384
   3 N     7.0000    0    14.007    0.000000   -2.013326    0.129384
   4 C     6.0000    0    12.011    0.000000    1.279598   -2.394686
   5 C     6.0000    0    12.011    0.000000   -1.279598   -2.394686
   6 C     6.0000    0    12.011    0.000000    0.000000    1.749248
   7 C     6.0000    0    12.011    2.407390    6.027176    0.225325
   8 C     6.0000    0    12.011   -2.407390    6.027176    0.225325
   9 C     6.0000    0    12.011   -2.407390   -6.027176    0.225325
  10 C     6.0000    0    12.011    2.407390   -6.027176    0.225325
  11 H     1.0000    0     1.008    0.000000    2.586529   -3.955219
  12 H     1.0000    0     1.008    0.000000   -2.586529   -3.955219
  13 H     1.0000    0     1.008    0.000000    4.438768    3.089009
  14 H     1.0000    0     1.008    0.000000   -4.438768    3.089009
  15 H     1.0000    0     1.008    2.504720    6.241387   -1.829075
  16 H     1.0000    0     1.008   -2.504720    6.241387   -1.829075
  17 H     1.0000    0     1.008   -2.504720   -6.241387   -1.829075
  18 H     1.0000    0     1.008    2.504720   -6.241387   -1.829075
  19 H     1.0000    0     1.008    2.455552    7.916736    1.058653
  20 H     1.0000    0     1.008   -2.455552    7.916736    1.058653
  21 H     1.0000    0     1.008   -2.455552   -7.916736    1.058653
  22 H     1.0000    0     1.008    2.455552   -7.916736    1.058653
  23 H     1.0000    0     1.008    4.083141    4.996935    0.848852
  24 H     1.0000    0     1.008   -4.083141    4.996935    0.848852
  25 H     1.0000    0     1.008   -4.083141   -4.996935    0.848852
  26 H     1.0000    0     1.008    4.083141   -4.996935    0.848852

--------------------------------
INTERNAL COORDINATES (ANGSTROEM)
--------------------------------
 C      0   0   0     0.000000000000     0.00000000     0.00000000
 C      1   0   0     4.909326000000     0.00000000     0.00000000
 N      1   2   0     1.469882657791    19.06506782     0.00000000
 N      2   1   3     1.469882657791    19.06506782     0.00000000
 C      3   1   2     1.390969521012   125.27381311   180.00000000
 C      5   3   1     1.354268000000   106.20874529   180.00000000
 C      3   1   2     1.367433074363   122.11577762     0.00000000
 C      1   2   4     1.532044962161   118.65980215   288.62537415
 C      1   2   4     1.532044962161   118.65980215    71.37462585
 C      2   1   3     1.532044962161   118.65980215   288.62537415
 C      2   1   3     1.532044962161   118.65980215    71.37462585
 H      5   3   1     1.077149841946   123.84543401     0.00000000
 H      6   5   3     1.077149841946   129.94582070   180.00000000
 H      1   2   4     1.091179143635    84.43758629   180.00000000
 H      2   1   3     1.091179143635    84.43758629   180.00000000
 H      8   1   2     1.094248635332   111.54625939    84.90055454
 H      9   1   2     1.094248635332   111.54625939   275.09944546
 H     10   2   1     1.094248635332   111.54625939    84.90055454
 H     11   2   1     1.094248635332   111.54625939   275.09944546
 H      8   1   2     1.093130888972   110.18425275   204.53359545
 H      9   1   2     1.093130888972   110.18425275   155.46640455
 H     10   2   1     1.093130888972   110.18425275   204.53359545
 H     11   2   1     1.093130888972   110.18425275   155.46640455
 H      8   1   2     1.091994255341   110.55629337   324.35239046
 H      9   1   2     1.091994255341   110.55629337    35.64760954
 H     10   2   1     1.091994255341   110.55629337   324.35239046
 H     11   2   1     1.091994255341   110.55629337    35.64760954

---------------------------
INTERNAL COORDINATES (A.U.)
---------------------------
 C      0   0   0     0.000000000000     0.00000000     0.00000000
 C      1   0   0     9.277281642139     0.00000000     0.00000000
 N      1   2   0     2.777675672225    19.06506782     0.00000000
 N      2   1   3     2.777675672225    19.06506782     0.00000000
 C      3   1   2     2.628551455344   125.27381311   180.00000000
 C      5   3   1     2.559195631933   106.20874529   180.00000000
 C      3   1   2     2.584074017011   122.11577762     0.00000000
 C      1   2   4     2.895145403337   118.65980215   288.62537415
 C      1   2   4     2.895145403337   118.65980215    71.37462585
 C      2   1   3     2.895145403337   118.65980215   288.62537415
 C      2   1   3     2.895145403337   118.65980215    71.37462585
 H      5   3   1     2.035518206475   123.84543401     0.00000000
 H      6   5   3     2.035518206475   129.94582070   180.00000000
 H      1   2   4     2.062029744518    84.43758629   180.00000000
 H      2   1   3     2.062029744518    84.43758629   180.00000000
 H      8   1   2     2.067830243194   111.54625939    84.90055454
 H      9   1   2     2.067830243194   111.54625939   275.09944546
 H     10   2   1     2.067830243194   111.54625939    84.90055454
 H     11   2   1     2.067830243194   111.54625939   275.09944546
 H      8   1   2     2.065718008686   110.18425275   204.53359545
 H      9   1   2     2.065718008686   110.18425275   155.46640455
 H     10   2   1     2.065718008686   110.18425275   204.53359545
 H     11   2   1     2.065718008686   110.18425275   155.46640455
 H      8   1   2     2.063570082409   110.55629337   324.35239046
 H      9   1   2     2.063570082409   110.55629337    35.64760954
 H     10   2   1     2.063570082409   110.55629337   324.35239046
 H     11   2   1     2.063570082409   110.55629337    35.64760954

---------------------
BASIS SET INFORMATION
---------------------
There are 3 groups of distinct atoms

 Group   1 Type C   : 7s4p1d contracted to 3s2p1d pattern {511/31/1}
 Group   2 Type N   : 7s4p1d contracted to 3s2p1d pattern {511/31/1}
 Group   3 Type H   : 4s1p contracted to 2s1p pattern {31/1}

Atom   0C    basis set group =>   1
Atom   1C    basis set group =>   1
Atom   2N    basis set group =>   2
Atom   3N    basis set group =>   2
Atom   4C    basis set group =>   1
Atom   5C    basis set group =>   1
Atom   6C    basis set group =>   1
Atom   7C    basis set group =>   1
Atom   8C    basis set group =>   1
Atom   9C    basis set group =>   1
Atom  10C    basis set group =>   1
Atom  11H    basis set group =>   3
Atom  12H    basis set group =>   3
Atom  13H    basis set group =>   3
Atom  14H    basis set group =>   3
Atom  15H    basis set group =>   3
Atom  16H    basis set group =>   3
Atom  17H    basis set group =>   3
Atom  18H    basis set group =>   3
Atom  19H    basis set group =>   3
Atom  20H    basis set group =>   3
Atom  21H    basis set group =>   3
Atom  22H    basis set group =>   3
Atom  23H    basis set group =>   3
Atom  24H    basis set group =>   3
Atom  25H    basis set group =>   3
Atom  26H    basis set group =>   3
---------------------------------
AUXILIARY/J BASIS SET INFORMATION
---------------------------------
There are 3 groups of distinct atoms

 Group   1 Type C   : 12s5p4d2f1g contracted to 6s4p3d1f1g pattern {711111/2111/211/2/1}
 Group   2 Type N   : 12s5p4d2f1g contracted to 6s4p3d1f1g pattern {711111/2111/211/2/1}
 Group   3 Type H   : 5s2p1d contracted to 3s1p1d pattern {311/2/1}

Atom   0C    basis set group =>   1
Atom   1C    basis set group =>   1
Atom   2N    basis set group =>   2
Atom   3N    basis set group =>   2
Atom   4C    basis set group =>   1
Atom   5C    basis set group =>   1
Atom   6C    basis set group =>   1
Atom   7C    basis set group =>   1
Atom   8C    basis set group =>   1
Atom   9C    basis set group =>   1
Atom  10C    basis set group =>   1
Atom  11H    basis set group =>   3
Atom  12H    basis set group =>   3
Atom  13H    basis set group =>   3
Atom  14H    basis set group =>   3
Atom  15H    basis set group =>   3
Atom  16H    basis set group =>   3
Atom  17H    basis set group =>   3
Atom  18H    basis set group =>   3
Atom  19H    basis set group =>   3
Atom  20H    basis set group =>   3
Atom  21H    basis set group =>   3
Atom  22H    basis set group =>   3
Atom  23H    basis set group =>   3
Atom  24H    basis set group =>   3
Atom  25H    basis set group =>   3
Atom  26H    basis set group =>   3


           ************************************************************
           *        Program running with 4 parallel MPI-processes     *
           *              working on a common directory               *
           ************************************************************
------------------------------------------------------------------------------
                           ORCA GTO INTEGRAL CALCULATION
                           -- RI-GTO INTEGRALS CHOSEN --
------------------------------------------------------------------------------
------------------------------------------------------------------------------
                   ___                                                        
                  /   \      - P O W E R E D   B Y -                         
                 /     \                                                     
                 |  |  |   _    _      __       _____    __    __             
                 |  |  |  | |  | |    /  \     |  _  \  |  |  /  |          
                  \  \/   | |  | |   /    \    | | | |  |  | /  /          
                 / \  \   | |__| |  /  /\  \   | |_| |  |  |/  /          
                |  |  |   |  __  | /  /__\  \  |    /   |      \           
                |  |  |   | |  | | |   __   |  |    \   |  |\   \          
                \     /   | |  | | |  |  |  |  | |\  \  |  | \   \       
                 \___/    |_|  |_| |__|  |__|  |_| \__\ |__|  \__/        
                                                                              
                      - O R C A' S   B I G   F R I E N D -                    
                                      &                                       
                       - I N T E G R A L  F E E D E R -                       
                                                                              
 v1 FN, 2020, v2 2021                                                         
------------------------------------------------------------------------------


Reading SHARK input file iPrH_Water.SHARKINP.tmp ... ok
----------------------
SHARK INTEGRAL PACKAGE
----------------------

Number of atoms                             ...     27
Number of basis functions                   ...    234
Number of shells                            ...    114
Maximum angular momentum                    ...      2
Integral batch strategy                     ... SHARK/LIBINT Hybrid
RI-J (if used) integral strategy            ... SPLIT-RIJ (Revised 2003 algorithm where possible)
Printlevel                                  ...      1
Contraction scheme used                     ... SEGMENTED contraction
Coulomb Range Separation                    ... NOT USED
Exchange Range Separation                   ... Long Range
   Mu parameter                             ...  0.300000
   Scaling (regular/separated)              ...  0.157706  0.842294
Finite Nucleus Model                        ... NOT USED
Auxiliary Coulomb fitting basis             ... AVAILABLE
   # of basis functions in Aux-J            ...    715
   # of shells in Aux-J                     ...    245
   Maximum angular momentum in Aux-J        ...      4
Auxiliary J/K fitting basis                 ... NOT available
Auxiliary Correlation fitting basis         ... NOT available
Auxiliary 'external' fitting basis          ... NOT available
Integral threshold                          ...     2.500000e-11
Primitive cut-off                           ...     2.500000e-12
Primitive pair pre-selection threshold      ...     2.500000e-12

Calculating pre-screening integrals         ... done (  0.0 sec) Dimension = 114
Organizing shell pair data                  ... done (  0.0 sec)
Shell pair information
Total number of shell pairs                 ...      6555
Shell pairs after pre-screening             ...      5667
Total number of primitive shell pairs       ...     22769
Primitive shell pairs kept                  ...     14012
          la=0 lb=0:   1913 shell pairs
          la=1 lb=0:   2130 shell pairs
          la=1 lb=1:    614 shell pairs
          la=2 lb=0:    609 shell pairs
          la=2 lb=1:    344 shell pairs
          la=2 lb=2:     57 shell pairs

Calculating one electron integrals          ... done (  0.0 sec)
Calculating RI/J V-Matrix + Cholesky decomp.... done (  0.0 sec)
Calculating Nuclear repulsion               ... done (  0.0 sec) ENN=    629.472706208724 Eh

SHARK setup successfully completed in   0.6 seconds

Maximum memory used throughout the entire GTOINT-calculation: 14.1 MB


           ************************************************************
           *        Program running with 4 parallel MPI-processes     *
           *              working on a common directory               *
           ************************************************************
-------------------------------------------------------------------------------
                                 ORCA SCF
-------------------------------------------------------------------------------

------------
SCF SETTINGS
------------
Hamiltonian:
 Density Functional     Method          .... DFT(GTOs)
 Exchange Functional    Exchange        .... WB97X
 Correlation Functional Correlation     .... WB97X
 Gradients option       PostSCFGGA      .... off
 Hybrid DFT is turned on
   Fraction HF Exchange ScalHFX         ....  0.157706
   Scaling of DF-GGA-X  ScalDFX         ....  0.000000
   Scaling of DF-GGA-C  ScalDFC         ....  1.000000
   Scaling of DF-LDA-C  ScalLDAC        ....  1.000000
   Perturbative correction              ....  0.000000
   Density functional embedding theory  .... OFF
 Long-range corrected/Screened/Range-Separated Hybrid DFT is turned on
   Amount of maximum screened exact exchange              ....  0.842294
   Range separation parameter mu (erf(mu*r12)/r12)        ....  0.300000
 RI-approximation to the Coulomb term is turned on
   Number of AuxJ basis functions       .... 715
   RIJ-COSX (HFX calculated with COS-X)).... on


General Settings:
 Integral files         IntName         .... iPrH_Water
 Hartree-Fock type      HFTyp           .... RHF
 Total Charge           Charge          ....    0
 Multiplicity           Mult            ....    1
 Number of Electrons    NEL             ....   84
 Basis Dimension        Dim             ....  234
 Nuclear Repulsion      ENuc            ....    629.4727062087 Eh

Convergence Acceleration:
 DIIS                   CNVDIIS         .... on
   Start iteration      DIISMaxIt       ....     0
   Startup error        DIISStart       ....  0.200000
   # of expansion vecs  DIISMaxEq       ....     5
   Bias factor          DIISBfac        ....   1.050
   Max. coefficient     DIISMaxC        ....  10.000
 Trust-Rad. Augm. Hess. CNVTRAH         .... auto
   Auto Start mean grad. ratio tolernc. ....  1.125000
   Auto Start start iteration           ....    20
   Auto Start num. interpolation iter.  ....    10
   Max. Number of Micro iterations      ....    16
   Max. Number of Macro iterations      .... Maxiter - #DIIS iter
   Number of Davidson start vectors     ....     2
   Converg. threshold I  (grad. norm)   ....   1.000e-05
   Converg. threshold II (energy diff.) ....   1.000e-08
   Grad. Scal. Fac. for Micro threshold ....   0.100
   Minimum threshold for Micro iter.    ....   0.010
   NR start threshold (gradient norm)   ....   0.001
   Initial trust radius                 ....   0.400
   Minimum AH scaling param. (alpha)    ....   1.000
   Maximum AH scaling param. (alpha)    .... 1000.000
   Orbital update algorithm             .... Taylor
   White noise on init. David. guess    .... on
   Maximum white noise                  ....   0.010
   Quad. conv. algorithm                .... NR
 SOSCF                  CNVSOSCF        .... on
   Start iteration      SOSCFMaxIt      ....   150
   Startup grad/error   SOSCFStart      ....  0.001000
 Level Shifting         CNVShift        .... on
   Level shift para.    LevelShift      ....    0.2500
   Turn off err/grad.   ShiftErr        ....    0.0000
 Zerner damping         CNVZerner       .... off
 Static damping         CNVDamp         .... on
   Fraction old density DampFac         ....    0.8500
   Max. Damping (<1)    DampMax         ....    0.9800
   Min. Damping (>=0)   DampMin         ....    0.0000
   Turn off err/grad.   DampErr         ....    0.0300
 Fernandez-Rico         CNVRico         .... off

SCF Procedure:
 Maximum # iterations   MaxIter         ....   125
 SCF integral mode      SCFMode         .... Direct
   Integral package                     .... SHARK and LIBINT hybrid scheme
 Reset frequency        DirectResetFreq ....    20
 Integral Threshold     Thresh          ....  2.500e-11 Eh
 Primitive CutOff       TCut            ....  2.500e-12 Eh

Convergence Tolerance:
 Convergence Check Mode ConvCheckMode   .... Total+1el-Energy
 Convergence forced     ConvForced      .... 0
 Energy Change          TolE            ....  1.000e-08 Eh
 1-El. energy change                    ....  1.000e-05 Eh
 Orbital Gradient       TolG            ....  1.000e-05
 Orbital Rotation angle TolX            ....  1.000e-05
 DIIS Error             TolErr          ....  5.000e-07


Diagonalization of the overlap matrix:
Smallest eigenvalue                        ... 1.198e-03
Time for diagonalization                   ...    0.009 sec
Threshold for overlap eigenvalues          ... 1.000e-08
Number of eigenvalues below threshold      ... 0
Time for construction of square roots      ...    0.005 sec
Total time needed                          ...    0.015 sec

Time for model grid setup =    0.255 sec

------------------------------
INITIAL GUESS: MODEL POTENTIAL
------------------------------
Loading Hartree-Fock densities                     ... done
Calculating cut-offs                               ... done
Initializing the effective Hamiltonian             ... done
Setting up the integral package (SHARK)            ... done
Starting the Coulomb interaction                   ... done (   0.1 sec)
Reading the grid                                   ... done
Mapping shells                                     ... done
Starting the XC term evaluation                    ... done (   0.1 sec)
  promolecular density results
     # of electrons  =     83.983421596
     EX              =    -63.842502639
     EC              =     -2.772044814
     EX+EC           =    -66.614547453
Transforming the Hamiltonian                       ... done (   0.0 sec)
Diagonalizing the Hamiltonian                      ... done (   0.0 sec)
Back transforming the eigenvectors                 ... done (   0.0 sec)
Now organizing SCF variables                       ... done
                      ------------------
                      INITIAL GUESS DONE (   0.5 sec)
                      ------------------
-------------------
DFT GRID GENERATION
-------------------

General Integration Accuracy     IntAcc      ... 4.388
Radial Grid Type                 RadialGrid  ... OptM3 with GC (2021)
Angular Grid (max. ang.)         AngularGrid ... 4 (Lebedev-302)
Angular grid pruning method      GridPruning ... 4 (adaptive)
Weight generation scheme         WeightScheme... Becke
Basis function cutoff            BFCut       ... 1.0000e-11
Integration weight cutoff        WCut        ... 1.0000e-14
Angular grids for H and He will be reduced by one unit
Partially contracted basis set               ... off
Rotationally invariant grid construction     ... off

Total number of grid points                  ...   117051
Total number of batches                      ...     1839
Average number of points per batch           ...       63
Average number of grid points per atom       ...     4335
Time for grid setup =    0.797 sec

--------------------
COSX GRID GENERATION
--------------------

GRIDX 1
-------
General Integration Accuracy     IntAcc      ... 3.816
Radial Grid Type                 RadialGrid  ... OptM3 with GC (2021)
Angular Grid (max. ang.)         AngularGrid ... 1 (Lebedev-50)
Angular grid pruning method      GridPruning ... 4 (adaptive)
Weight generation scheme         WeightScheme... Becke
Basis function cutoff            BFCut       ... 1.0000e-11
Integration weight cutoff        WCut        ... 1.0000e-14
Angular grids for H and He will be reduced by one unit
Partially contracted basis set               ... on
Rotationally invariant grid construction     ... off

Total number of grid points                  ...    14965
Total number of batches                      ...      248
Average number of points per batch           ...       60
Average number of grid points per atom       ...      554
UseSFitting                                  ... on

GRIDX 2
-------
General Integration Accuracy     IntAcc      ... 4.020
Radial Grid Type                 RadialGrid  ... OptM3 with GC (2021)
Angular Grid (max. ang.)         AngularGrid ... 2 (Lebedev-110)
Angular grid pruning method      GridPruning ... 4 (adaptive)
Weight generation scheme         WeightScheme... Becke
Basis function cutoff            BFCut       ... 1.0000e-11
Integration weight cutoff        WCut        ... 1.0000e-14
Angular grids for H and He will be reduced by one unit
Partially contracted basis set               ... on
Rotationally invariant grid construction     ... off

Total number of grid points                  ...    31459
Total number of batches                      ...      503
Average number of points per batch           ...       62
Average number of grid points per atom       ...     1165
UseSFitting                                  ... on

GRIDX 3
-------
General Integration Accuracy     IntAcc      ... 4.338
Radial Grid Type                 RadialGrid  ... OptM3 with GC (2021)
Angular Grid (max. ang.)         AngularGrid ... 3 (Lebedev-194)
Angular grid pruning method      GridPruning ... 4 (adaptive)
Weight generation scheme         WeightScheme... Becke
Basis function cutoff            BFCut       ... 1.0000e-11
Integration weight cutoff        WCut        ... 1.0000e-14
Angular grids for H and He will be reduced by one unit
Partially contracted basis set               ... on
Rotationally invariant grid construction     ... off

Total number of grid points                  ...    68541
Total number of batches                      ...     1086
Average number of points per batch           ...       63
Average number of grid points per atom       ...     2539
UseSFitting                                  ... on

Time for X-Grid setup             =    0.833 sec


--------------------
CPCM SOLVATION MODEL
--------------------
CPCM parameters:
  Epsilon                                         ...      80.4000
  Refrac                                          ...       1.3300
  Rsolv                                           ...       1.3000
  Surface type                                    ... GAUSSIAN VDW
  Epsilon function type                           ...         CPCM
Radii:
 Radius for C  used is    3.8550 Bohr (=   2.0400 Ang.)
 Radius for N  used is    3.5149 Bohr (=   1.8600 Ang.)
 Radius for H  used is    2.4944 Bohr (=   1.3200 Ang.)
Calculating surface                               ...        done! (  0.0s)
GEPOL surface points                              ...         1473
GEPOL Volume                                      ...    1447.3283
GEPOL Surface-area                                ...     802.7768
Calculating surface distance matrix               ...        done! (  0.0s)
Performing Cholesky decomposition & store         ...        done! (  0.1s)
Overall time for CPCM initialization              ...                 0.1s
--------------
SCF ITERATIONS
--------------
ITER       Energy         Delta-E        Max-DP      RMS-DP      [F,P]     Damp
               ***  Starting incremental Fock matrix formation  ***
  0   -461.3783790617   0.000000000000 0.03533515  0.00070695  0.1521906 0.8500
  1   -461.4291569841  -0.050777922441 0.03803111  0.00067581  0.1227993 0.8500
                               ***Turning on DIIS***
  2   -461.4681016173  -0.038944633152 0.03387777  0.00055623  0.0944323 0.8500
  3   -461.4972076734  -0.029106056116 0.02842079  0.00039893  0.0717040 0.8500
  4   -461.5197214825  -0.022513809137 0.02381418  0.00030535  0.0571482 0.8500
  5   -461.5374791787  -0.017757696190 0.02010991  0.00024945  0.0472970 0.8500
  6   -461.5519081064  -0.014428927716 0.01710026  0.00020973  0.0398107 0.8500
  7   -461.5638377109  -0.011929604442 0.01464756  0.00018000  0.0337345 0.8500
  8   -461.5738046656  -0.009966954758 0.08420162  0.00103216  0.0285377 0.0000
  9   -461.6273432024  -0.053538536802 0.00155659  0.00003863  0.0011816 0.0000
                      *** Initiating the SOSCF procedure ***
                           *** Shutting down DIIS ***
                      *** Re-Reading the Fockian *** 
                      *** Removing any level shift *** 
ITER      Energy       Delta-E        Grad      Rot      Max-DP    RMS-DP
 10   -461.62736467  -0.0000214690  0.000230  0.000230  0.000525  0.000017
               *** Restarting incremental Fock matrix formation ***
 11   -461.62744433  -0.0000796549  0.000239  0.000527  0.000862  0.000013
 12   -461.62744506  -0.0000007368  0.000088  0.000243  0.000252  0.000008
 13   -461.62744530  -0.0000002398  0.000028  0.000028  0.000208  0.000002
 14   -461.62744532  -0.0000000203  0.000010  0.000024  0.000066  0.000001
 15   -461.62744532   0.0000000043  0.000003  0.000009  0.000022  0.000000
                  ***Gradient check signals convergence***
              ***Rediagonalizing the Fockian in SOSCF/NRSCF***

               *****************************************************
               *                     SUCCESS                       *
               *           SCF CONVERGED AFTER  16 CYCLES          *
               *****************************************************

Old exchange energy                            =    -21.363550060 Eh
New exchange energy                            =    -21.363586677 Eh
Exchange energy change after final integration =     -0.000036617 Eh
Total energy after final integration           =   -461.627481939 Eh
Final COS-X integration done in                =    13.985 sec

----------------
TOTAL SCF ENERGY
----------------

Total Energy       :         -461.62748194 Eh          -12561.52240 eV

Components:
Nuclear Repulsion  :          629.47270621 Eh           17128.82315 eV
Electronic Energy  :        -1091.10018815 Eh          -29690.34555 eV
One Electron Energy:        -1870.54995185 Eh          -50900.25191 eV
Two Electron Energy:          779.44976370 Eh           21209.90636 eV
Max COSX asymmetry :            0.00000242 Eh               0.00007 eV
CPCM Dielectric    :           -0.01563157 Eh              -0.42536 eV

Virial components:
Potential Energy   :         -917.70630007 Eh          -24972.05798 eV
Kinetic Energy     :          456.07881813 Eh           12410.53558 eV
Virial Ratio       :            2.01216602


DFT components:
N(Alpha)           :       42.000002475783 electrons
N(Beta)            :       42.000002475783 electrons
N(Total)           :       84.000004951565 electrons
E(XC)              :      -47.089706399024 Eh       
DFET-embed. en.    :        0.000000000000 Eh       
CPCM Solvation Model Properties:
Surface-charge          :           -0.02689107
Charge-correction       :           -0.00045352 Eh              -0.01234 eV
Free-energy (cav+disp)  :  This term is not implemented in the current solvation scheme

---------------
SCF CONVERGENCE
---------------

  Last Energy change         ...   -2.6042e-09  Tolerance :   1.0000e-08
  Last MAX-Density change    ...    6.2172e-15  Tolerance :   1.0000e-07
  Last RMS-Density change    ...    4.6313e-17  Tolerance :   5.0000e-09
  Last Orbital Gradient      ...    6.0172e-07  Tolerance :   1.0000e-05
  Last Orbital Rotation      ...    2.4930e-06  Tolerance :   1.0000e-05

             **** THE GBW FILE WAS UPDATED (iPrH_Water.gbw) ****
             **** DENSITY iPrH_Water.scfp WAS UPDATED ****
             **** ENERGY FILE WAS UPDATED (iPrH_Water.en.tmp) ****
             **** THE GBW FILE WAS UPDATED (iPrH_Water.gbw) ****
             **** DENSITY iPrH_Water.scfp WAS UPDATED ****
----------------
ORBITAL ENERGIES
----------------

  NO   OCC          E(Eh)            E(eV) 
   0   2.0000     -14.446477      -393.1086 
   1   2.0000     -14.446476      -393.1086 
   2   2.0000     -10.308233      -280.5013 
   3   2.0000     -10.308200      -280.5004 
   4   2.0000     -10.294302      -280.1222 
   5   2.0000     -10.293713      -280.1062 
   6   2.0000     -10.278428      -279.6902 
   7   2.0000     -10.260504      -279.2025 
   8   2.0000     -10.260500      -279.2024 
   9   2.0000     -10.260496      -279.2023 
  10   2.0000     -10.260491      -279.2022 
  11   2.0000      -1.142916       -31.1003 
  12   2.0000      -1.036799       -28.2127 
  13   2.0000      -0.932453       -25.3733 
  14   2.0000      -0.881065       -23.9750 
  15   2.0000      -0.865059       -23.5394 
  16   2.0000      -0.809069       -22.0159 
  17   2.0000      -0.808715       -22.0062 
  18   2.0000      -0.757899       -20.6235 
  19   2.0000      -0.746213       -20.3055 
  20   2.0000      -0.675846       -18.3907 
  21   2.0000      -0.661108       -17.9897 
  22   2.0000      -0.622458       -16.9380 
  23   2.0000      -0.585419       -15.9301 
  24   2.0000      -0.574593       -15.6355 
  25   2.0000      -0.557354       -15.1664 
  26   2.0000      -0.557172       -15.1614 
  27   2.0000      -0.534584       -14.5468 
  28   2.0000      -0.532490       -14.4898 
  29   2.0000      -0.527919       -14.3654 
  30   2.0000      -0.500636       -13.6230 
  31   2.0000      -0.492562       -13.4033 
  32   2.0000      -0.484733       -13.1903 
  33   2.0000      -0.483194       -13.1484 
  34   2.0000      -0.465125       -12.6567 
  35   2.0000      -0.456476       -12.4213 
  36   2.0000      -0.445248       -12.1158 
  37   2.0000      -0.442579       -12.0432 
  38   2.0000      -0.434501       -11.8234 
  39   2.0000      -0.368982       -10.0405 
  40   2.0000      -0.326847        -8.8940 
  41   2.0000      -0.325124        -8.8471 
  42   0.0000       0.123311         3.3555 
  43   0.0000       0.127995         3.4829 
  44   0.0000       0.151686         4.1276 
  45   0.0000       0.152307         4.1445 
  46   0.0000       0.182413         4.9637 
  47   0.0000       0.183107         4.9826 
  48   0.0000       0.202411         5.5079 
  49   0.0000       0.207052         5.6342 
  50   0.0000       0.208288         5.6678 
  51   0.0000       0.217806         5.9268 
  52   0.0000       0.221317         6.0223 
  53   0.0000       0.228220         6.2102 
  54   0.0000       0.254036         6.9127 
  55   0.0000       0.254403         6.9227 
  56   0.0000       0.259036         7.0487 
  57   0.0000       0.267577         7.2812 
  58   0.0000       0.268392         7.3033 
  59   0.0000       0.272670         7.4197 
  60   0.0000       0.282422         7.6851 
  61   0.0000       0.285161         7.7596 
  62   0.0000       0.294246         8.0068 
  63   0.0000       0.321191         8.7401 
  64   0.0000       0.339367         9.2346 
  65   0.0000       0.344422         9.3722 
  66   0.0000       0.351094         9.5537 
  67   0.0000       0.355839         9.6829 
  68   0.0000       0.363635         9.8950 
  69   0.0000       0.431264        11.7353 
  70   0.0000       0.452846        12.3226 
  71   0.0000       0.482603        13.1323 
  72   0.0000       0.496324        13.5057 
  73   0.0000       0.512476        13.9452 
  74   0.0000       0.516930        14.0664 
  75   0.0000       0.524169        14.2634 
  76   0.0000       0.529951        14.4207 
  77   0.0000       0.530655        14.4399 
  78   0.0000       0.558924        15.2091 
  79   0.0000       0.566228        15.4079 
  80   0.0000       0.570182        15.5154 
  81   0.0000       0.626293        17.0423 
  82   0.0000       0.649620        17.6771 
  83   0.0000       0.650314        17.6960 
  84   0.0000       0.668492        18.1906 
  85   0.0000       0.670978        18.2582 
  86   0.0000       0.688505        18.7352 
  87   0.0000       0.696002        18.9392 
  88   0.0000       0.708130        19.2692 
  89   0.0000       0.708297        19.2738 
  90   0.0000       0.731693        19.9104 
  91   0.0000       0.740639        20.1538 
  92   0.0000       0.744437        20.2571 
  93   0.0000       0.744675        20.2636 
  94   0.0000       0.760571        20.6962 
  95   0.0000       0.765299        20.8249 
  96   0.0000       0.771585        20.9959 
  97   0.0000       0.776113        21.1191 
  98   0.0000       0.779487        21.2109 
  99   0.0000       0.780904        21.2495 
 100   0.0000       0.797148        21.6915 
 101   0.0000       0.799945        21.7676 
 102   0.0000       0.803552        21.8657 
 103   0.0000       0.809350        22.0235 
 104   0.0000       0.811948        22.0942 
 105   0.0000       0.815319        22.1859 
 106   0.0000       0.816920        22.2295 
 107   0.0000       0.825770        22.4703 
 108   0.0000       0.827746        22.5241 
 109   0.0000       0.837938        22.8015 
 110   0.0000       0.839773        22.8514 
 111   0.0000       0.845234        23.0000 
 112   0.0000       0.856072        23.2949 
 113   0.0000       0.856796        23.3146 
 114   0.0000       0.868164        23.6240 
 115   0.0000       0.944001        25.6876 
 116   0.0000       0.992618        27.0105 
 117   0.0000       1.033768        28.1303 
 118   0.0000       1.046644        28.4806 
 119   0.0000       1.088328        29.6149 
 120   0.0000       1.092307        29.7232 
 121   0.0000       1.100241        29.9391 
 122   0.0000       1.155694        31.4480 
 123   0.0000       1.161757        31.6130 
 124   0.0000       1.163105        31.6497 
 125   0.0000       1.182729        32.1837 
 126   0.0000       1.228387        33.4261 
 127   0.0000       1.258060        34.2336 
 128   0.0000       1.277050        34.7503 
 129   0.0000       1.289865        35.0990 
 130   0.0000       1.305103        35.5136 
 131   0.0000       1.363963        37.1153 
 132   0.0000       1.366277        37.1783 
 133   0.0000       1.401877        38.1470 
 134   0.0000       1.423133        38.7254 
 135   0.0000       1.483361        40.3643 
 136   0.0000       1.514850        41.2212 
 137   0.0000       1.526246        41.5313 
 138   0.0000       1.540640        41.9229 
 139   0.0000       1.591262        43.3004 
 140   0.0000       1.600682        43.5568 
 141   0.0000       1.640618        44.6435 
 142   0.0000       1.651397        44.9368 
 143   0.0000       1.658032        45.1173 
 144   0.0000       1.659213        45.1495 
 145   0.0000       1.661000        45.1981 
 146   0.0000       1.666548        45.3491 
 147   0.0000       1.703059        46.3426 
 148   0.0000       1.777077        48.3567 
 149   0.0000       1.794397        48.8280 
 150   0.0000       1.813369        49.3443 
 151   0.0000       1.828880        49.7664 
 152   0.0000       1.831644        49.8416 
 153   0.0000       1.861579        50.6561 
 154   0.0000       1.880898        51.1818 
 155   0.0000       1.897649        51.6377 
 156   0.0000       1.902283        51.7637 
 157   0.0000       1.916874        52.1608 
 158   0.0000       1.920831        52.2685 
 159   0.0000       1.925485        52.3951 
 160   0.0000       1.930965        52.5442 
 161   0.0000       1.932343        52.5817 
 162   0.0000       1.939997        52.7900 
 163   0.0000       1.948052        53.0092 
 164   0.0000       1.959975        53.3336 
 165   0.0000       1.961155        53.3657 
 166   0.0000       1.969143        53.5831 
 167   0.0000       1.969625        53.5962 
 168   0.0000       1.995936        54.3122 
 169   0.0000       1.998135        54.3720 
 170   0.0000       2.000033        54.4237 
 171   0.0000       2.000461        54.4353 
 172   0.0000       2.011787        54.7435 
 173   0.0000       2.043521        55.6070 
 174   0.0000       2.049102        55.7589 
 175   0.0000       2.064502        56.1779 
 176   0.0000       2.084109        56.7115 
 177   0.0000       2.088251        56.8242 
 178   0.0000       2.096574        57.0507 
 179   0.0000       2.153177        58.5909 
 180   0.0000       2.176221        59.2180 
 181   0.0000       2.185809        59.4789 
 182   0.0000       2.216604        60.3169 
 183   0.0000       2.245990        61.1165 
 184   0.0000       2.268604        61.7319 
 185   0.0000       2.284243        62.1574 
 186   0.0000       2.295594        62.4663 
 187   0.0000       2.308282        62.8115 
 188   0.0000       2.375973        64.6535 
 189   0.0000       2.377584        64.6974 
 190   0.0000       2.389202        65.0135 
 191   0.0000       2.391850        65.0856 
 192   0.0000       2.471119        67.2426 
 193   0.0000       2.472418        67.2779 
 194   0.0000       2.480361        67.4941 
 195   0.0000       2.504936        68.1628 
 196   0.0000       2.519256        68.5524 
 197   0.0000       2.524828        68.7041 
 198   0.0000       2.575280        70.0769 
 199   0.0000       2.584841        70.3371 
 200   0.0000       2.611079        71.0511 
 201   0.0000       2.614899        71.1550 
 202   0.0000       2.615352        71.1673 
 203   0.0000       2.626564        71.4724 
 204   0.0000       2.681662        72.9717 
 205   0.0000       2.691489        73.2391 
 206   0.0000       2.699365        73.4535 
 207   0.0000       2.707988        73.6881 
 208   0.0000       2.805664        76.3460 
 209   0.0000       2.814490        76.5862 
 210   0.0000       2.816706        76.6465 
 211   0.0000       2.829892        77.0053 
 212   0.0000       2.834398        77.1279 
 213   0.0000       2.887664        78.5773 
 214   0.0000       2.957684        80.4827 
 215   0.0000       2.982802        81.1662 
 216   0.0000       2.985962        81.2522 
 217   0.0000       2.992213        81.4222 
 218   0.0000       2.998584        81.5956 
 219   0.0000       3.009074        81.8811 
 220   0.0000       3.022179        82.2377 
 221   0.0000       3.037493        82.6544 
 222   0.0000       3.043039        82.8053 
 223   0.0000       3.083672        83.9110 
 224   0.0000       3.086547        83.9892 
 225   0.0000       3.136924        85.3600 
 226   0.0000       3.137860        85.3855 
 227   0.0000       3.143665        85.5435 
 228   0.0000       3.149179        85.6935 
 229   0.0000       3.192783        86.8800 
 230   0.0000       3.298507        89.7569 
 231   0.0000       3.423114        93.1477 
 232   0.0000       3.432871        93.4132 
 233   0.0000       3.663263        99.6825 

                    ********************************
                    * MULLIKEN POPULATION ANALYSIS *
                    ********************************

-----------------------
MULLIKEN ATOMIC CHARGES
-----------------------
   0 C :    0.003010
   1 C :    0.003010
   2 N :   -0.226659
   3 N :   -0.226660
   4 C :    0.025877
   5 C :    0.025876
   6 C :   -0.202327
   7 C :   -0.005575
   8 C :   -0.005574
   9 C :   -0.005574
  10 C :   -0.005575
  11 H :    0.059286
  12 H :    0.059286
  13 H :    0.024813
  14 H :    0.024813
  15 H :    0.033074
  16 H :    0.033074
  17 H :    0.033074
  18 H :    0.033073
  19 H :    0.043532
  20 H :    0.043532
  21 H :    0.043532
  22 H :    0.043532
  23 H :    0.036388
  24 H :    0.036387
  25 H :    0.036387
  26 H :    0.036388
Sum of atomic charges:    0.0000000

--------------------------------
MULLIKEN REDUCED ORBITAL CHARGES
--------------------------------
  0 C s       :     3.081825  s :     3.081825
      pz      :     1.035799  p :     2.859361
      px      :     1.013101
      py      :     0.810462
      dz2     :     0.011920  d :     0.055803
      dxz     :     0.005996
      dyz     :     0.008207
      dx2y2   :     0.015768
      dxy     :     0.013914
  1 C s       :     3.081824  s :     3.081824
      pz      :     1.035800  p :     2.859362
      px      :     1.013101
      py      :     0.810462
      dz2     :     0.011919  d :     0.055803
      dxz     :     0.005996
      dyz     :     0.008207
      dx2y2   :     0.015768
      dxy     :     0.013914
  2 N s       :     3.400805  s :     3.400805
      pz      :     1.113010  p :     3.794582
      px      :     1.509362
      py      :     1.172210
      dz2     :     0.008452  d :     0.031273
      dxz     :     0.005372
      dyz     :     0.008986
      dx2y2   :     0.004613
      dxy     :     0.003849
  3 N s       :     3.400805  s :     3.400805
      pz      :     1.113010  p :     3.794582
      px      :     1.509362
      py      :     1.172210
      dz2     :     0.008452  d :     0.031273
      dxz     :     0.005372
      dyz     :     0.008986
      dx2y2   :     0.004613
      dxy     :     0.003849
  4 C s       :     3.151913  s :     3.151913
      pz      :     0.797503  p :     2.775265
      px      :     1.075468
      py      :     0.902295
      dz2     :     0.014191  d :     0.046945
      dxz     :     0.007507
      dyz     :     0.012612
      dx2y2   :     0.004739
      dxy     :     0.007896
  5 C s       :     3.151913  s :     3.151913
      pz      :     0.797502  p :     2.775266
      px      :     1.075468
      py      :     0.902295
      dz2     :     0.014191  d :     0.046945
      dxz     :     0.007507
      dyz     :     0.012612
      dx2y2   :     0.004739
      dxy     :     0.007896
  6 C s       :     3.625150  s :     3.625150
      pz      :     1.145028  p :     2.512953
      px      :     0.712515
      py      :     0.655411
      dz2     :     0.008148  d :     0.064223
      dxz     :     0.009368
      dyz     :     0.028062
      dx2y2   :     0.007106
      dxy     :     0.011539
  7 C s       :     2.998469  s :     2.998469
      pz      :     1.018136  p :     2.980727
      px      :     0.962894
      py      :     0.999697
      dz2     :     0.007990  d :     0.026378
      dxz     :     0.003188
      dyz     :     0.003632
      dx2y2   :     0.005767
      dxy     :     0.005801
  8 C s       :     2.998469  s :     2.998469
      pz      :     1.018136  p :     2.980727
      px      :     0.962894
      py      :     0.999697
      dz2     :     0.007990  d :     0.026378
      dxz     :     0.003188
      dyz     :     0.003632
      dx2y2   :     0.005767
      dxy     :     0.005801
  9 C s       :     2.998468  s :     2.998468
      pz      :     1.018136  p :     2.980728
      px      :     0.962894
      py      :     0.999698
      dz2     :     0.007990  d :     0.026378
      dxz     :     0.003188
      dyz     :     0.003632
      dx2y2   :     0.005767
      dxy     :     0.005801
 10 C s       :     2.998469  s :     2.998469
      pz      :     1.018136  p :     2.980728
      px      :     0.962894
      py      :     0.999697
      dz2     :     0.007990  d :     0.026378
      dxz     :     0.003188
      dyz     :     0.003632
      dx2y2   :     0.005767
      dxy     :     0.005801
 11 H s       :     0.916022  s :     0.916022
      pz      :     0.010871  p :     0.024692
      px      :     0.005271
      py      :     0.008550
 12 H s       :     0.916022  s :     0.916022
      pz      :     0.010871  p :     0.024692
      px      :     0.005271
      py      :     0.008550
 13 H s       :     0.954014  s :     0.954014
      pz      :     0.015395  p :     0.021173
      px      :     0.003326
      py      :     0.002452
 14 H s       :     0.954013  s :     0.954013
      pz      :     0.015395  p :     0.021173
      px      :     0.003326
      py      :     0.002452
 15 H s       :     0.942832  s :     0.942832
      pz      :     0.015192  p :     0.024095
      px      :     0.004043
      py      :     0.004860
 16 H s       :     0.942832  s :     0.942832
      pz      :     0.015192  p :     0.024095
      px      :     0.004043
      py      :     0.004860
 17 H s       :     0.942832  s :     0.942832
      pz      :     0.015192  p :     0.024095
      px      :     0.004043
      py      :     0.004860
 18 H s       :     0.942832  s :     0.942832
      pz      :     0.015192  p :     0.024095
      px      :     0.004043
      py      :     0.004860
 19 H s       :     0.932304  s :     0.932304
      pz      :     0.006588  p :     0.024164
      px      :     0.004118
      py      :     0.013458
 20 H s       :     0.932304  s :     0.932304
      pz      :     0.006588  p :     0.024164
      px      :     0.004118
      py      :     0.013458
 21 H s       :     0.932304  s :     0.932304
      pz      :     0.006588  p :     0.024164
      px      :     0.004118
      py      :     0.013458
 22 H s       :     0.932303  s :     0.932303
      pz      :     0.006588  p :     0.024164
      px      :     0.004118
      py      :     0.013458
 23 H s       :     0.939753  s :     0.939753
      pz      :     0.005754  p :     0.023860
      px      :     0.010941
      py      :     0.007164
 24 H s       :     0.939753  s :     0.939753
      pz      :     0.005754  p :     0.023860
      px      :     0.010941
      py      :     0.007164
 25 H s       :     0.939753  s :     0.939753
      pz      :     0.005754  p :     0.023860
      px      :     0.010941
      py      :     0.007164
 26 H s       :     0.939753  s :     0.939753
      pz      :     0.005754  p :     0.023860
      px      :     0.010941
      py      :     0.007164


                     *******************************
                     * LOEWDIN POPULATION ANALYSIS *
                     *******************************

----------------------
LOEWDIN ATOMIC CHARGES
----------------------
   0 C :    0.032412
   1 C :    0.032412
   2 N :    0.027576
   3 N :    0.027576
   4 C :   -0.030468
   5 C :   -0.030468
   6 C :   -0.314708
   7 C :   -0.059553
   8 C :   -0.059553
   9 C :   -0.059553
  10 C :   -0.059553
  11 H :    0.036987
  12 H :    0.036987
  13 H :    0.026043
  14 H :    0.026043
  15 H :    0.027765
  16 H :    0.027765
  17 H :    0.027765
  18 H :    0.027765
  19 H :    0.035068
  20 H :    0.035067
  21 H :    0.035067
  22 H :    0.035067
  23 H :    0.029123
  24 H :    0.029123
  25 H :    0.029123
  26 H :    0.029123

-------------------------------
LOEWDIN REDUCED ORBITAL CHARGES
-------------------------------
  0 C s       :     2.835470  s :     2.835470
      pz      :     1.053990  p :     3.003449
      px      :     1.048384
      py      :     0.901075
      dz2     :     0.030425  d :     0.128670
      dxz     :     0.012067
      dyz     :     0.018017
      dx2y2   :     0.034741
      dxy     :     0.033419
  1 C s       :     2.835470  s :     2.835470
      pz      :     1.053990  p :     3.003449
      px      :     1.048384
      py      :     0.901075
      dz2     :     0.030425  d :     0.128670
      dxz     :     0.012067
      dyz     :     0.018017
      dx2y2   :     0.034742
      dxy     :     0.033419
  2 N s       :     3.074478  s :     3.074478
      pz      :     1.194369  p :     3.825310
      px      :     1.434259
      py      :     1.196682
      dz2     :     0.021308  d :     0.072636
      dxz     :     0.010501
      dyz     :     0.024385
      dx2y2   :     0.009802
      dxy     :     0.006641
  3 N s       :     3.074478  s :     3.074478
      pz      :     1.194369  p :     3.825310
      px      :     1.434259
      py      :     1.196682
      dz2     :     0.021308  d :     0.072636
      dxz     :     0.010501
      dyz     :     0.024385
      dx2y2   :     0.009802
      dxy     :     0.006641
  4 C s       :     2.858326  s :     2.858326
      pz      :     0.939466  p :     3.055150
      px      :     1.060827
      py      :     1.054856
      dz2     :     0.037824  d :     0.116993
      dxz     :     0.014869
      dyz     :     0.034985
      dx2y2   :     0.013648
      dxy     :     0.015667
  5 C s       :     2.858326  s :     2.858326
      pz      :     0.939466  p :     3.055150
      px      :     1.060828
      py      :     1.054856
      dz2     :     0.037824  d :     0.116993
      dxz     :     0.014869
      dyz     :     0.034985
      dx2y2   :     0.013648
      dxy     :     0.015667
  6 C s       :     3.218334  s :     3.218334
      pz      :     1.375963  p :     2.957651
      px      :     0.763688
      py      :     0.818000
      dz2     :     0.013477  d :     0.138724
      dxz     :     0.013062
      dyz     :     0.065436
      dx2y2   :     0.021642
      dxy     :     0.025108
  7 C s       :     2.835905  s :     2.835905
      pz      :     1.067726  p :     3.153819
      px      :     1.027330
      py      :     1.058763
      dz2     :     0.021206  d :     0.069829
      dxz     :     0.007775
      dyz     :     0.009286
      dx2y2   :     0.015270
      dxy     :     0.016292
  8 C s       :     2.835906  s :     2.835906
      pz      :     1.067725  p :     3.153819
      px      :     1.027330
      py      :     1.058763
      dz2     :     0.021206  d :     0.069829
      dxz     :     0.007775
      dyz     :     0.009286
      dx2y2   :     0.015270
      dxy     :     0.016292
  9 C s       :     2.835905  s :     2.835905
      pz      :     1.067726  p :     3.153819
      px      :     1.027330
      py      :     1.058763
      dz2     :     0.021206  d :     0.069829
      dxz     :     0.007775
      dyz     :     0.009286
      dx2y2   :     0.015270
      dxy     :     0.016292
 10 C s       :     2.835905  s :     2.835905
      pz      :     1.067725  p :     3.153819
      px      :     1.027330
      py      :     1.058763
      dz2     :     0.021206  d :     0.069829
      dxz     :     0.007775
      dyz     :     0.009286
      dx2y2   :     0.015270
      dxy     :     0.016292
 11 H s       :     0.889064  s :     0.889064
      pz      :     0.032383  p :     0.073950
      px      :     0.017194
      py      :     0.024373
 12 H s       :     0.889064  s :     0.889064
      pz      :     0.032383  p :     0.073950
      px      :     0.017194
      py      :     0.024373
 13 H s       :     0.906610  s :     0.906610
      pz      :     0.044062  p :     0.067347
      px      :     0.013399
      py      :     0.009885
 14 H s       :     0.906610  s :     0.906610
      pz      :     0.044062  p :     0.067347
      px      :     0.013399
      py      :     0.009885
 15 H s       :     0.905564  s :     0.905564
      pz      :     0.040572  p :     0.066670
      px      :     0.012742
      py      :     0.013356
 16 H s       :     0.905564  s :     0.905564
      pz      :     0.040572  p :     0.066670
      px      :     0.012742
      py      :     0.013356
 17 H s       :     0.905564  s :     0.905564
      pz      :     0.040572  p :     0.066670
      px      :     0.012742
      py      :     0.013356
 18 H s       :     0.905564  s :     0.905564
      pz      :     0.040572  p :     0.066670
      px      :     0.012742
      py      :     0.013356
 19 H s       :     0.898504  s :     0.898504
      pz      :     0.017245  p :     0.066428
      px      :     0.012612
      py      :     0.036572
 20 H s       :     0.898504  s :     0.898504
      pz      :     0.017244  p :     0.066428
      px      :     0.012612
      py      :     0.036572
 21 H s       :     0.898504  s :     0.898504
      pz      :     0.017245  p :     0.066428
      px      :     0.012612
      py      :     0.036572
 22 H s       :     0.898504  s :     0.898504
      pz      :     0.017244  p :     0.066428
      px      :     0.012612
      py      :     0.036572
 23 H s       :     0.904265  s :     0.904265
      pz      :     0.015227  p :     0.066612
      px      :     0.031919
      py      :     0.019466
 24 H s       :     0.904265  s :     0.904265
      pz      :     0.015227  p :     0.066612
      px      :     0.031919
      py      :     0.019466
 25 H s       :     0.904265  s :     0.904265
      pz      :     0.015227  p :     0.066612
      px      :     0.031919
      py      :     0.019466
 26 H s       :     0.904265  s :     0.904265
      pz      :     0.015227  p :     0.066612
      px      :     0.031919
      py      :     0.019466


                      *****************************
                      * MAYER POPULATION ANALYSIS *
                      *****************************

  NA   - Mulliken gross atomic population
  ZA   - Total nuclear charge
  QA   - Mulliken gross atomic charge
  VA   - Mayer's total valence
  BVA  - Mayer's bonded valence
  FA   - Mayer's free valence

  ATOM       NA         ZA         QA         VA         BVA        FA
  0 C      5.9970     6.0000     0.0030     4.0831     4.0831     0.0000
  1 C      5.9970     6.0000     0.0030     4.0831     4.0831    -0.0000
  2 N      7.2267     7.0000    -0.2267     3.3130     3.3130     0.0000
  3 N      7.2267     7.0000    -0.2267     3.3130     3.3130     0.0000
  4 C      5.9741     6.0000     0.0259     3.8465     3.8465     0.0000
  5 C      5.9741     6.0000     0.0259     3.8465     3.8465     0.0000
  6 C      6.2023     6.0000    -0.2023     2.7137     2.7137    -0.0000
  7 C      6.0056     6.0000    -0.0056     3.9529     3.9529     0.0000
  8 C      6.0056     6.0000    -0.0056     3.9529     3.9529    -0.0000
  9 C      6.0056     6.0000    -0.0056     3.9529     3.9529    -0.0000
 10 C      6.0056     6.0000    -0.0056     3.9529     3.9529     0.0000
 11 H      0.9407     1.0000     0.0593     0.9994     0.9994     0.0000
 12 H      0.9407     1.0000     0.0593     0.9994     0.9994    -0.0000
 13 H      0.9752     1.0000     0.0248     1.0060     1.0060     0.0000
 14 H      0.9752     1.0000     0.0248     1.0060     1.0060    -0.0000
 15 H      0.9669     1.0000     0.0331     0.9995     0.9995     0.0000
 16 H      0.9669     1.0000     0.0331     0.9995     0.9995    -0.0000
 17 H      0.9669     1.0000     0.0331     0.9995     0.9995    -0.0000
 18 H      0.9669     1.0000     0.0331     0.9995     0.9995    -0.0000
 19 H      0.9565     1.0000     0.0435     0.9942     0.9942     0.0000
 20 H      0.9565     1.0000     0.0435     0.9942     0.9942    -0.0000
 21 H      0.9565     1.0000     0.0435     0.9942     0.9942     0.0000
 22 H      0.9565     1.0000     0.0435     0.9942     0.9942     0.0000
 23 H      0.9636     1.0000     0.0364     0.9957     0.9957     0.0000
 24 H      0.9636     1.0000     0.0364     0.9957     0.9957    -0.0000
 25 H      0.9636     1.0000     0.0364     0.9957     0.9957    -0.0000
 26 H      0.9636     1.0000     0.0364     0.9957     0.9957    -0.0000

  Mayer bond orders larger than 0.100000
B(  0-C ,  2-N ) :   0.9091 B(  0-C ,  7-C ) :   1.0708 B(  0-C ,  8-C ) :   1.0708 
B(  0-C , 13-H ) :   0.9326 B(  1-C ,  3-N ) :   0.9091 B(  1-C ,  9-C ) :   1.0708 
B(  1-C , 10-C ) :   1.0708 B(  1-C , 14-H ) :   0.9326 B(  2-N ,  4-C ) :   1.1206 
B(  2-N ,  6-C ) :   1.2407 B(  3-N ,  5-C ) :   1.1206 B(  3-N ,  6-C ) :   1.2407 
B(  4-C ,  5-C ) :   1.6314 B(  4-C , 11-H ) :   0.9918 B(  5-C , 12-H ) :   0.9918 
B(  7-C , 15-H ) :   0.9655 B(  7-C , 19-H ) :   0.9720 B(  7-C , 23-H ) :   0.9685 
B(  8-C , 16-H ) :   0.9655 B(  8-C , 20-H ) :   0.9720 B(  8-C , 24-H ) :   0.9685 
B(  9-C , 17-H ) :   0.9655 B(  9-C , 21-H ) :   0.9720 B(  9-C , 25-H ) :   0.9685 
[...]
     68       0.071606  -0.053383   0.052418  -0.144941   0.146051  -0.152761
     69      -0.208370   0.230292   0.232560   0.265491   0.263464  -0.238988
     70       0.128618  -0.140455  -0.141837  -0.158393  -0.157182   0.142862
     71      -0.076276   0.085675   0.086557   0.105176   0.104369  -0.094841
     72      -0.208375  -0.230293  -0.232561   0.265516   0.263490   0.238951
     73      -0.128622  -0.140455  -0.141838   0.158408   0.157198   0.142840
     74       0.076279   0.085677   0.086559  -0.105187  -0.104380  -0.094827
     75       0.206023   0.231215  -0.231655   0.263522  -0.265412  -0.238872
     76      -0.127170  -0.141017   0.141285  -0.157218   0.158344   0.142792
     77      -0.075418  -0.086019   0.086221  -0.104397   0.105141   0.094795
     78       0.206035  -0.231210   0.231648   0.263570  -0.265458   0.238815
     79       0.127177  -0.141014   0.141280   0.157246  -0.158371   0.142758
     80       0.075422  -0.086018   0.086219   0.104416  -0.105160   0.094773
                 78         79         80    
      0       0.000000   0.000000   0.000000
      1      -0.000763  -0.000322  -0.000187
      2      -0.002402   0.000145   0.000513
      3      -0.000000  -0.000000   0.000000
      4       0.000763  -0.000322   0.000187
      5      -0.002403  -0.000145   0.000513
      6       0.000000   0.000000   0.000000
      7       0.000399  -0.000112  -0.000664
      8      -0.000016  -0.000633  -0.002684
      9       0.000000  -0.000000  -0.000000
     10      -0.000399  -0.000112   0.000664
     11      -0.000016   0.000633  -0.002684
     12       0.000000   0.000000   0.000000
     13       0.000098  -0.038912  -0.049705
     14       0.000184   0.047969   0.047928
     15      -0.000000  -0.000000   0.000000
     16      -0.000098  -0.038910   0.049707
     17       0.000184  -0.047967   0.047930
     18      -0.000000  -0.000000  -0.000000
     19      -0.000000   0.001792  -0.000000
     20      -0.000118  -0.000000  -0.001004
     21       0.019068   0.000109   0.000086
     22      -0.041709  -0.000091  -0.000048
     23      -0.010048   0.000584   0.000482
     24      -0.019065  -0.000109  -0.000086
     25      -0.041704  -0.000091  -0.000048
     26      -0.010047   0.000584   0.000482
     27      -0.019078   0.000109  -0.000086
     28       0.041732  -0.000091   0.000048
     29      -0.010054  -0.000584   0.000482
     30       0.019074  -0.000109   0.000086
     31       0.041724  -0.000091   0.000048
     32      -0.010053  -0.000584   0.000482
     33       0.000000  -0.000000  -0.000000
     34       0.000526   0.457369   0.461337
     35      -0.000432  -0.535646  -0.531320
     36      -0.000000   0.000001  -0.000001
     37      -0.000527   0.457348  -0.461358
     38      -0.000432   0.535621  -0.531345
     39      -0.000000   0.000000  -0.000000
     40      -0.000468   0.001006   0.001768
     41       0.025244   0.001707  -0.001484
     42       0.000000   0.000000   0.000000
     43       0.000469   0.001006  -0.001768
     44       0.025257  -0.001707  -0.001484
     45      -0.000090   0.000417   0.000310
     46      -0.009804   0.000664   0.000503
     47       0.062230  -0.006519  -0.005205
     48       0.000091  -0.000417  -0.000310
     49      -0.009803   0.000664   0.000503
     50       0.062230  -0.006518  -0.005205
     51       0.000090   0.000417  -0.000310
     52       0.009810   0.000664  -0.000503
     53       0.062266   0.006518  -0.005205
     54      -0.000091  -0.000417   0.000310
     55       0.009808   0.000664  -0.000503
     56       0.062264   0.006518  -0.005205
     57       0.009357   0.000177   0.000134
     58       0.366601  -0.000600  -0.000757
     59       0.153076  -0.000661  -0.000596
     60      -0.009356  -0.000177  -0.000134
     61       0.366560  -0.000599  -0.000757
     62       0.153058  -0.000661  -0.000596
     63      -0.009362   0.000177  -0.000134
     64      -0.366808  -0.000599   0.000757
     65       0.153162   0.000661  -0.000596
     66       0.009360  -0.000177   0.000134
     67      -0.366736  -0.000600   0.000758
     68       0.153132   0.000661  -0.000596
     69      -0.237562  -0.001850  -0.001350
     70       0.141990   0.001026   0.000778
     71      -0.094302  -0.000679  -0.000497
     72       0.237527   0.001850   0.001350
     73       0.141969   0.001026   0.000778
     74      -0.094289  -0.000679  -0.000497
     75       0.237694  -0.001850   0.001350
     76      -0.142069   0.001026  -0.000778
     77      -0.094355   0.000679  -0.000497
     78      -0.237637   0.001850  -0.001350
     79      -0.142034   0.001026  -0.000778
     80      -0.094333   0.000679  -0.000497


-----------
IR SPECTRUM
-----------

 Mode   freq       eps      Int      T**2         TX        TY        TZ
       cm**-1   L/(mol*cm) km/mol    a.u.
----------------------------------------------------------------------------
  6:     23.14   0.000019    0.10  0.000257  ( 0.016043  0.000000 -0.000000)
  7:     26.73   0.000000    0.00  0.000000  (-0.000001 -0.000000  0.000000)
  8:    115.79   0.003718   18.79  0.010020  (-0.100101  0.000000  0.000000)
  9:    149.06   0.000000    0.00  0.000000  (-0.000001 -0.000000 -0.000000)
 10:    159.44   0.000484    2.44  0.000947  (-0.000000  0.000000 -0.030767)
 11:    232.25   0.000000    0.00  0.000000  (-0.000023 -0.000000 -0.000000)
 12:    232.33   0.000088    0.44  0.000118  (-0.010855  0.000000  0.000000)
 13:    251.47   0.000099    0.50  0.000123  (-0.000000 -0.011087  0.000000)
 14:    262.77   0.000005    0.03  0.000006  ( 0.000000  0.000000  0.002464)
 15:    270.33   0.000001    0.01  0.000001  (-0.000000  0.000000 -0.001134)
 16:    299.57   0.000968    4.89  0.001008  (-0.000000 -0.031749  0.000000)
 17:    354.60   0.000780    3.94  0.000687  (-0.000000 -0.026205 -0.000000)
 18:    403.95   0.004670   23.60  0.003607  ( 0.060062 -0.000000 -0.000000)
 19:    444.96   0.000000    0.00  0.000000  (-0.000000  0.000000  0.000000)
 20:    458.63   0.000036    0.18  0.000025  ( 0.000000 -0.000000 -0.004972)
 21:    573.97   0.003613   18.26  0.001964  (-0.000000  0.044319 -0.000000)
 22:    635.59   0.000048    0.24  0.000024  (-0.000000  0.000000 -0.004862)
 23:    675.06   0.002198   11.11  0.001016  (-0.031879  0.000000 -0.000000)
 24:    682.78   0.000000    0.00  0.000000  ( 0.000000  0.000000 -0.000000)
 25:    690.13   0.002205   11.14  0.000997  ( 0.000000  0.031577  0.000000)
 26:    749.54   0.013717   69.32  0.005711  (-0.075570 -0.000000  0.000000)
 27:    883.67   0.000000    0.00  0.000000  (-0.000000 -0.000000  0.000000)
 28:    907.02   0.002113   10.68  0.000727  (-0.000000 -0.026965 -0.000000)
 29:    911.71   0.000676    3.42  0.000231  (-0.000000 -0.000000  0.015214)
 30:    933.18   0.000000    0.00  0.000000  (-0.000011  0.000000  0.000000)
 31:    933.22   0.000638    3.22  0.000213  (-0.014607  0.000000 -0.000000)
 32:    955.73   0.000218    1.10  0.000071  (-0.008441 -0.000000  0.000000)
 33:    955.84   0.000000    0.00  0.000000  (-0.000001 -0.000000 -0.000000)
 34:   1019.75   0.002826   14.28  0.000865  (-0.000000  0.029410  0.000000)
 35:   1027.16   0.000112    0.57  0.000034  ( 0.000000  0.000000 -0.005828)
 36:   1071.60   0.000358    1.81  0.000104  (-0.000000  0.010217 -0.000000)
 37:   1090.47   0.001563    7.90  0.000447  (-0.000000 -0.000000  0.021147)
 38:   1103.40   0.004885   24.68  0.001381  (-0.000000 -0.000000  0.037168)
 39:   1168.39   0.000000    0.00  0.000000  (-0.000023 -0.000000  0.000000)
 40:   1168.43   0.004121   20.82  0.001101  ( 0.033175  0.000000 -0.000000)
 41:   1187.10   0.000133    0.67  0.000035  (-0.000000  0.000000 -0.005911)
 42:   1193.34   0.000027    0.14  0.000007  ( 0.000000 -0.002647 -0.000000)
 43:   1247.55   0.034875  176.24  0.008724  ( 0.000000 -0.093400  0.000000)
 44:   1319.89   0.005686   28.73  0.001344  ( 0.000000  0.036665  0.000000)
 45:   1325.06   0.000121    0.61  0.000028  (-0.000000  0.000000 -0.005327)
 46:   1347.75   0.000000    0.00  0.000000  ( 0.000001 -0.000000  0.000000)
 47:   1348.07   0.000171    0.86  0.000040  ( 0.006291 -0.000000  0.000000)
 48:   1395.17   0.000216    1.09  0.000048  ( 0.000000  0.006949  0.000000)
 49:   1398.18   0.000157    0.79  0.000035  (-0.000005  0.000000  0.005921)
 50:   1398.90   0.000000    0.00  0.000000  ( 0.000005  0.000000  0.000000)
 51:   1399.19   0.010319   52.15  0.002301  (-0.047973  0.000000 -0.000001)
 52:   1409.06   0.003233   16.34  0.000716  ( 0.000000  0.000001 -0.026757)
 53:   1420.63   0.014499   73.27  0.003185  (-0.000000  0.056436  0.000000)
 54:   1442.65   0.005176   26.16  0.001120  ( 0.000000 -0.000000  0.033462)
 55:   1444.85   0.000000    0.00  0.000000  (-0.000000  0.000000  0.000000)
 56:   1444.85   0.000000    0.00  0.000000  ( 0.000057  0.000000  0.000000)
 57:   1455.56   0.000289    1.46  0.000062  (-0.007877  0.000000 -0.000000)
 58:   1455.58   0.000000    0.00  0.000000  ( 0.000012  0.000000 -0.000000)
 59:   1457.50   0.000728    3.68  0.000156  (-0.000000 -0.012481 -0.000000)
 60:   1460.98   0.004022   20.33  0.000859  ( 0.000000 -0.000000 -0.029310)
 61:   1468.90   0.002330   11.78  0.000495  ( 0.000000  0.022249 -0.000000)
 62:   1479.21   0.001061    5.36  0.000224  (-0.000000 -0.000001  0.014958)
 63:   1487.31   0.024248  122.54  0.005088  ( 0.000000 -0.071328 -0.000000)
 64:   1654.13   0.000021    0.10  0.000004  ( 0.000000 -0.000000  0.001978)
 65:   3062.57   0.000001    0.00  0.000000  ( 0.000275 -0.000000 -0.000000)
 66:   3062.57   0.009754   49.29  0.000994  (-0.031525  0.000001  0.000000)
 67:   3064.94   0.003206   16.20  0.000326  (-0.000001 -0.018068 -0.000008)
 68:   3065.07   0.002000   10.11  0.000204  ( 0.000000 -0.000010  0.014269)
 69:   3126.72   0.002162   10.93  0.000216  ( 0.000000 -0.000001 -0.014691)
 70:   3126.93   0.000304    1.54  0.000030  (-0.000000 -0.005511  0.000003)
 71:   3161.86   0.002979   15.05  0.000294  ( 0.017146  0.000000  0.000000)
 72:   3161.88   0.000000    0.00  0.000000  ( 0.000097  0.000000 -0.000001)
 73:   3165.70   0.000069    0.35  0.000007  (-0.000000 -0.002606  0.000085)
 74:   3165.79   0.018903   95.53  0.001863  ( 0.000000 -0.000005 -0.043166)
 75:   3175.36   0.004400   22.24  0.000432  (-0.020795 -0.000003  0.000000)
 76:   3175.36   0.000000    0.00  0.000000  ( 0.000077  0.000001 -0.000001)
 77:   3177.12   0.013702   69.24  0.001346  ( 0.000002 -0.036685 -0.000002)
 78:   3177.17   0.000902    4.56  0.000089  (-0.000000  0.000010 -0.009410)
 79:   3282.19   0.001414    7.14  0.000134  (-0.000000  0.011594 -0.000000)
 80:   3302.64   0.000251    1.27  0.000024  (-0.000000 -0.000000 -0.004867)

* The epsilon (eps) is given for a Dirac delta lineshape.
** The dipole moment derivative (T) already includes vibrational overlap.

The first frequency considered to be a vibration is 6
The total number of vibrations considered is 75


--------------------------
THERMOCHEMISTRY AT 298.15K
--------------------------

Temperature         ... 298.15 K
Pressure            ... 1.00 atm
Total Mass          ... 152.24 AMU

Throughout the following assumptions are being made:
  (1) The electronic state is orbitally nondegenerate
  (2) There are no thermally accessible electronically excited states
  (3) Hindered rotations indicated by low frequency modes are not
      treated as such but are treated as vibrations and this may
      cause some error
  (4) All equations used are the standard statistical mechanics
      equations for an ideal gas
  (5) All vibrations are strictly harmonic

freq.      23.14  E(vib)   ...       0.56 
freq.      26.73  E(vib)   ...       0.56 
freq.     115.79  E(vib)   ...       0.44 
freq.     149.06  E(vib)   ...       0.40 
freq.     159.44  E(vib)   ...       0.39 
freq.     232.25  E(vib)   ...       0.32 
freq.     232.33  E(vib)   ...       0.32 
freq.     251.47  E(vib)   ...       0.30 
freq.     262.77  E(vib)   ...       0.29 
freq.     270.33  E(vib)   ...       0.29 
freq.     299.57  E(vib)   ...       0.26 
freq.     354.60  E(vib)   ...       0.22 
freq.     403.95  E(vib)   ...       0.19 
freq.     444.96  E(vib)   ...       0.17 
freq.     458.63  E(vib)   ...       0.16 
freq.     573.97  E(vib)   ...       0.11 
freq.     635.59  E(vib)   ...       0.09 
freq.     675.06  E(vib)   ...       0.08 
freq.     682.78  E(vib)   ...       0.08 
freq.     690.13  E(vib)   ...       0.07 
freq.     749.54  E(vib)   ...       0.06 
freq.     883.67  E(vib)   ...       0.04 
freq.     907.02  E(vib)   ...       0.03 
freq.     911.71  E(vib)   ...       0.03 
freq.     933.18  E(vib)   ...       0.03 
freq.     933.22  E(vib)   ...       0.03 
freq.     955.73  E(vib)   ...       0.03 
freq.     955.84  E(vib)   ...       0.03 
freq.    1019.75  E(vib)   ...       0.02 
freq.    1027.16  E(vib)   ...       0.02 
freq.    1071.60  E(vib)   ...       0.02 
freq.    1090.47  E(vib)   ...       0.02 
freq.    1103.40  E(vib)   ...       0.02 
freq.    1168.39  E(vib)   ...       0.01 
freq.    1168.43  E(vib)   ...       0.01 
freq.    1187.10  E(vib)   ...       0.01 
freq.    1193.34  E(vib)   ...       0.01 
freq.    1247.55  E(vib)   ...       0.01 
freq.    1319.89  E(vib)   ...       0.01 
freq.    1325.06  E(vib)   ...       0.01 
freq.    1347.75  E(vib)   ...       0.01 
freq.    1348.07  E(vib)   ...       0.01 
freq.    1395.17  E(vib)   ...       0.00 
freq.    1398.18  E(vib)   ...       0.00 
freq.    1398.90  E(vib)   ...       0.00 
freq.    1399.19  E(vib)   ...       0.00 
freq.    1409.06  E(vib)   ...       0.00 
freq.    1420.63  E(vib)   ...       0.00 
freq.    1442.65  E(vib)   ...       0.00 
freq.    1444.85  E(vib)   ...       0.00 
freq.    1444.85  E(vib)   ...       0.00 
freq.    1455.56  E(vib)   ...       0.00 
freq.    1455.58  E(vib)   ...       0.00 
freq.    1457.50  E(vib)   ...       0.00 
freq.    1460.98  E(vib)   ...       0.00 
freq.    1468.90  E(vib)   ...       0.00 
freq.    1479.21  E(vib)   ...       0.00 
freq.    1487.31  E(vib)   ...       0.00 
freq.    1654.13  E(vib)   ...       0.00 
freq.    3062.57  E(vib)   ...       0.00 
freq.    3062.57  E(vib)   ...       0.00 
freq.    3064.94  E(vib)   ...       0.00 
freq.    3065.07  E(vib)   ...       0.00 
freq.    3126.72  E(vib)   ...       0.00 
freq.    3126.93  E(vib)   ...       0.00 
freq.    3161.86  E(vib)   ...       0.00 
freq.    3161.88  E(vib)   ...       0.00 
freq.    3165.70  E(vib)   ...       0.00 
freq.    3165.79  E(vib)   ...       0.00 
freq.    3175.36  E(vib)   ...       0.00 
freq.    3175.36  E(vib)   ...       0.00 
freq.    3177.12  E(vib)   ...       0.00 
freq.    3177.17  E(vib)   ...       0.00 
freq.    3282.19  E(vib)   ...       0.00 
freq.    3302.64  E(vib)   ...       0.00 

------------
INNER ENERGY
------------

The inner energy is: U= E(el) + E(ZPE) + E(vib) + E(rot) + E(trans)
    E(el)   - is the total energy from the electronic structure calculation
              = E(kin-el) + E(nuc-el) + E(el-el) + E(nuc-nuc)
    E(ZPE)  - the the zero temperature vibrational energy from the frequency calculation
    E(vib)  - the the finite temperature correction to E(ZPE) due to population
              of excited vibrational states
    E(rot)  - is the rotational thermal energy
    E(trans)- is the translational thermal energy

Summary of contributions to the inner energy U:
Electronic energy                ...   -461.63292800 Eh
Zero point energy                ...      0.24129653 Eh     151.42 kcal/mol
Thermal vibrational correction   ...      0.00928734 Eh       5.83 kcal/mol
Thermal rotational correction    ...      0.00141627 Eh       0.89 kcal/mol
Thermal translational correction ...      0.00141627 Eh       0.89 kcal/mol
-----------------------------------------------------------------------
Total thermal energy                   -461.37951158 Eh


Summary of corrections to the electronic energy:
(perhaps to be used in another calculation)
Total thermal correction                  0.01211989 Eh       7.61 kcal/mol
Non-thermal (ZPE) correction              0.24129653 Eh     151.42 kcal/mol
-----------------------------------------------------------------------
Total correction                          0.25341642 Eh     159.02 kcal/mol


--------
ENTHALPY
--------

The enthalpy is H = U + kB*T
                kB is Boltzmann's constant
Total free energy                 ...   -461.37951158 Eh 
Thermal Enthalpy correction       ...      0.00094421 Eh       0.59 kcal/mol
-----------------------------------------------------------------------
Total Enthalpy                    ...   -461.37856737 Eh


Note: Rotational entropy computed according to Herzberg 
Infrared and Raman Spectra, Chapter V,1, Van Nostrand Reinhold, 1945 
Point Group:  C2v, Symmetry Number:   2  
Rotational constants in cm-1:     0.091078     0.018628     0.017944 

Vibrational entropy computed according to the QRRHO of S. Grimme
Chem.Eur.J. 2012 18 9955


-------
ENTROPY
-------

The entropy contributions are T*S = T*(S(el)+S(vib)+S(rot)+S(trans))
     S(el)   - electronic entropy
     S(vib)  - vibrational entropy
     S(rot)  - rotational entropy
     S(trans)- translational entropy
The entropies will be listed as multiplied by the temperature to get
units of energy

Electronic entropy                ...      0.00000000 Eh      0.00 kcal/mol
Vibrational entropy               ...      0.01635871 Eh     10.27 kcal/mol
Rotational entropy                ...      0.01376592 Eh      8.64 kcal/mol
Translational entropy             ...      0.01946649 Eh     12.22 kcal/mol
-----------------------------------------------------------------------
Final entropy term                ...      0.04959113 Eh     31.12 kcal/mol

In case the symmetry of your molecule has not been determined correctly
or in case you have a reason to use a different symmetry number we print 
out the resulting rotational entropy values for sn=1,12 :
 --------------------------------------------------------
|  sn= 1 | S(rot)=       0.01442038 Eh      9.05 kcal/mol|
|  sn= 2 | S(rot)=       0.01376592 Eh      8.64 kcal/mol|
|  sn= 3 | S(rot)=       0.01338309 Eh      8.40 kcal/mol|
|  sn= 4 | S(rot)=       0.01311146 Eh      8.23 kcal/mol|
|  sn= 5 | S(rot)=       0.01290078 Eh      8.10 kcal/mol|
|  sn= 6 | S(rot)=       0.01272863 Eh      7.99 kcal/mol|
|  sn= 7 | S(rot)=       0.01258308 Eh      7.90 kcal/mol|
|  sn= 8 | S(rot)=       0.01245701 Eh      7.82 kcal/mol|
|  sn= 9 | S(rot)=       0.01234580 Eh      7.75 kcal/mol|
|  sn=10 | S(rot)=       0.01224632 Eh      7.68 kcal/mol|
|  sn=11 | S(rot)=       0.01215633 Eh      7.63 kcal/mol|
|  sn=12 | S(rot)=       0.01207417 Eh      7.58 kcal/mol|
 --------------------------------------------------------


-------------------
GIBBS FREE ENERGY
-------------------

The Gibbs free energy is G = H - T*S

Total enthalpy                    ...   -461.37856737 Eh 
Total entropy correction          ...     -0.04959113 Eh    -31.12 kcal/mol
-----------------------------------------------------------------------
Final Gibbs free energy         ...   -461.42815850 Eh

For completeness - the Gibbs free energy minus the electronic energy
G-E(el)                           ...      0.20476950 Eh    128.49 kcal/mol


Timings for individual modules:

Sum of individual times         ...      835.128 sec (=  13.919 min)
GTO integral calculation        ...        4.416 sec (=   0.074 min)   0.5 %
SCF iterations                  ...      350.560 sec (=   5.843 min)  42.0 %
SCF Gradient evaluation         ...       83.444 sec (=   1.391 min)  10.0 %
Geometry relaxation             ...        0.502 sec (=   0.008 min)   0.1 %
Analytical frequency calculation...      396.206 sec (=   6.603 min)  47.4 %
                             ****ORCA TERMINATED NORMALLY****
TOTAL RUN TIME: 0 days 0 hours 13 minutes 57 seconds 711 msec
