
                                 *****************
                                 * O   R   C   A *
                                 *****************

                                            #,                                       
                                            ###                                      
                                            ####                                     
                                            #####                                    
                                            ######                                   
                                           ########,                                 
                                     ,,################,,,,,                         
                               ,,#################################,,                 
                          ,,##########################################,,             
                       ,#########################################, ''#####,          
                    ,#############################################,,   '####,        
                  ,##################################################,,,,####,       
                ,###########''''           ''''###############################       
              ,#####''   ,,,,##########,,,,          '''####'''          '####       
            ,##' ,,,,###########################,,,                        '##       
           ' ,,###''''                  '''############,,,                           
         ,,##''                                '''############,,,,        ,,,,,,###''
      ,#''                                            '''#######################'''  
     '                                                          ''''####''''         
             ,#######,   #######,   ,#######,      ##                                
            ,#'     '#,  ##    ##  ,#'     '#,    #''#        ######   ,####,        
            ##       ##  ##   ,#'  ##            #'  '#       #        #'  '#        
            ##       ##  #######   ##           ,######,      #####,   #    #        
            '#,     ,#'  ##    ##  '#,     ,#' ,#      #,         ##   #,  ,#        
             '#######'   ##     ##  '#######'  #'      '#     #####' # '####'        



                  #######################################################
                  #                        -***-                        #
                  #          Department of theory and spectroscopy      #
                  #    Directorship and core code : Frank Neese         #
                  #        Max Planck Institute fuer Kohlenforschung    #
                  #                Kaiser Wilhelm Platz 1               #
                  #                 D-45470 Muelheim/Ruhr               #
                  #                      Germany                        #
                  #                                                     #
                  #                  All rights reserved                #
                  #                        -***-                        #
                  #######################################################


                         Program Version 5.0.4 -  RELEASE  -


 With contributions from (in alphabetic order):
   Daniel Aravena         : Magnetic Suceptibility
   Michael Atanasov       : Ab Initio Ligand Field Theory (pilot matlab implementation)
   Alexander A. Auer      : GIAO ZORA, VPT2 properties, NMR spectrum
   Ute Becker             : Parallelization
   Giovanni Bistoni       : ED, misc. LED, open-shell LED, HFLD
   Martin Brehm           : Molecular dynamics
   Dmytro Bykov           : SCF Hessian
   Vijay G. Chilkuri      : MRCI spin determinant printing, contributions to CSF-ICE
   Dipayan Datta          : RHF DLPNO-CCSD density
   Achintya Kumar Dutta   : EOM-CC, STEOM-CC
   Dmitry Ganyushin       : Spin-Orbit,Spin-Spin,Magnetic field MRCI
   Miquel Garcia          : C-PCM and meta-GGA Hessian, CC/C-PCM, Gaussian charge scheme
   Yang Guo               : DLPNO-NEVPT2, F12-NEVPT2, CIM, IAO-localization
   Andreas Hansen         : Spin unrestricted coupled pair/coupled cluster methods
   Benjamin Helmich-Paris : MC-RPA, TRAH-SCF, COSX integrals
   Lee Huntington         : MR-EOM, pCC
   Robert Izsak           : Overlap fitted RIJCOSX, COSX-SCS-MP3, EOM
   Marcus Kettner         : VPT2
   Christian Kollmar      : KDIIS, OOCD, Brueckner-CCSD(T), CCSD density, CASPT2, CASPT2-K
   Simone Kossmann        : Meta GGA functionals, TD-DFT gradient, OOMP2, MP2 Hessian
   Martin Krupicka        : Initial AUTO-CI
   Lucas Lang             : DCDCAS
   Marvin Lechner         : AUTO-CI (C++ implementation), FIC-MRCC
   Dagmar Lenk            : GEPOL surface, SMD
   Dimitrios Liakos       : Extrapolation schemes; Compound Job, initial MDCI parallelization
   Dimitrios Manganas     : Further ROCIS development; embedding schemes
   Dimitrios Pantazis     : SARC Basis sets
   Anastasios Papadopoulos: AUTO-CI, single reference methods and gradients
   Taras Petrenko         : DFT Hessian,TD-DFT gradient, ASA, ECA, R-Raman, ABS, FL, XAS/XES, NRVS
   Peter Pinski           : DLPNO-MP2, DLPNO-MP2 Gradient
   Christoph Reimann      : Effective Core Potentials
   Marius Retegan         : Local ZFS, SOC
   Christoph Riplinger    : Optimizer, TS searches, QM/MM, DLPNO-CCSD(T), (RO)-DLPNO pert. Triples
   Tobias Risthaus        : Range-separated hybrids, TD-DFT gradient, RPA, STAB
   Michael Roemelt        : Original ROCIS implementation
   Masaaki Saitow         : Open-shell DLPNO-CCSD energy and density
   Barbara Sandhoefer     : DKH picture change effects
   Avijit Sen             : IP-ROCIS
   Kantharuban Sivalingam : CASSCF convergence, NEVPT2, FIC-MRCI
   Bernardo de Souza      : ESD, SOC TD-DFT
   Georgi Stoychev        : AutoAux, RI-MP2 NMR, DLPNO-MP2 response
   Willem Van den Heuvel  : Paramagnetic NMR
   Boris Wezisla          : Elementary symmetry handling
   Frank Wennmohs         : Technical directorship


 We gratefully acknowledge several colleagues who have allowed us to
 interface, adapt or use parts of their codes:
   Stefan Grimme, W. Hujo, H. Kruse, P. Pracht,  : VdW corrections, initial TS optimization,
                  C. Bannwarth, S. Ehlert          DFT functionals, gCP, sTDA/sTD-DF
   Ed Valeev, F. Pavosevic, A. Kumar             : LibInt (2-el integral package), F12 methods
   Garnet Chan, S. Sharma, J. Yang, R. Olivares  : DMRG
   Ulf Ekstrom                                   : XCFun DFT Library
   Mihaly Kallay                                 : mrcc  (arbitrary order and MRCC methods)
   Jiri Pittner, Ondrej Demel                    : Mk-CCSD
   Frank Weinhold                                : gennbo (NPA and NBO analysis)
   Christopher J. Cramer and Donald G. Truhlar   : smd solvation model
   Lars Goerigk                                  : TD-DFT with DH, B97 family of functionals
   V. Asgeirsson, H. Jonsson                     : NEB implementation
   FAccTs GmbH                                   : IRC, NEB, NEB-TS, DLPNO-Multilevel, CI-OPT
                                                   MM, QMMM, 2- and 3-layer-ONIOM, Crystal-QMMM,
                                                   LR-CPCM, SF, NACMEs, symmetry and pop. for TD-DFT,
                                                   nearIR, NL-DFT gradient (VV10), updates on ESD,
                                                   ML-optimized integration grids
   S Lehtola, MJT Oliveira, MAL Marques          : LibXC Library
   Liviu Ungur et al                             : ANISO software


 Your calculation uses the libint2 library for the computation of 2-el integrals
 For citations please refer to: http://libint.valeyev.net

 Your ORCA version has been built with support for libXC version: 5.1.0
 For citations please refer to: https://tddft.org/programs/libxc/

 This ORCA versions uses:
   CBLAS   interface :  Fast vector & matrix operations
   LAPACKE interface :  Fast linear algebra routines
   SCALAPACK package :  Parallel linear algebra routines
   Shared memory     :  Shared parallel matrices
   BLAS/LAPACK       :  OpenBLAS 0.3.15  USE64BITINT DYNAMIC_ARCH NO_AFFINITY SkylakeX SINGLE_THREADED
        Core in use  :  SkylakeX
   Copyright (c) 2011-2014, The OpenBLAS Project




***************************************
The coordinates will be read from file: 8_deprot.xyz
***************************************


Your calculation utilizes the atom-pairwise dispersion correction
based on tight binding partial charges (D4)
Cite in your paper:
E.Caldeweyher, C.Bannwarth, S.Grimme, J.Chem.Phys., (2017), 147, 034112.
E.Caldeweyher, S.Ehlert, A.Hansen, H.Neugebauer, S.Grimme, J.Chem.Phys., (2018), in progress.
   

XCFun DFT library Copyright 2009-2010 Ulf Ekstrom and contributors.
See http://admol.org/xcfun for more information.
This is free software; see the source code for copying conditions.
There is ABSOLUTELY NO WARRANTY; not even for MERCHANTABILITY or FITNESS FOR A PARTICULAR PURPOSE.
For details see the documentation.
Scientific users of this library should cite U. Ekstrom, L. Visscher, R. Bast, A. J. Thorvaldsen and K. Ruud;
J.Chem.Theor.Comp. 2010, DOI: 10.1021/ct100117s
XCFun Version 0.99 

================================================================================

----- Orbital basis set information -----
Your calculation utilizes the basis: def2-SVP
   F. Weigend and R. Ahlrichs, Phys. Chem. Chem. Phys. 7, 3297 (2005).

----- AuxJ basis set information -----
Your calculation utilizes the auxiliary basis: def2/J
   F. Weigend, Phys. Chem. Chem. Phys. 8, 1057 (2006).

================================================================================
                                        WARNINGS
                       Please study these warnings very carefully!
================================================================================


WARNING: Geometry Optimization
  ===> : Switching off AutoStart
         For restart on a previous wavefunction, please use MOREAD

INFO   : the flag for use of the SHARK integral package has been found!

================================================================================
                                       INPUT FILE
================================================================================
NAME = 8_deprot.inp
|  1> # ORCA 5.0.4 - /users/bwb16179/postgrad/2024_02/Carbene_DFT_validation/8.inp # write input file
|  2> # Basic Mode
|  3> #
|  4> ! Opt Freq wB97X Def2-SVP D4 SlowConv TightSCF Defgrid2 Def2/J RIJCOSX CPCM(Water)
|  5> 
|  6> %PAL NPROCS 4 END
|  7> 
|  8> %maxcore 4500
|  9> 
| 10> %geom
| 11> Maxiter 150
| 12> END
| 13> 
| 14> * xyzfile 0 1 8_deprot.xyz
| 15> 
| 16>                          ****END OF INPUT****
================================================================================

                       *****************************
                       * Geometry Optimization Run *
                       *****************************

Geometry optimization settings:
Update method            Update   .... BFGS
Choice of coordinates    CoordSys .... Z-matrix Internals
Initial Hessian          InHess   .... Almoef's Model

Convergence Tolerances:
Energy Change            TolE     ....  5.0000e-06 Eh
Max. Gradient            TolMAXG  ....  3.0000e-04 Eh/bohr
RMS Gradient             TolRMSG  ....  1.0000e-04 Eh/bohr
Max. Displacement        TolMAXD  ....  4.0000e-03 bohr
RMS Displacement         TolRMSD  ....  2.0000e-03 bohr
Strict Convergence                ....  False
------------------------------------------------------------------------------
                        ORCA OPTIMIZATION COORDINATE SETUP
------------------------------------------------------------------------------

The optimization will be done in new redundant internal coordinates
Making redundant internal coordinates   ...  (new redundants) done
Evaluating the initial hessian          ...  (Almloef) done
Evaluating the coordinates              ...  done
Calculating the B-matrix                .... done
Calculating the G-matrix                .... done
Diagonalizing the G-matrix              .... done
Small eigenvalue found = 3.389e-03
Small eigenvalue found = 6.222e-03
Small eigenvalue found = 8.135e-03
Small eigenvalue found = 1.268e-02
Small eigenvalue found = 1.825e-02
The first mode is                       ....   95
The number of degrees of freedom        ....  117

    -----------------------------------------------------------------
                    Redundant Internal Coordinates


    -----------------------------------------------------------------
         Definition                    Initial Value    Approx d2E/dq
    -----------------------------------------------------------------
      1. B(N   1,C   0)                  1.4534         0.443293   
      2. B(C   2,N   1)                  1.4222         0.497147   
      3. B(C   3,C   2)                  1.3637         0.688073   
      4. B(N   4,C   3)                  1.4028         0.533975   
      5. B(N   4,C   0)                  1.4451         0.457004   
      6. B(C   5,N   1)                  1.4643         0.425980   
      7. B(C   6,C   5)                  1.4477         0.505433   
      8. B(C   7,C   6)                  1.4073         0.586382   
      9. B(C   8,C   7)                  1.3792         0.650071   
     10. B(C   9,C   8)                  1.3787         0.651318   
     11. B(C  10,C   9)                  1.4072         0.586606   
     12. B(C  10,C   5)                  1.4502         0.500844   
     13. B(C  11,C   6)                  1.5053         0.409070   
     14. B(H  12,C  11)                  1.1096         0.335142   
     15. B(H  13,C  11)                  1.1092         0.335554   
     16. B(H  14,C  11)                  1.1113         0.332984   
     17. B(C  15,C  10)                  1.5132         0.397315   
     18. B(H  16,C  15)                  1.1097         0.334923   
     19. B(H  17,C  15)                  1.1112         0.333132   
     20. B(H  18,C  15)                  1.1097         0.334942   
     21. B(C  19,N   4)                  1.4401         0.465535   
     22. B(C  20,C  19)                  1.4347         0.530106   
     23. B(C  21,C  20)                  1.4057         0.589675   
     24. B(C  22,C  21)                  1.3861         0.633781   
     25. B(C  23,C  22)                  1.3856         0.635019   
     26. B(C  24,C  23)                  1.4029         0.595874   
     27. B(C  24,C  19)                  1.4343         0.531030   
     28. B(C  25,C  20)                  1.5093         0.403092   
     29. B(H  26,C  25)                  1.1111         0.333282   
     30. B(H  27,C  25)                  1.1028         0.343582   
     31. B(H  28,C  25)                  1.1102         0.334342   
     32. B(C  29,C  24)                  1.5115         0.399909   
     33. B(H  30,C  29)                  1.1001         0.347008   
     34. B(H  31,C  29)                  1.1110         0.333425   
     35. B(H  32,C  29)                  1.1106         0.333890   
     36. B(H  33,C   7)                  1.0837         0.368485   
     37. B(H  34,C   8)                  1.0828         0.369737   
     38. B(H  35,C   9)                  1.0836         0.368614   
     39. B(H  36,C  22)                  1.0826         0.369994   
     40. B(H  37,C  23)                  1.0840         0.368138   
     41. B(H  38,C  21)                  1.0834         0.368944   
     42. B(H  39,C   2)                  1.0672         0.391624   
     43. B(H  40,C   3)                  1.0752         0.380208   
     44. A(N   1,C   0,N   4)          106.6467         0.382606   
     45. A(C   2,N   1,C   5)          127.9190         0.385568   
     46. A(C   0,N   1,C   2)          105.9170         0.388254   
     47. A(C   0,N   1,C   5)          126.1636         0.377971   
     48. A(C   3,C   2,H  39)          120.0241         0.364387   
     49. A(N   1,C   2,C   3)          110.3992         0.422309   
     50. A(N   1,C   2,H  39)          129.5727         0.342751   
     51. A(N   4,C   3,H  40)          126.9235         0.345168   
     52. A(C   2,C   3,H  40)          123.6665         0.362549   
     53. A(C   2,C   3,N   4)          109.3678         0.427744   
     54. A(C   0,N   4,C  19)          124.2937         0.385877   
     55. A(C   0,N   4,C   3)          107.6681         0.395238   
     56. A(C   3,N   4,C  19)          128.0383         0.396523   
     57. A(C   6,C   5,C  10)          116.1752         0.402936   
     58. A(N   1,C   5,C   6)          123.8001         0.389150   
     59. A(N   1,C   5,C  10)          119.9523         0.388531   
     60. A(C   7,C   6,C  11)          114.3720         0.399132   
     61. A(C   5,C   6,C   7)          120.2832         0.414342   
     62. A(C   5,C   6,C  11)          125.3448         0.388878   
     63. A(C   6,C   7,H  33)          121.1194         0.350961   
     64. A(C   6,C   7,C   8)          121.6091         0.433412   
     65. A(C   8,C   7,H  33)          117.2714         0.357147   
     66. A(C   9,C   8,H  34)          120.0276         0.357469   
     67. A(C   7,C   8,H  34)          120.0384         0.357353   
     68. A(C   7,C   8,C   9)          119.9340         0.441697   
     69. A(C   8,C   9,C  10)          121.3149         0.433591   
     70. A(C  10,C   9,H  35)          121.1086         0.351005   
     71. A(C   8,C   9,H  35)          117.4879         0.357284   
     72. A(C   5,C  10,C   9)          120.3599         0.413699   
     73. A(C   9,C  10,C  15)          114.7141         0.397119   
     74. A(C   5,C  10,C  15)          124.8449         0.386291   
     75. A(H  13,C  11,H  14)          105.4112         0.284151   
     76. A(H  12,C  11,H  14)          105.6662         0.284097   
     77. A(C   6,C  11,H  14)          112.9199         0.324985   
     78. A(H  12,C  11,H  13)          113.1896         0.284437   
     79. A(C   6,C  11,H  13)          109.7434         0.325396   
     80. A(C   6,C  11,H  12)          109.8499         0.325330   
     81. A(H  17,C  15,H  18)          106.1139         0.284090   
     82. A(H  16,C  15,H  18)          111.3602         0.284327   
     83. A(C  10,C  15,H  18)          110.1593         0.323744   
     84. A(H  16,C  15,H  17)          106.0158         0.284088   
     85. A(C  10,C  15,H  17)          112.8180         0.323456   
     86. A(C  10,C  15,H  16)          110.2620         0.323741   
     87. A(N   4,C  19,C  20)          121.3952         0.398564   
     88. A(C  20,C  19,C  24)          117.9425         0.410572   
     89. A(N   4,C  19,C  24)          120.5907         0.398686   
     90. A(C  21,C  20,C  25)          116.4880         0.398493   
     91. A(C  19,C  20,C  25)          123.6882         0.391122   
     92. A(C  19,C  20,C  21)          119.7643         0.418288   
     93. A(C  20,C  21,C  22)          121.1531         0.431873   
     94. A(C  22,C  21,H  38)          118.0202         0.355686   
     95. A(C  20,C  21,H  38)          120.8252         0.351367   
     96. A(C  21,C  22,C  23)          120.0644         0.437671   
     97. A(C  23,C  22,H  36)          119.9563         0.355975   
     98. A(C  21,C  22,H  36)          119.9793         0.355857   
     99. A(C  22,C  23,C  24)          121.1217         0.432838   
    100. A(C  24,C  23,H  37)          120.3842         0.351859   
    101. A(C  22,C  23,H  37)          118.4919         0.355672   
    102. A(C  23,C  24,C  29)          115.1014         0.398670   
    103. A(C  19,C  24,C  29)          124.9111         0.390699   
    104. A(C  19,C  24,C  23)          119.9516         0.419198   
    105. A(H  27,C  25,H  28)          111.2399         0.285379   
    106. A(H  26,C  25,H  28)          107.3480         0.284031   
    107. A(C  20,C  25,H  28)          110.0116         0.324416   
    108. A(H  26,C  25,H  27)          104.9072         0.285238   
    109. A(C  20,C  25,H  27)          111.2266         0.325873   
    110. A(C  20,C  25,H  26)          111.9574         0.324247   
    111. A(H  31,C  29,H  32)          108.5799         0.283990   
    112. A(H  30,C  29,H  32)          109.0565         0.285760   
    113. A(C  24,C  29,H  32)          109.8215         0.323922   
    114. A(H  30,C  29,H  31)          104.8754         0.285698   
    115. A(C  24,C  29,H  31)          108.8841         0.323848   
    116. A(C  24,C  29,H  30)          115.3499         0.325980   
    117. D(C   2,N   1,C   0,N   4)     -0.1254         0.014095   
    118. D(C   5,N   1,C   0,N   4)   -179.9085         0.014095   
    119. D(H  39,C   2,N   1,C   0)   -178.9549         0.019533   
    120. D(C   3,C   2,N   1,C   0)      0.3054         0.019533   
    121. D(C   3,C   2,N   1,C   5)   -179.9165         0.019533   
    122. D(H  39,C   2,N   1,C   5)      0.8231         0.019533   
    123. D(N   4,C   3,C   2,N   1)     -0.3709         0.033250   
    124. D(H  40,C   3,C   2,H  39)      1.1926         0.033250   
    125. D(H  40,C   3,C   2,N   1)   -178.1489         0.033250   
    126. D(N   4,C   3,C   2,H  39)    178.9706         0.033250   
    127. D(C  19,N   4,C   0,N   1)    179.9380         0.014976   
    128. D(C   0,N   4,C   3,C   2)      0.2810         0.022658   
    129. D(C   0,N   4,C   3,H  40)    177.9676         0.022658   
    130. D(C  19,N   4,C   3,C   2)   -179.7464         0.022658   
    131. D(C   3,N   4,C   0,N   1)     -0.0880         0.014976   
    132. D(C  19,N   4,C   3,H  40)     -2.0597         0.022658   
    133. D(C  10,C   5,N   1,C   2)    -90.2380         0.014296   
    134. D(C  10,C   5,N   1,C   0)     89.4976         0.014296   
    135. D(C   6,C   5,N   1,C   2)     92.9794         0.014296   
    136. D(C   6,C   5,N   1,C   0)    -87.2850         0.014296   
    137. D(C  11,C   6,C   5,C  10)   -176.8822         0.017405   
    138. D(C  11,C   6,C   5,N   1)      0.0117         0.017405   
    139. D(C   7,C   6,C   5,C  10)      3.0309         0.017405   
    140. D(C   7,C   6,C   5,N   1)    179.9248         0.017405   
    141. D(H  33,C   7,C   6,C  11)     -0.0345         0.023648   
    142. D(H  33,C   7,C   6,C   5)   -179.9566         0.023648   
    143. D(C   8,C   7,C   6,C  11)   -179.9919         0.023648   
    144. D(C   8,C   7,C   6,C   5)      0.0859         0.023648   
    145. D(H  34,C   8,C   7,C   6)    179.9624         0.029424   
    146. D(C   9,C   8,C   7,H  33)   -179.9849         0.029424   
    147. D(C   9,C   8,C   7,C   6)     -0.0260         0.029424   
    148. D(H  34,C   8,C   7,H  33)      0.0034         0.029424   
    149. D(H  35,C   9,C   8,H  34)     -0.0055         0.029545   
    150. D(H  35,C   9,C   8,C   7)    179.9829         0.029545   
    151. D(C  10,C   9,C   8,H  34)    176.6066         0.029545   
    152. D(C  10,C   9,C   8,C   7)     -3.4050         0.029545   
    153. D(C  15,C  10,C   9,H  35)      0.0922         0.023667   
    154. D(C   5,C  10,C   9,H  35)   -176.7888         0.023667   
    155. D(C   5,C  10,C   9,C   8)      6.7216         0.023667   
    156. D(C  15,C  10,C   5,C   6)    177.1196         0.017087   
    157. D(C  15,C  10,C   5,N   1)      0.0984         0.017087   
    158. D(C  15,C  10,C   9,C   8)   -176.3974         0.023667   
    159. D(C   9,C  10,C   5,C   6)     -6.3331         0.017087   
    160. D(C   9,C  10,C   5,N   1)    176.6457         0.017087   
    161. D(H  14,C  11,C   6,C   7)     -0.5430         0.012396   
    162. D(H  14,C  11,C   6,C   5)    179.3746         0.012396   
    163. D(H  13,C  11,C   6,C   7)    116.7344         0.012396   
    164. D(H  13,C  11,C   6,C   5)    -63.3480         0.012396   
    165. D(H  12,C  11,C   6,C   7)   -118.2106         0.012396   
    166. D(H  12,C  11,C   6,C   5)     61.7070         0.012396   
    167. D(H  18,C  15,C  10,C   9)   -115.3609         0.011723   
    168. D(H  18,C  15,C  10,C   5)     61.3597         0.011723   
    169. D(H  17,C  15,C  10,C   9)      3.0130         0.011723   
    170. D(H  17,C  15,C  10,C   5)    179.7335         0.011723   
    171. D(H  16,C  15,C  10,C   9)    121.3325         0.011723   
    172. D(H  16,C  15,C  10,C   5)    -61.9470         0.011723   
    173. D(C  24,C  19,N   4,C   3)     92.4199         0.017078   
    174. D(C  24,C  19,N   4,C   0)    -87.6116         0.017078   
    175. D(C  20,C  19,N   4,C   3)    -90.7216         0.017078   
    176. D(C  20,C  19,N   4,C   0)     89.2469         0.017078   
    177. D(C  25,C  20,C  19,N   4)      0.7364         0.019182   
    178. D(C  21,C  20,C  19,C  24)      0.5818         0.019182   
    179. D(C  21,C  20,C  19,N   4)   -176.3572         0.019182   
    180. D(C  25,C  20,C  19,C  24)    177.6754         0.019182   
    181. D(H  38,C  21,C  20,C  25)      1.9382         0.023928   
    182. D(H  38,C  21,C  20,C  19)    179.2364         0.023928   
    183. D(C  22,C  21,C  20,C  25)   -177.6069         0.023928   
    184. D(C  22,C  21,C  20,C  19)     -0.3087         0.023928   
    185. D(H  36,C  22,C  21,H  38)      0.4924         0.027872   
    186. D(H  36,C  22,C  21,C  20)   -179.9501         0.027872   
    187. D(C  23,C  22,C  21,H  38)   -179.5890         0.027872   
    188. D(C  23,C  22,C  21,C  20)     -0.0316         0.027872   
    189. D(H  37,C  23,C  22,H  36)      0.5497         0.027988   
    190. D(H  37,C  23,C  22,C  21)   -179.3688         0.027988   
    191. D(C  24,C  23,C  22,H  36)   -179.9997         0.027988   
    192. D(C  24,C  23,C  22,C  21)      0.0818         0.027988   
    193. D(C  29,C  24,C  23,H  37)      1.7230         0.024460   
    194. D(C  29,C  24,C  23,C  22)   -177.7173         0.024460   
    195. D(C  19,C  24,C  23,H  37)    179.6504         0.024460   
    196. D(C  19,C  24,C  23,C  22)      0.2102         0.024460   
    197. D(C  29,C  24,C  19,C  20)    177.1767         0.019250   
    198. D(C  29,C  24,C  19,N   4)     -5.8586         0.019250   
    199. D(C  23,C  24,C  19,C  20)     -0.5344         0.019250   
    200. D(C  23,C  24,C  19,N   4)    176.4302         0.019250   
    201. D(H  28,C  25,C  20,C  21)    123.0468         0.012050   
    202. D(H  28,C  25,C  20,C  19)    -54.1344         0.012050   
    203. D(H  27,C  25,C  20,C  21)   -113.2376         0.012050   
    204. D(H  27,C  25,C  20,C  19)     69.5813         0.012050   
    205. D(H  26,C  25,C  20,C  21)      3.7730         0.012050   
    206. D(H  26,C  25,C  20,C  19)   -173.4082         0.012050   
    207. D(H  32,C  29,C  24,C  23)    -63.7604         0.011869   
    208. D(H  32,C  29,C  24,C  19)    118.4295         0.011869   
    209. D(H  31,C  29,C  24,C  23)     55.0072         0.011869   
    210. D(H  31,C  29,C  24,C  19)   -122.8029         0.011869   
    211. D(H  30,C  29,C  24,C  23)    172.5421         0.011869   
    212. D(H  30,C  29,C  24,C  19)     -5.2680         0.011869   
    -----------------------------------------------------------------

Number of atoms                         .... 41
Number of degrees of freedom            .... 212

         *************************************************************
         *                GEOMETRY OPTIMIZATION CYCLE   1            *
         *************************************************************
---------------------------------
CARTESIAN COORDINATES (ANGSTROEM)
---------------------------------
  C      0.197710   -1.195060    0.163180
  N     -0.996010   -0.370410    0.249310
  C     -0.537210    0.959080    0.460600
  C      0.825590    0.991040    0.499870
  N      1.326570   -0.307640    0.326150
  C     -2.379250   -0.838670    0.142290
  C     -3.087900   -0.976910   -1.112530
  C     -4.418020   -1.436160   -1.129500
  C     -5.084330   -1.764360    0.032620
  C     -4.445760   -1.645730    1.248730
  C     -3.094680   -1.261080    1.330900
  C     -2.520610   -0.666270   -2.471790
  H     -1.650910   -1.324190   -2.676410
  H     -2.276440    0.413710   -2.538030
  H     -3.241650   -0.857100   -3.295620
  C     -2.520930   -1.261000    2.731140
  H     -1.649900   -1.946120    2.789600
  H     -3.245130   -1.620070    3.493600
  H     -2.244290   -0.229010    3.031030
  C      2.702380   -0.732590    0.305220
  C      3.447790   -0.791820   -0.919250
  C      4.764420   -1.284320   -0.911610
  C      5.363650   -1.710890    0.263240
  C      4.664930   -1.656060    1.458490
  C      3.348210   -1.174390    1.507230
  C      2.880200   -0.408640   -2.264240
  H      3.583730   -0.638650   -3.092860
  H      2.709670    0.678860   -2.330500
  H      1.944970   -0.974900   -2.457230
  C      2.734550   -1.124080    2.887590
  H      1.753650   -0.629900    2.949230
  H      3.395770   -0.529570    3.553590
  H      2.649270   -2.151910    3.299490
  H     -4.961010   -1.545390   -2.061010
  H     -6.108020   -2.114680   -0.009970
  H     -5.006480   -1.914020    2.136360
  H      6.379060   -2.086070    0.247360
  H      5.161730   -1.986460    2.363510
  H      5.338600   -1.348130   -1.828120
  H     -1.096430    1.858390    0.592270
  H      1.395960    1.884960    0.677800

----------------------------
CARTESIAN COORDINATES (A.U.)
----------------------------
  NO LB      ZA    FRAG     MASS         X           Y           Z
   0 C     6.0000    0    12.011    0.373618   -2.258336    0.308366
   1 N     7.0000    0    14.007   -1.882186   -0.699973    0.471128
   2 C     6.0000    0    12.011   -1.015180    1.812399    0.870408
   3 C     6.0000    0    12.011    1.560139    1.872794    0.944617
   4 N     7.0000    0    14.007    2.506854   -0.581355    0.616334
   5 C     6.0000    0    12.011   -4.496131   -1.584857    0.268889
   6 C     6.0000    0    12.011   -5.835285   -1.846092   -2.102377
   7 C     6.0000    0    12.011   -8.348848   -2.713949   -2.134446
   8 C     6.0000    0    12.011   -9.607991   -3.334157    0.061643
   9 C     6.0000    0    12.011   -8.401269   -3.109979    2.359758
  10 C     6.0000    0    12.011   -5.848098   -2.383096    2.515037
  11 C     6.0000    0    12.011   -4.763263   -1.259068   -4.671006
  12 H     1.0000    0     1.008   -3.119768   -2.502356   -5.057682
  13 H     1.0000    0     1.008   -4.301848    0.781799   -4.796182
  14 H     1.0000    0     1.008   -6.125831   -1.619684   -6.227819
  15 C     6.0000    0    12.011   -4.763867   -2.382945    5.161107
  16 H     1.0000    0     1.008   -3.117859   -3.677634    5.271580
  17 H     1.0000    0     1.008   -6.132407   -3.061489    6.601947
  18 H     1.0000    0     1.008   -4.241093   -0.432766    5.727817
  19 C     6.0000    0    12.011    5.106758   -1.384394    0.576782
  20 C     6.0000    0    12.011    6.515379   -1.496323   -1.737131
  21 C     6.0000    0    12.011    9.003449   -2.427013   -1.722693
  22 C     6.0000    0    12.011   10.135830   -3.233114    0.497452
  23 C     6.0000    0    12.011    8.815440   -3.129500    2.756147
  24 C     6.0000    0    12.011    6.327200   -2.219275    2.848252
  25 C     6.0000    0    12.011    5.442789   -0.772218   -4.278794
  26 H     1.0000    0     1.008    6.772268   -1.206874   -5.844658
  27 H     1.0000    0     1.008    5.120534    1.282859   -4.404007
  28 H     1.0000    0     1.008    3.675461   -1.842294   -4.643492
  29 C     6.0000    0    12.011    5.167551   -2.124203    5.456754
  30 H     1.0000    0     1.008    3.313918   -1.190338    5.573237
  31 H     1.0000    0     1.008    6.417075   -1.000742    6.715312
  32 H     1.0000    0     1.008    5.006395   -4.066521    6.235132
  33 H     1.0000    0     1.008   -9.374950   -2.920364   -3.894744
  34 H     1.0000    0     1.008  -11.542485   -3.996166   -0.018841
  35 H     1.0000    0     1.008   -9.460876   -3.616974    4.037135
  36 H     1.0000    0     1.008   12.054676   -3.942101    0.467443
  37 H     1.0000    0     1.008    9.754256   -3.753865    4.466387
  38 H     1.0000    0     1.008   10.088492   -2.547596   -3.454646
  39 H     1.0000    0     1.008   -2.071952    3.511848    1.119228
  40 H     1.0000    0     1.008    2.637982    3.562058    1.280856

--------------------------------
INTERNAL COORDINATES (ANGSTROEM)
--------------------------------
 C      0   0   0     0.000000000000     0.00000000     0.00000000
 N      1   0   0     1.453421287102     0.00000000     0.00000000
 C      2   1   0     1.422211153170   105.91701028     0.00000000
 C      3   2   1     1.363740229846   110.39923579     0.30543728
 N      4   3   2     1.402757762837   109.36775522   359.62906057
 C      2   1   3     1.464265551599   126.16361480   180.21690235
 C      6   2   1     1.447711418930   123.80005814   272.71495954
 C      7   6   2     1.407273163888   120.28318082   179.92482417
 C      8   7   6     1.379205260467   121.60911455     0.08594357
 C      9   8   7     1.378683522024   119.93398477   359.97403956
 C     10   9   8     1.407169036683   121.31485284   356.59496931
 C      7   6   2     1.505291633306   125.34479921     0.00000000
 H     12   7   6     1.109552234372   109.84987284    61.70703461
 H     12   7   6     1.109217529117   109.74341629   296.65200574
 H     12   7   6     1.111310325427   112.91994741   179.37464263
 C     11  10   9     1.513228709251   114.71414663   183.60257609
 H     16  11  10     1.109729808061   110.26203656   121.33246933
 H     16  11  10     1.111189523214   112.81801310     3.01295391
 H     16  11  10     1.109714856078   110.15928339   244.63910674
 C      5   4   3     1.440095039746   128.03826340   180.25361959
 C     20   5   4     1.434737272779   121.39519973   269.27844725
 C     21  20   5     1.405748617819   119.76426338   183.64281302
 C     22  21  20     1.386113660671   121.15312072   359.69133676
 C     23  22  21     1.385582379290   120.06441450   359.96843758
 C     24  23  22     1.402901683975   121.12165636     0.08175435
 C     21  20   5     1.509298983171   123.68824653     0.73641348
 H     26  21  20     1.111067129115   111.95740089   186.59175892
 H     26  21  20     1.102781537069   111.22661218    69.58125214
 H     26  21  20     1.110202990718   110.01159718   305.86562556
 C     25  24  23     1.511457383223   115.10138536   182.28271168
 H     30  25  24     1.100080984292   115.34985882   172.54207029
 H     30  25  24     1.110950056708   108.88406568    55.00719076
 H     30  25  24     1.110571383253   109.82154843   296.23964493
 H      8   7   6     1.083734383094   121.11944513   180.04335542
 H      9   8   7     1.082810799078   120.03837368   179.96238382
 H     10   9   8     1.083638989424   117.48786374   179.98288217
 H     23  22  21     1.082621667481   119.97926810   180.04989429
 H     24  23  22     1.083990590550   118.49186941   180.63115345
 H     22  21  20     1.083395111951   120.82519837   179.23641666
 H      3   2   1     1.067156255382   129.57266422   181.04506512
 H      4   3   2     1.075208811441   123.66646170   181.85107552

---------------------------
INTERNAL COORDINATES (A.U.)
---------------------------
 C      0   0   0     0.000000000000     0.00000000     0.00000000
 N      1   0   0     2.746568189833     0.00000000     0.00000000
 C      2   1   0     2.687589584099   105.91701028     0.00000000
 C      3   2   1     2.577095552219   110.39923579     0.30543728
 N      4   3   2     2.650828003994   109.36775522   359.62906057
 C      2   1   3     2.767060879858   126.16361480   180.21690235
 C      6   2   1     2.735778102728   123.80005814   272.71495954
 C      7   6   2     2.659360875366   120.28318082   179.92482417
 C      8   7   6     2.606320224746   121.60911455     0.08594357
 C      9   8   7     2.605334281975   119.93398477   359.97403956
 C     10   9   8     2.659164103465   121.31485284   356.59496931
 C      7   6   2     2.844588938631   125.34479921     0.00000000
 H     12   7   6     2.096749854244   109.84987284    61.70703461
 H     12   7   6     2.096117352976   109.74341629   296.65200574
 H     12   7   6     2.100072164855   112.91994741   179.37464263
 C     11  10   9     2.859587838471   114.71414663   183.60257609
 H     16  11  10     2.097085419885   110.26203656   121.33246933
 H     16  11  10     2.099843881757   112.81801310     3.01295391
 H     16  11  10     2.097057164731   110.15928339   244.63910674
 C      5   4   3     2.721385231938   128.03826340   180.25361959
 C     20   5   4     2.711260519681   121.39519973   269.27844725
 C     21  20   5     2.656479900816   119.76426338   183.64281302
 C     22  21  20     2.619375209156   121.15312072   359.69133676
 C     23  22  21     2.618371232846   120.06441450   359.96843758
 C     24  23  22     2.651099975530   121.12165636     0.08175435
 C     21  20   5     2.852161732398   123.68824653     0.73641348
 H     26  21  20     2.099612590430   111.95740089   186.59175892
 H     26  21  20     2.083955090605   111.22661218    69.58125214
 H     26  21  20     2.097979605518   110.01159718   305.86562556
 C     25  24  23     2.856240517385   115.10138536   182.28271168
 H     30  25  24     2.078851785446   115.34985882   172.54207029
 H     30  25  24     2.099391355643   108.88406568    55.00719076
 H     30  25  24     2.098675766518   109.82154843   296.23964493
 H      8   7   6     2.047961185962   121.11944513   180.04335542
 H      9   8   7     2.046215865110   120.03837368   179.96238382
 H     10   9   8     2.047780918051   117.48786374   179.98288217
 H     23  22  21     2.045858458189   119.97926810   180.04989429
 H     24  23  22     2.048445347886   118.49186941   180.63115345
 H     22  21  20     2.047320056417   120.82519837   179.23641666
 H      3   2   1     2.016633064772   129.57266422   181.04506512
 H      4   3   2     2.031850190402   123.66646170   181.85107552

---------------------
BASIS SET INFORMATION
---------------------
There are 3 groups of distinct atoms

 Group   1 Type C   : 7s4p1d contracted to 3s2p1d pattern {511/31/1}
 Group   2 Type N   : 7s4p1d contracted to 3s2p1d pattern {511/31/1}
 Group   3 Type H   : 4s1p contracted to 2s1p pattern {31/1}

Atom   0C    basis set group =>   1
Atom   1N    basis set group =>   2
Atom   2C    basis set group =>   1
Atom   3C    basis set group =>   1
Atom   4N    basis set group =>   2
Atom   5C    basis set group =>   1
Atom   6C    basis set group =>   1
Atom   7C    basis set group =>   1
Atom   8C    basis set group =>   1
Atom   9C    basis set group =>   1
Atom  10C    basis set group =>   1
Atom  11C    basis set group =>   1
Atom  12H    basis set group =>   3
Atom  13H    basis set group =>   3
Atom  14H    basis set group =>   3
Atom  15C    basis set group =>   1
Atom  16H    basis set group =>   3
Atom  17H    basis set group =>   3
Atom  18H    basis set group =>   3
Atom  19C    basis set group =>   1
Atom  20C    basis set group =>   1
Atom  21C    basis set group =>   1
Atom  22C    basis set group =>   1
Atom  23C    basis set group =>   1
Atom  24C    basis set group =>   1
Atom  25C    basis set group =>   1
Atom  26H    basis set group =>   3
Atom  27H    basis set group =>   3
Atom  28H    basis set group =>   3
Atom  29C    basis set group =>   1
Atom  30H    basis set group =>   3
Atom  31H    basis set group =>   3
Atom  32H    basis set group =>   3
Atom  33H    basis set group =>   3
Atom  34H    basis set group =>   3
Atom  35H    basis set group =>   3
Atom  36H    basis set group =>   3
Atom  37H    basis set group =>   3
Atom  38H    basis set group =>   3
Atom  39H    basis set group =>   3
Atom  40H    basis set group =>   3
---------------------------------
AUXILIARY/J BASIS SET INFORMATION
---------------------------------
There are 3 groups of distinct atoms

 Group   1 Type C   : 12s5p4d2f1g contracted to 6s4p3d1f1g pattern {711111/2111/211/2/1}
 Group   2 Type N   : 12s5p4d2f1g contracted to 6s4p3d1f1g pattern {711111/2111/211/2/1}
 Group   3 Type H   : 5s2p1d contracted to 3s1p1d pattern {311/2/1}

Atom   0C    basis set group =>   1
Atom   1N    basis set group =>   2
Atom   2C    basis set group =>   1
Atom   3C    basis set group =>   1
Atom   4N    basis set group =>   2
Atom   5C    basis set group =>   1
Atom   6C    basis set group =>   1
Atom   7C    basis set group =>   1
Atom   8C    basis set group =>   1
Atom   9C    basis set group =>   1
Atom  10C    basis set group =>   1
Atom  11C    basis set group =>   1
Atom  12H    basis set group =>   3
Atom  13H    basis set group =>   3
Atom  14H    basis set group =>   3
Atom  15C    basis set group =>   1
Atom  16H    basis set group =>   3
Atom  17H    basis set group =>   3
Atom  18H    basis set group =>   3
Atom  19C    basis set group =>   1
Atom  20C    basis set group =>   1
Atom  21C    basis set group =>   1
Atom  22C    basis set group =>   1
Atom  23C    basis set group =>   1
Atom  24C    basis set group =>   1
Atom  25C    basis set group =>   1
Atom  26H    basis set group =>   3
Atom  27H    basis set group =>   3
Atom  28H    basis set group =>   3
Atom  29C    basis set group =>   1
Atom  30H    basis set group =>   3
Atom  31H    basis set group =>   3
Atom  32H    basis set group =>   3
Atom  33H    basis set group =>   3
Atom  34H    basis set group =>   3
Atom  35H    basis set group =>   3
Atom  36H    basis set group =>   3
Atom  37H    basis set group =>   3
Atom  38H    basis set group =>   3
Atom  39H    basis set group =>   3
Atom  40H    basis set group =>   3


           ************************************************************
           *        Program running with 4 parallel MPI-processes     *
           *              working on a common directory               *
           ************************************************************
------------------------------------------------------------------------------
                           ORCA GTO INTEGRAL CALCULATION
                           -- RI-GTO INTEGRALS CHOSEN --
------------------------------------------------------------------------------
------------------------------------------------------------------------------
                   ___                                                        
                  /   \      - P O W E R E D   B Y -                         
                 /     \                                                     
                 |  |  |   _    _      __       _____    __    __             
                 |  |  |  | |  | |    /  \     |  _  \  |  |  /  |          
                  \  \/   | |  | |   /    \    | | | |  |  | /  /          
                 / \  \   | |__| |  /  /\  \   | |_| |  |  |/  /          
                |  |  |   |  __  | /  /__\  \  |    /   |      \           
                |  |  |   | |  | | |   __   |  |    \   |  |\   \          
                \     /   | |  | | |  |  |  |  | |\  \  |  | \   \       
                 \___/    |_|  |_| |__|  |__|  |_| \__\ |__|  \__/        
                                                                              
                      - O R C A' S   B I G   F R I E N D -                    
                                      &                                       
                       - I N T E G R A L  F E E D E R -                       
                                                                              
 v1 FN, 2020, v2 2021                                                         
------------------------------------------------------------------------------


Reading SHARK input file 8_deprot.SHARKINP.tmp ... ok
----------------------
SHARK INTEGRAL PACKAGE
----------------------

Number of atoms                             ...     41
Number of basis functions                   ...    394
Number of shells                            ...    186
Maximum angular momentum                    ...      2
Integral batch strategy                     ... SHARK/LIBINT Hybrid
RI-J (if used) integral strategy            ... SPLIT-RIJ (Revised 2003 algorithm where possible)
Printlevel                                  ...      1
Contraction scheme used                     ... SEGMENTED contraction
Coulomb Range Separation                    ... NOT USED
Exchange Range Separation                   ... Long Range
   Mu parameter                             ...  0.300000
   Scaling (regular/separated)              ...  0.157706  0.842294
Finite Nucleus Model                        ... NOT USED
Auxiliary Coulomb fitting basis             ... AVAILABLE
   # of basis functions in Aux-J            ...   1249
   # of shells in Aux-J                     ...    415
   Maximum angular momentum in Aux-J        ...      4
Auxiliary J/K fitting basis                 ... NOT available
Auxiliary Correlation fitting basis         ... NOT available
Auxiliary 'external' fitting basis          ... NOT available
Integral threshold                          ...     2.500000e-11
Primitive cut-off                           ...     2.500000e-12
Primitive pair pre-selection threshold      ...     2.500000e-12

Calculating pre-screening integrals         ... done (  0.0 sec) Dimension = 186
Organizing shell pair data                  ... done (  0.1 sec)
Shell pair information
Total number of shell pairs                 ...     17391
Shell pairs after pre-screening             ...     12639
Total number of primitive shell pairs       ...     62461
Primitive shell pairs kept                  ...     28877
          la=0 lb=0:   4023 shell pairs
          la=1 lb=0:   4712 shell pairs
          la=1 lb=1:   1425 shell pairs
          la=2 lb=0:   1475 shell pairs
          la=2 lb=1:    864 shell pairs
          la=2 lb=2:    140 shell pairs

Calculating one electron integrals          ... done (  0.0 sec)
Calculating RI/J V-Matrix + Cholesky decomp.... done (  0.1 sec)
Calculating Nuclear repulsion               ... done (  0.0 sec) ENN=   1541.218452524042 Eh

SHARK setup successfully completed in   0.4 seconds

Maximum memory used throughout the entire GTOINT-calculation: 26.4 MB


           ************************************************************
           *        Program running with 4 parallel MPI-processes     *
           *              working on a common directory               *
           ************************************************************
-------------------------------------------------------------------------------
                                 ORCA SCF
-------------------------------------------------------------------------------

------------
SCF SETTINGS
------------
Hamiltonian:
 Density Functional     Method          .... DFT(GTOs)
 Exchange Functional    Exchange        .... WB97X
 Correlation Functional Correlation     .... WB97X
 Gradients option       PostSCFGGA      .... off
 Hybrid DFT is turned on
   Fraction HF Exchange ScalHFX         ....  0.157706
   Scaling of DF-GGA-X  ScalDFX         ....  0.000000
   Scaling of DF-GGA-C  ScalDFC         ....  1.000000
   Scaling of DF-LDA-C  ScalLDAC        ....  1.000000
   Perturbative correction              ....  0.000000
   Density functional embedding theory  .... OFF
 Long-range corrected/Screened/Range-Separated Hybrid DFT is turned on
   Amount of maximum screened exact exchange              ....  0.842294
   Range separation parameter mu (erf(mu*r12)/r12)        ....  0.300000
 RI-approximation to the Coulomb term is turned on
   Number of AuxJ basis functions       .... 1249
   RIJ-COSX (HFX calculated with COS-X)).... on


General Settings:
 Integral files         IntName         .... 8_deprot
 Hartree-Fock type      HFTyp           .... RHF
 Total Charge           Charge          ....    0
 Multiplicity           Mult            ....    1
 Number of Electrons    NEL             ....  148
 Basis Dimension        Dim             ....  394
 Nuclear Repulsion      ENuc            ....   1541.2184525240 Eh

Convergence Acceleration:
 DIIS                   CNVDIIS         .... on
   Start iteration      DIISMaxIt       ....     0
   Startup error        DIISStart       ....  0.200000
   # of expansion vecs  DIISMaxEq       ....     5
   Bias factor          DIISBfac        ....   1.050
   Max. coefficient     DIISMaxC        ....  10.000
 Trust-Rad. Augm. Hess. CNVTRAH         .... auto
   Auto Start mean grad. ratio tolernc. ....  1.125000
   Auto Start start iteration           ....    20
   Auto Start num. interpolation iter.  ....    10
   Max. Number of Micro iterations      ....    16
   Max. Number of Macro iterations      .... Maxiter - #DIIS iter
   Number of Davidson start vectors     ....     2
   Converg. threshold I  (grad. norm)   ....   1.000e-05
   Converg. threshold II (energy diff.) ....   1.000e-08
   Grad. Scal. Fac. for Micro threshold ....   0.100
   Minimum threshold for Micro iter.    ....   0.010
   NR start threshold (gradient norm)   ....   0.001
   Initial trust radius                 ....   0.400
   Minimum AH scaling param. (alpha)    ....   1.000
   Maximum AH scaling param. (alpha)    .... 1000.000
   Orbital update algorithm             .... Taylor
   White noise on init. David. guess    .... on
   Maximum white noise                  ....   0.010
   Quad. conv. algorithm                .... NR
 SOSCF                  CNVSOSCF        .... on
   Start iteration      SOSCFMaxIt      ....   150
   Startup grad/error   SOSCFStart      ....  0.001000
 Level Shifting         CNVShift        .... on
   Level shift para.    LevelShift      ....    0.2500
   Turn off err/grad.   ShiftErr        ....    0.0000
 Zerner damping         CNVZerner       .... off
 Static damping         CNVDamp         .... on
   Fraction old density DampFac         ....    0.8500
   Max. Damping (<1)    DampMax         ....    0.9800
   Min. Damping (>=0)   DampMin         ....    0.0000
   Turn off err/grad.   DampErr         ....    0.0300
 Fernandez-Rico         CNVRico         .... off

SCF Procedure:
 Maximum # iterations   MaxIter         ....   125
 SCF integral mode      SCFMode         .... Direct
   Integral package                     .... SHARK and LIBINT hybrid scheme
 Reset frequency        DirectResetFreq ....    20
 Integral Threshold     Thresh          ....  2.500e-11 Eh
 Primitive CutOff       TCut            ....  2.500e-12 Eh

Convergence Tolerance:
 Convergence Check Mode ConvCheckMode   .... Total+1el-Energy
 Convergence forced     ConvForced      .... 0
 Energy Change          TolE            ....  1.000e-08 Eh
 1-El. energy change                    ....  1.000e-05 Eh
 Orbital Gradient       TolG            ....  1.000e-05
 Orbital Rotation angle TolX            ....  1.000e-05
 DIIS Error             TolErr          ....  5.000e-07


Diagonalization of the overlap matrix:
Smallest eigenvalue                        ... 2.233e-04
Time for diagonalization                   ...    0.019 sec
Threshold for overlap eigenvalues          ... 1.000e-08
Number of eigenvalues below threshold      ... 0
Time for construction of square roots      ...    0.010 sec
Total time needed                          ...    0.030 sec

Time for model grid setup =    0.364 sec

------------------------------
INITIAL GUESS: MODEL POTENTIAL
------------------------------
Loading Hartree-Fock densities                     ... done
Calculating cut-offs                               ... done
Initializing the effective Hamiltonian             ... done
Setting up the integral package (SHARK)            ... done
Starting the Coulomb interaction                   ... done (   0.3 sec)
Reading the grid                                   ... done
Mapping shells                                     ... done
Starting the XC term evaluation                    ... done (   0.2 sec)
  promolecular density results
     # of electrons  =    147.993854128
     EX              =   -116.026263189
     EC              =     -4.899604003
     EX+EC           =   -120.925867192
Transforming the Hamiltonian                       ... done (   0.0 sec)
Diagonalizing the Hamiltonian                      ... done (   0.0 sec)
Back transforming the eigenvectors                 ... done (   0.0 sec)
Now organizing SCF variables                       ... done
                      ------------------
                      INITIAL GUESS DONE (   0.9 sec)
                      ------------------
-------------------
DFT GRID GENERATION
-------------------

General Integration Accuracy     IntAcc      ... 4.388
Radial Grid Type                 RadialGrid  ... OptM3 with GC (2021)
Angular Grid (max. ang.)         AngularGrid ... 4 (Lebedev-302)
Angular grid pruning method      GridPruning ... 4 (adaptive)
Weight generation scheme         WeightScheme... Becke
Basis function cutoff            BFCut       ... 1.0000e-11
Integration weight cutoff        WCut        ... 1.0000e-14
Angular grids for H and He will be reduced by one unit
Partially contracted basis set               ... off
Rotationally invariant grid construction     ... off

Total number of grid points                  ...   189210
Total number of batches                      ...     2977
Average number of points per batch           ...       63
Average number of grid points per atom       ...     4615
Time for grid setup =    1.375 sec

--------------------
COSX GRID GENERATION
--------------------

GRIDX 1
-------
General Integration Accuracy     IntAcc      ... 3.816
Radial Grid Type                 RadialGrid  ... OptM3 with GC (2021)
Angular Grid (max. ang.)         AngularGrid ... 1 (Lebedev-50)
Angular grid pruning method      GridPruning ... 4 (adaptive)
Weight generation scheme         WeightScheme... Becke
Basis function cutoff            BFCut       ... 1.0000e-11
Integration weight cutoff        WCut        ... 1.0000e-14
Angular grids for H and He will be reduced by one unit
Partially contracted basis set               ... on
Rotationally invariant grid construction     ... off

Total number of grid points                  ...    24134
Total number of batches                      ...      396
Average number of points per batch           ...       60
Average number of grid points per atom       ...      589
UseSFitting                                  ... on

GRIDX 2
-------
General Integration Accuracy     IntAcc      ... 4.020
Radial Grid Type                 RadialGrid  ... OptM3 with GC (2021)
Angular Grid (max. ang.)         AngularGrid ... 2 (Lebedev-110)
Angular grid pruning method      GridPruning ... 4 (adaptive)
Weight generation scheme         WeightScheme... Becke
Basis function cutoff            BFCut       ... 1.0000e-11
Integration weight cutoff        WCut        ... 1.0000e-14
Angular grids for H and He will be reduced by one unit
Partially contracted basis set               ... on
Rotationally invariant grid construction     ... off

Total number of grid points                  ...    51665
Total number of batches                      ...      828
Average number of points per batch           ...       62
Average number of grid points per atom       ...     1260
UseSFitting                                  ... on

GRIDX 3
-------
General Integration Accuracy     IntAcc      ... 4.338
Radial Grid Type                 RadialGrid  ... OptM3 with GC (2021)
Angular Grid (max. ang.)         AngularGrid ... 3 (Lebedev-194)
Angular grid pruning method      GridPruning ... 4 (adaptive)
Weight generation scheme         WeightScheme... Becke
Basis function cutoff            BFCut       ... 1.0000e-11
Integration weight cutoff        WCut        ... 1.0000e-14
Angular grids for H and He will be reduced by one unit
Partially contracted basis set               ... on
Rotationally invariant grid construction     ... off

Total number of grid points                  ...   112587
Total number of batches                      ...     1781
Average number of points per batch           ...       63
Average number of grid points per atom       ...     2746
UseSFitting                                  ... on

Time for X-Grid setup             =    1.570 sec


--------------------
CPCM SOLVATION MODEL
--------------------
CPCM parameters:
  Epsilon                                         ...      80.4000
  Refrac                                          ...       1.3300
  Rsolv                                           ...       1.3000
  Surface type                                    ... GAUSSIAN VDW
  Epsilon function type                           ...         CPCM
Radii:
 Radius for C  used is    3.8550 Bohr (=   2.0400 Ang.)
 Radius for N  used is    3.5149 Bohr (=   1.8600 Ang.)
 Radius for H  used is    2.4944 Bohr (=   1.3200 Ang.)
Calculating surface                               ...        done! (  0.0s)
GEPOL surface points                              ...         2230
GEPOL Volume                                      ...    2459.8417
GEPOL Surface-area                                ...    1272.5526
Calculating surface distance matrix               ...        done! (  0.0s)
Performing Cholesky decomposition & store         ...        done! (  0.2s)
Overall time for CPCM initialization              ...                 0.2s
--------------
SCF ITERATIONS
--------------
ITER       Energy         Delta-E        Max-DP      RMS-DP      [F,P]     Damp
               ***  Starting incremental Fock matrix formation  ***
  0   -844.3072464542   0.000000000000 0.03133349  0.00060506  0.1473943 0.8500
  1   -844.3839874475  -0.076740993262 0.02825153  0.00056565  0.1193829 0.8500
                               ***Turning on DIIS***
  2   -844.4430683397  -0.059080892174 0.02217853  0.00046710  0.0923328 0.8500
  3   -844.4873660842  -0.044297744520 0.01905412  0.00035174  0.0705858 0.8500
  4   -844.5217616375  -0.034395553339 0.01629926  0.00027953  0.0564181 0.8500
  5   -844.5489828008  -0.027221163273 0.01374702  0.00023227  0.0467006 0.8500
  6   -844.5711617330  -0.022178932173 0.01157244  0.00019656  0.0392881 0.8500
  7   -844.5895373695  -0.018375636551 0.00972329  0.00016845  0.0332746 0.8500
  8   -844.6049142532  -0.015376883626 0.05492295  0.00096328  0.0281505 0.0000
  9   -844.6878161333  -0.082901880146 0.00194167  0.00003175  0.0013130 0.0000
                      *** Initiating the SOSCF procedure ***
                           *** Shutting down DIIS ***
                      *** Re-Reading the Fockian *** 
                      *** Removing any level shift *** 
ITER      Energy       Delta-E        Grad      Rot      Max-DP    RMS-DP
 10   -844.68785760  -0.0000414713  0.000608  0.000608  0.000912  0.000016
               *** Restarting incremental Fock matrix formation ***
 11   -844.68773463   0.0001229751  0.000268  0.000660  0.000668  0.000016
 12   -844.68773817  -0.0000035415  0.000189  0.000901  0.000622  0.000013
 13   -844.68773901  -0.0000008409  0.000074  0.000176  0.000193  0.000005
 14   -844.68773927  -0.0000002625  0.000018  0.000040  0.000069  0.000001
 15   -844.68773929  -0.0000000162  0.000013  0.000029  0.000032  0.000000
 16   -844.68773930  -0.0000000058  0.000003  0.000010  0.000015  0.000000
                  ***Gradient check signals convergence***
              ***Rediagonalizing the Fockian in SOSCF/NRSCF***

               *****************************************************
               *                     SUCCESS                       *
               *           SCF CONVERGED AFTER  17 CYCLES          *
               *****************************************************

Old exchange energy                            =    -38.096934791 Eh
New exchange energy                            =    -38.096975713 Eh
Exchange energy change after final integration =     -0.000040921 Eh
Total energy after final integration           =   -844.687780239 Eh
Final COS-X integration done in                =    32.650 sec

----------------
TOTAL SCF ENERGY
----------------

Total Energy       :         -844.68778024 Eh          -22985.12304 eV

Components:
Nuclear Repulsion  :         1541.21845252 Eh           41938.68621 eV
Electronic Energy  :        -2385.90623276 Eh          -64923.80926 eV
One Electron Energy:        -4202.54555419 Eh         -114357.07833 eV
Two Electron Energy:         1816.63932142 Eh           49433.26907 eV
Max COSX asymmetry :            0.00000184 Eh               0.00005 eV
CPCM Dielectric    :           -0.02233643 Eh              -0.60781 eV

Virial components:
Potential Energy   :        -1678.53811132 Eh          -45675.34410 eV
Kinetic Energy     :          833.85033108 Eh           22690.22106 eV
Virial Ratio       :            2.01299688


DFT components:
N(Alpha)           :       73.999988187017 electrons
N(Beta)            :       73.999988187017 electrons
N(Total)           :      147.999976374035 electrons
E(XC)              :      -85.661571014998 Eh       
DFET-embed. en.    :        0.000000000000 Eh       
CPCM Solvation Model Properties:
Surface-charge          :           -0.03019808
Charge-correction       :           -0.00045399 Eh              -0.01235 eV
Free-energy (cav+disp)  :  This term is not implemented in the current solvation scheme

---------------
SCF CONVERGENCE
---------------

  Last Energy change         ...   -2.1013e-08  Tolerance :   1.0000e-08
  Last MAX-Density change    ...    6.2172e-15  Tolerance :   1.0000e-07
  Last RMS-Density change    ...    3.8733e-17  Tolerance :   5.0000e-09
  Last Orbital Gradient      ...    1.4983e-06  Tolerance :   1.0000e-05
  Last Orbital Rotation      ...    4.6109e-06  Tolerance :   1.0000e-05

             **** THE GBW FILE WAS UPDATED (8_deprot.gbw) ****
             **** DENSITY 8_deprot.scfp WAS UPDATED ****
             **** ENERGY FILE WAS UPDATED (8_deprot.en.tmp) ****
             **** THE GBW FILE WAS UPDATED (8_deprot.gbw) ****
             **** DENSITY 8_deprot.scfp WAS UPDATED ****
----------------
ORBITAL ENERGIES
----------------

  NO   OCC          E(Eh)            E(eV) 
   0   2.0000     -14.476090      -393.9144 
   1   2.0000     -14.472082      -393.8054 
   2   2.0000     -10.334064      -281.2042 
   3   2.0000     -10.326711      -281.0041 
   4   2.0000     -10.317604      -280.7563 
   5   2.0000     -10.305540      -280.4280 
   6   2.0000     -10.304955      -280.4121 
   7   2.0000     -10.299673      -280.2683 
   8   2.0000     -10.298956      -280.2488 
   9   2.0000     -10.296314      -280.1770 
  10   2.0000     -10.296160      -280.1728 
  11   2.0000     -10.276009      -279.6244 
  12   2.0000     -10.274015      -279.5702 
  13   2.0000     -10.272449      -279.5275 
  14   2.0000     -10.272142      -279.5192 
  15   2.0000     -10.271979      -279.5148 
  16   2.0000     -10.271741      -279.5083 
  17   2.0000     -10.271379      -279.4984 
  18   2.0000     -10.271326      -279.4970 
  19   2.0000     -10.271314      -279.4967 
  20   2.0000     -10.271130      -279.4917 
  21   2.0000      -1.127415       -30.6785 
  22   2.0000      -1.048335       -28.5266 
  23   2.0000      -0.992173       -26.9984 
  24   2.0000      -0.977126       -26.5889 
  25   2.0000      -0.911643       -24.8071 
  26   2.0000      -0.911295       -24.7976 
  27   2.0000      -0.904515       -24.6131 
  28   2.0000      -0.875531       -23.8244 
  29   2.0000      -0.859430       -23.3863 
  30   2.0000      -0.824124       -22.4256 
  31   2.0000      -0.813180       -22.1277 
  32   2.0000      -0.796286       -21.6680 
  33   2.0000      -0.795233       -21.6394 
  34   2.0000      -0.756918       -20.5968 
  35   2.0000      -0.730449       -19.8765 
  36   2.0000      -0.694424       -18.8962 
  37   2.0000      -0.692421       -18.8417 
  38   2.0000      -0.688673       -18.7398 
  39   2.0000      -0.679509       -18.4904 
  40   2.0000      -0.649914       -17.6851 
  41   2.0000      -0.621117       -16.9014 
  42   2.0000      -0.604752       -16.4561 
  43   2.0000      -0.595782       -16.2120 
  44   2.0000      -0.593979       -16.1630 
  45   2.0000      -0.572478       -15.5779 
  46   2.0000      -0.554209       -15.0808 
  47   2.0000      -0.546117       -14.8606 
  48   2.0000      -0.539630       -14.6841 
  49   2.0000      -0.533009       -14.5039 
  50   2.0000      -0.530030       -14.4229 
  51   2.0000      -0.527326       -14.3493 
  52   2.0000      -0.525836       -14.3087 
  53   2.0000      -0.523701       -14.2506 
  54   2.0000      -0.523327       -14.2405 
  55   2.0000      -0.510893       -13.9021 
  56   2.0000      -0.508283       -13.8311 
  57   2.0000      -0.502465       -13.6728 
  58   2.0000      -0.501024       -13.6336 
  59   2.0000      -0.471326       -12.8254 
  60   2.0000      -0.470253       -12.7962 
  61   2.0000      -0.462078       -12.5738 
  62   2.0000      -0.459338       -12.4992 
  63   2.0000      -0.453681       -12.3453 
  64   2.0000      -0.447406       -12.1745 
  65   2.0000      -0.442923       -12.0525 
  66   2.0000      -0.442152       -12.0316 
  67   2.0000      -0.393924       -10.7192 
  68   2.0000      -0.351986        -9.5780 
  69   2.0000      -0.344674        -9.3790 
  70   2.0000      -0.335899        -9.1403 
  71   2.0000      -0.335360        -9.1256 
  72   2.0000      -0.332475        -9.0471 
  73   2.0000      -0.326787        -8.8923 
  74   0.0000       0.051608         1.4043 
  75   0.0000       0.061452         1.6722 
  76   0.0000       0.066774         1.8170 
  77   0.0000       0.071267         1.9393 
  78   0.0000       0.084756         2.3063 
  79   0.0000       0.116116         3.1597 
  80   0.0000       0.143322         3.9000 
  81   0.0000       0.164076         4.4647 
  82   0.0000       0.165970         4.5163 
  83   0.0000       0.166897         4.5415 
  84   0.0000       0.181274         4.9327 
  85   0.0000       0.187190         5.0937 
  86   0.0000       0.191849         5.2205 
  87   0.0000       0.202586         5.5126 
  88   0.0000       0.209023         5.6878 
  89   0.0000       0.213286         5.8038 
  90   0.0000       0.217413         5.9161 
  91   0.0000       0.222971         6.0674 
  92   0.0000       0.227300         6.1852 
  93   0.0000       0.235195         6.4000 
  94   0.0000       0.235722         6.4143 
  95   0.0000       0.240701         6.5498 
  96   0.0000       0.241487         6.5712 
  97   0.0000       0.247378         6.7315 
  98   0.0000       0.256349         6.9756 
  99   0.0000       0.257921         7.0184 
 100   0.0000       0.265583         7.2269 
 101   0.0000       0.273255         7.4357 
 102   0.0000       0.279302         7.6002 
 103   0.0000       0.289824         7.8865 
 104   0.0000       0.302724         8.2375 
 105   0.0000       0.313501         8.5308 
 106   0.0000       0.331395         9.0177 
 107   0.0000       0.333404         9.0724 
 108   0.0000       0.334911         9.1134 
 109   0.0000       0.342532         9.3208 
 110   0.0000       0.360493         9.8095 
 111   0.0000       0.390077        10.6145 
 112   0.0000       0.394197        10.7266 
 113   0.0000       0.399477        10.8703 
 114   0.0000       0.403706        10.9854 
 115   0.0000       0.409462        11.1420 
 116   0.0000       0.414885        11.2896 
 117   0.0000       0.418256        11.3813 
 118   0.0000       0.426141        11.5959 
 119   0.0000       0.429330        11.6827 
 120   0.0000       0.443411        12.0658 
 121   0.0000       0.446215        12.1421 
 122   0.0000       0.461771        12.5654 
 123   0.0000       0.463445        12.6110 
 124   0.0000       0.484015        13.1707 
 125   0.0000       0.494503        13.4561 
 126   0.0000       0.505849        13.7648 
 127   0.0000       0.508646        13.8410 
 128   0.0000       0.512325        13.9411 
 129   0.0000       0.515419        14.0253 
 130   0.0000       0.519382        14.1331 
 131   0.0000       0.537307        14.6209 
 132   0.0000       0.538930        14.6650 
 133   0.0000       0.550389        14.9768 
 134   0.0000       0.552019        15.0212 
 135   0.0000       0.554241        15.0817 
 136   0.0000       0.563814        15.3422 
 137   0.0000       0.575945        15.6723 
 138   0.0000       0.583290        15.8721 
 139   0.0000       0.585204        15.9242 
 140   0.0000       0.586808        15.9678 
 141   0.0000       0.590189        16.0599 
 142   0.0000       0.595780        16.2120 
 143   0.0000       0.598216        16.2783 
 144   0.0000       0.602708        16.4005 
 145   0.0000       0.618135        16.8203 
 146   0.0000       0.629434        17.1278 
 147   0.0000       0.632179        17.2025 
 148   0.0000       0.640906        17.4399 
 149   0.0000       0.647090        17.6082 
 150   0.0000       0.665443        18.1076 
 151   0.0000       0.679874        18.5003 
 152   0.0000       0.684032        18.6135 
 153   0.0000       0.685942        18.6654 
 154   0.0000       0.700017        19.0484 
 155   0.0000       0.704158        19.1611 
 156   0.0000       0.713515        19.4157 
 157   0.0000       0.721049        19.6207 
 158   0.0000       0.727041        19.7838 
 159   0.0000       0.728632        19.8271 
 160   0.0000       0.732996        19.9458 
 161   0.0000       0.737620        20.0717 
 162   0.0000       0.739938        20.1347 
 163   0.0000       0.748944        20.3798 
 164   0.0000       0.749602        20.3977 
 165   0.0000       0.755854        20.5678 
 166   0.0000       0.758391        20.6369 
 167   0.0000       0.760210        20.6864 
 168   0.0000       0.767574        20.8867 
 169   0.0000       0.768847        20.9214 
 170   0.0000       0.772112        21.0102 
 171   0.0000       0.777585        21.1592 
 172   0.0000       0.780717        21.2444 
 173   0.0000       0.782390        21.2899 
 174   0.0000       0.783538        21.3211 
 175   0.0000       0.788218        21.4485 
 176   0.0000       0.794196        21.6112 
 177   0.0000       0.798150        21.7188 
 178   0.0000       0.799358        21.7516 
 179   0.0000       0.805817        21.9274 
 180   0.0000       0.809524        22.0283 
 181   0.0000       0.815415        22.1886 
 182   0.0000       0.817869        22.2553 
 183   0.0000       0.827425        22.5154 
 184   0.0000       0.836560        22.7640 
 185   0.0000       0.841160        22.8891 
 186   0.0000       0.847601        23.0644 
 187   0.0000       0.850746        23.1500 
 188   0.0000       0.856193        23.2982 
 189   0.0000       0.871538        23.7158 
 190   0.0000       0.878870        23.9153 
 191   0.0000       0.881294        23.9812 
 192   0.0000       0.888692        24.1825 
 193   0.0000       0.895978        24.3808 
 194   0.0000       0.900679        24.5087 
 195   0.0000       0.910842        24.7853 
 196   0.0000       0.917315        24.9614 
 197   0.0000       0.924503        25.1570 
 198   0.0000       0.927677        25.2434 
 199   0.0000       0.930247        25.3133 
 200   0.0000       0.938603        25.5407 
 201   0.0000       0.963352        26.2141 
 202   0.0000       0.978684        26.6314 
 203   0.0000       0.986919        26.8554 
 204   0.0000       1.016121        27.6501 
 205   0.0000       1.038729        28.2652 
 206   0.0000       1.049320        28.5535 
 207   0.0000       1.063212        28.9315 
 208   0.0000       1.087557        29.5939 
 209   0.0000       1.103873        30.0379 
 210   0.0000       1.131762        30.7968 
 211   0.0000       1.155640        31.4466 
 212   0.0000       1.189752        32.3748 
 213   0.0000       1.204969        32.7889 
 214   0.0000       1.208965        32.8976 
 215   0.0000       1.224759        33.3274 
 216   0.0000       1.238328        33.6966 
 217   0.0000       1.244647        33.8686 
 218   0.0000       1.253220        34.1018 
 219   0.0000       1.259361        34.2690 
 220   0.0000       1.271059        34.5873 
 221   0.0000       1.275026        34.6952 
 222   0.0000       1.295631        35.2559 
 223   0.0000       1.299997        35.3747 
 224   0.0000       1.307679        35.5838 
 225   0.0000       1.319081        35.8940 
 226   0.0000       1.340032        36.4641 
 227   0.0000       1.349938        36.7337 
 228   0.0000       1.356936        36.9241 
 229   0.0000       1.360371        37.0176 
 230   0.0000       1.386683        37.7336 
 231   0.0000       1.394617        37.9495 
 232   0.0000       1.399659        38.0867 
 233   0.0000       1.429149        38.8891 
 234   0.0000       1.439797        39.1789 
 235   0.0000       1.473097        40.0850 
 236   0.0000       1.479696        40.2646 
 237   0.0000       1.512842        41.1665 
 238   0.0000       1.556209        42.3466 
 239   0.0000       1.570503        42.7356 
 240   0.0000       1.590859        43.2895 
 241   0.0000       1.601212        43.5712 
 242   0.0000       1.606039        43.7026 
 243   0.0000       1.610475        43.8232 
 244   0.0000       1.616198        43.9790 
 245   0.0000       1.631834        44.4045 
 246   0.0000       1.636941        44.5434 
 247   0.0000       1.642507        44.6949 
 248   0.0000       1.651607        44.9425 
 249   0.0000       1.656131        45.0656 
 250   0.0000       1.657951        45.1151 
 251   0.0000       1.663660        45.2705 
 252   0.0000       1.665558        45.3221 
 253   0.0000       1.689856        45.9833 
 254   0.0000       1.724784        46.9338 
 255   0.0000       1.762523        47.9607 
 256   0.0000       1.768017        48.1102 
 257   0.0000       1.773477        48.2588 
 258   0.0000       1.786355        48.6092 
 259   0.0000       1.802860        49.0583 
 260   0.0000       1.807895        49.1953 
 261   0.0000       1.815029        49.3894 
 262   0.0000       1.818155        49.4745 
 263   0.0000       1.821716        49.5714 
 264   0.0000       1.824630        49.6507 
 265   0.0000       1.825248        49.6675 
 266   0.0000       1.835471        49.9457 
 267   0.0000       1.844152        50.1819 
 268   0.0000       1.854289        50.4578 
 269   0.0000       1.858804        50.5806 
 270   0.0000       1.865753        50.7697 
 271   0.0000       1.874040        50.9952 
 272   0.0000       1.890695        51.4484 
 273   0.0000       1.892699        51.5030 
 274   0.0000       1.900104        51.7045 
 275   0.0000       1.906338        51.8741 
 276   0.0000       1.912788        52.0496 
 277   0.0000       1.916366        52.1470 
 278   0.0000       1.924852        52.3779 
 279   0.0000       1.928429        52.4752 
 280   0.0000       1.929956        52.5168 
 281   0.0000       1.934781        52.6481 
 282   0.0000       1.944769        52.9199 
 283   0.0000       1.948421        53.0192 
 284   0.0000       1.949831        53.0576 
 285   0.0000       1.956594        53.2416 
 286   0.0000       1.971594        53.6498 
 287   0.0000       1.976058        53.7713 
 288   0.0000       1.989962        54.1496 
 289   0.0000       2.003741        54.5246 
 290   0.0000       2.011135        54.7258 
 291   0.0000       2.015444        54.8430 
 292   0.0000       2.042169        55.5703 
 293   0.0000       2.046270        55.6818 
 294   0.0000       2.052125        55.8412 
 295   0.0000       2.057267        55.9811 
 296   0.0000       2.063538        56.1517 
 297   0.0000       2.076982        56.5176 
 298   0.0000       2.080653        56.6174 
 299   0.0000       2.093582        56.9693 
 300   0.0000       2.122377        57.7528 
 301   0.0000       2.130625        57.9773 
 302   0.0000       2.135741        58.1165 
 303   0.0000       2.137798        58.1725 
 304   0.0000       2.142632        58.3040 
 305   0.0000       2.143525        58.3283 
 306   0.0000       2.153323        58.5949 
 307   0.0000       2.160856        58.7999 
 308   0.0000       2.168090        58.9967 
 309   0.0000       2.179051        59.2950 
 310   0.0000       2.194193        59.7070 
 311   0.0000       2.196150        59.7603 
 312   0.0000       2.207457        60.0680 
 313   0.0000       2.210472        60.1500 
 314   0.0000       2.242107        61.0108 
 315   0.0000       2.251230        61.2591 
 316   0.0000       2.253978        61.3339 
 317   0.0000       2.270152        61.7740 
 318   0.0000       2.302797        62.6623 
 319   0.0000       2.313527        62.9543 
 320   0.0000       2.323581        63.2279 
 321   0.0000       2.345881        63.8347 
 322   0.0000       2.353828        64.0509 
 323   0.0000       2.355365        64.0927 
 324   0.0000       2.369285        64.4715 
 325   0.0000       2.374256        64.6068 
 326   0.0000       2.384467        64.8846 
 327   0.0000       2.386605        64.9428 
 328   0.0000       2.389159        65.0123 
 329   0.0000       2.407517        65.5119 
 330   0.0000       2.419902        65.8489 
 331   0.0000       2.425949        66.0134 
 332   0.0000       2.442510        66.4641 
 333   0.0000       2.479560        67.4723 
 334   0.0000       2.497584        67.9627 
 335   0.0000       2.520091        68.5752 
 336   0.0000       2.533920        68.9515 
 337   0.0000       2.540313        69.1254 
 338   0.0000       2.543163        69.2030 
 339   0.0000       2.546439        69.2921 
 340   0.0000       2.553379        69.4810 
 341   0.0000       2.555826        69.5476 
 342   0.0000       2.569328        69.9150 
 343   0.0000       2.575091        70.0718 
 344   0.0000       2.623375        71.3856 
 345   0.0000       2.633872        71.6713 
 346   0.0000       2.640506        71.8518 
 347   0.0000       2.650468        72.1229 
 348   0.0000       2.656762        72.2942 
 349   0.0000       2.671589        72.6976 
 350   0.0000       2.677969        72.8713 
 351   0.0000       2.686490        73.1031 
 352   0.0000       2.701748        73.5183 
 353   0.0000       2.710649        73.7605 
 354   0.0000       2.717818        73.9556 
 355   0.0000       2.741570        74.6019 
 356   0.0000       2.753788        74.9344 
 357   0.0000       2.764046        75.2135 
 358   0.0000       2.797431        76.1220 
 359   0.0000       2.844013        77.3895 
 360   0.0000       2.848098        77.5007 
 361   0.0000       2.852986        77.6337 
 362   0.0000       2.855935        77.7140 
 363   0.0000       2.863857        77.9295 
 364   0.0000       2.869230        78.0757 
 365   0.0000       2.895438        78.7889 
 366   0.0000       2.922311        79.5201 
 367   0.0000       2.949816        80.2686 
 368   0.0000       2.956977        80.4634 
 369   0.0000       2.988796        81.3293 
 370   0.0000       3.003499        81.7294 
 371   0.0000       3.006716        81.8169 
 372   0.0000       3.020990        82.2053 
 373   0.0000       3.027726        82.3886 
 374   0.0000       3.033383        82.5426 
 375   0.0000       3.041027        82.7506 
 376   0.0000       3.045886        82.8828 
 377   0.0000       3.052296        83.0572 
 378   0.0000       3.063898        83.3729 
 379   0.0000       3.074748        83.6681 
 380   0.0000       3.075470        83.6878 
 381   0.0000       3.110277        84.6349 
 382   0.0000       3.125222        85.0416 
 383   0.0000       3.146622        85.6239 
 384   0.0000       3.154153        85.8289 
 385   0.0000       3.161437        86.0271 
 386   0.0000       3.173249        86.3485 
 387   0.0000       3.333119        90.6988 
 388   0.0000       3.352448        91.2248 
 389   0.0000       3.358747        91.3961 
 390   0.0000       3.380557        91.9896 
 391   0.0000       3.532373        96.1207 
 392   0.0000       3.674007        99.9748 
 393   0.0000       3.687055       100.3299 

                    ********************************
[...]
 10:     84.88   0.000025    0.13  0.000093  ( 0.000115  0.009602  0.000652)
 11:     89.79   0.000046    0.23  0.000161  ( 0.011948 -0.000442 -0.004254)
 12:    120.86   0.000675    3.41  0.001744  ( 0.001884 -0.040667 -0.009306)
 13:    127.00   0.000436    2.20  0.001071  ( 0.003618 -0.031688 -0.007361)
 14:    131.73   0.000187    0.95  0.000444  (-0.018731 -0.009600 -0.000963)
 15:    136.32   0.000344    1.74  0.000786  (-0.004612  0.013317 -0.024247)
 16:    148.25   0.000058    0.29  0.000121  (-0.000982 -0.010881  0.001303)
 17:    197.28   0.001991   10.06  0.003150  (-0.055741  0.003500 -0.005547)
 18:    206.50   0.000760    3.84  0.001149  (-0.005733 -0.033016 -0.005089)
 19:    236.92   0.000010    0.05  0.000013  (-0.000103 -0.000681 -0.003582)
 20:    238.60   0.000013    0.07  0.000018  (-0.001576  0.001109 -0.003716)
 21:    280.26   0.000891    4.50  0.000992  ( 0.031413  0.001129  0.001962)
 22:    306.41   0.003411   17.24  0.003474  (-0.000927 -0.009025  0.058236)
 23:    335.97   0.001673    8.45  0.001554  ( 0.001046 -0.038886 -0.006384)
 24:    357.20   0.001157    5.84  0.001010  (-0.000346 -0.031599 -0.003435)
 25:    360.24   0.000094    0.47  0.000081  ( 0.001479 -0.008855 -0.000724)
 26:    399.35   0.000652    3.30  0.000510  ( 0.022534 -0.000419 -0.001287)
 27:    437.02   0.000027    0.13  0.000019  (-0.004257 -0.000506  0.000809)
 28:    483.62   0.000155    0.78  0.000100  (-0.000284  0.001483 -0.009881)
 29:    493.69   0.000003    0.01  0.000002  ( 0.000987  0.000284 -0.000896)
 30:    535.19   0.000028    0.14  0.000016  ( 0.000306  0.000910 -0.003911)
 31:    537.49   0.000016    0.08  0.000009  (-0.001157 -0.000262  0.002782)
 32:    543.33   0.000094    0.47  0.000054  ( 0.000756  0.000185 -0.007299)
 33:    547.24   0.000002    0.01  0.000001  (-0.000128 -0.000932  0.000184)
 34:    579.72   0.000327    1.65  0.000176  (-0.000155  0.013098  0.002073)
 35:    595.05   0.000042    0.21  0.000022  (-0.000034 -0.004623 -0.000812)
 36:    604.48   0.000031    0.16  0.000016  ( 0.003781 -0.001244 -0.000322)
 37:    628.28   0.002109   10.66  0.001048  ( 0.032368 -0.000086 -0.000069)
 38:    686.87   0.000014    0.07  0.000006  ( 0.000742 -0.001828  0.001566)
 39:    689.58   0.002046   10.34  0.000926  ( 0.003333  0.003527 -0.030042)
 40:    759.91   0.014589   73.73  0.005991  ( 0.000825  0.010906 -0.076627)
 41:    768.51   0.000059    0.30  0.000024  ( 0.000571 -0.004761  0.000989)
 42:    779.67   0.001095    5.53  0.000438  ( 0.020880  0.000509  0.001375)
 43:    786.60   0.000330    1.67  0.000131  ( 0.000127  0.011083  0.002808)
 44:    795.60   0.001332    6.73  0.000522  (-0.022615 -0.003089  0.001222)
 45:    807.26   0.013627   68.86  0.005268  ( 0.019434  0.069253  0.009698)
 46:    810.67   0.008993   45.45  0.003462  ( 0.030362 -0.050394 -0.000587)
 47:    892.94   0.000004    0.02  0.000001  ( 0.000723 -0.000200 -0.000854)
 48:    937.85   0.000192    0.97  0.000064  ( 0.000012  0.000144 -0.007990)
 49:    941.57   0.001538    7.77  0.000510  ( 0.001252  0.001573 -0.022491)
 50:    941.72   0.000654    3.31  0.000217  ( 0.000321 -0.003307  0.014345)
 51:    945.46   0.000016    0.08  0.000005  (-0.001467 -0.000259 -0.001742)
 52:    963.45   0.009218   46.59  0.002986  ( 0.054614  0.001297  0.001185)
 53:    973.60   0.000945    4.78  0.000303  ( 0.001049 -0.017178 -0.002620)
 54:   1004.03   0.001533    7.74  0.000476  ( 0.021785 -0.001311 -0.000083)
 55:   1004.99   0.000566    2.86  0.000176  (-0.012201 -0.005070 -0.001132)
 56:   1034.89   0.000097    0.49  0.000029  ( 0.001375 -0.003633 -0.003746)
 57:   1035.44   0.000373    1.88  0.000112  (-0.000208  0.010378  0.002158)
 58:   1055.54   0.000102    0.51  0.000030  (-0.000955 -0.005391  0.000215)
 59:   1056.74   0.000895    4.52  0.000264  (-0.007206 -0.014449 -0.001868)
 60:   1057.07   0.000816    4.12  0.000241  ( 0.003438  0.015135  0.000198)
 61:   1058.42   0.003442   17.40  0.001015  (-0.006521  0.030539  0.006307)
 62:   1060.08   0.000419    2.12  0.000123  (-0.000777 -0.000237  0.011071)
 63:   1060.37   0.000461    2.33  0.000136  ( 0.001260 -0.001148 -0.011517)
 64:   1091.56   0.005383   27.21  0.001539  (-0.001457  0.038734  0.006048)
 65:   1098.13   0.000250    1.26  0.000071  ( 0.004513 -0.007061 -0.000830)
 66:   1100.64   0.000172    0.87  0.000049  (-0.002078  0.006519  0.001422)
 67:   1127.77   0.007259   36.68  0.002009  ( 0.044808  0.000549  0.000682)
 68:   1139.79   0.000406    2.05  0.000111  (-0.007724 -0.007066 -0.001283)
 69:   1173.16   0.000581    2.94  0.000155  ( 0.000191 -0.001972  0.012278)
 70:   1174.14   0.000626    3.16  0.000166  ( 0.000387  0.001138 -0.012839)
 71:   1267.69   0.009353   47.27  0.002302  ( 0.047961  0.001189  0.000910)
 72:   1277.81   0.000106    0.54  0.000026  (-0.000720  0.000797 -0.004983)
 73:   1280.65   0.000086    0.43  0.000021  (-0.002015  0.001040 -0.003973)
 74:   1296.58   0.000022    0.11  0.000005  (-0.001714  0.001513  0.000274)
 75:   1302.13   0.001380    6.98  0.000331  ( 0.018172  0.000442  0.000627)
 76:   1330.48   0.000822    4.15  0.000193  ( 0.003608 -0.001105  0.013360)
 77:   1330.83   0.002038   10.30  0.000478  ( 0.001968 -0.002908  0.021578)
 78:   1337.01   0.002468   12.47  0.000576  (-0.023563 -0.001051  0.004456)
 79:   1379.25   0.001088    5.50  0.000246  (-0.000579  0.015126  0.004130)
 80:   1390.20   0.000018    0.09  0.000004  (-0.000031  0.001282 -0.001562)
 81:   1391.04   0.000046    0.23  0.000010  (-0.000753 -0.001509 -0.002741)
 82:   1394.89   0.000056    0.28  0.000013  (-0.003224 -0.000932 -0.001127)
 83:   1398.41   0.001990   10.06  0.000444  ( 0.021019  0.001495 -0.000279)
 84:   1418.99   0.000341    1.72  0.000075  (-0.000676 -0.008543 -0.001218)
 85:   1433.71   0.008992   45.44  0.001957  ( 0.044173 -0.002015  0.001364)
 86:   1443.09   0.004903   24.78  0.001060  ( 0.007860 -0.030614 -0.007833)
 87:   1443.31   0.002884   14.57  0.000624  ( 0.019614  0.011111 -0.010742)
 88:   1444.70   0.002545   12.86  0.000550  ( 0.002921  0.022483  0.005977)
 89:   1445.64   0.000272    1.37  0.000059  ( 0.007417 -0.001804 -0.000668)
 90:   1447.00   0.003754   18.97  0.000810  (-0.004311 -0.027482 -0.005979)
 91:   1447.57   0.002881   14.56  0.000621  ( 0.009102 -0.008453  0.021604)
 92:   1453.70   0.000107    0.54  0.000023  (-0.001107  0.004640  0.000400)
 93:   1470.50   0.002704   13.67  0.000574  ( 0.023953  0.000085  0.000313)
 94:   1533.48   0.000382    1.93  0.000078  (-0.001193  0.000793  0.008700)
 95:   1533.71   0.010191   51.50  0.002073  (-0.000932 -0.005496  0.045193)
 96:   1555.23   0.058155  293.89  0.011669  ( 0.108005  0.001194  0.001574)
 97:   1561.61   0.002434   12.30  0.000486  (-0.004288 -0.021360 -0.003424)
 98:   1652.01   0.000315    1.59  0.000060  ( 0.000103  0.007697  0.000583)
 99:   1698.20   0.000068    0.34  0.000013  (-0.003532 -0.000167 -0.000040)
100:   1699.92   0.000021    0.11  0.000004  ( 0.000252 -0.001908 -0.000392)
101:   1703.03   0.000385    1.95  0.000071  ( 0.000711 -0.000694 -0.008342)
102:   1703.58   0.004792   24.22  0.000878  ( 0.001023  0.003415 -0.029414)
103:   3065.98   0.009656   48.80  0.000983  ( 0.006385  0.004879 -0.030302)
104:   3066.44   0.002797   14.14  0.000285  ( 0.000352  0.002254  0.016717)
105:   3066.97   0.000526    2.66  0.000053  (-0.004553 -0.005617  0.001100)
106:   3067.34   0.003729   18.85  0.000379  (-0.017500  0.002458 -0.008191)
107:   3154.68   0.002298   11.61  0.000227  (-0.002257  0.014868 -0.001093)
108:   3154.95   0.002671   13.50  0.000264  ( 0.000094  0.016080  0.002373)
109:   3155.58   0.000259    1.31  0.000026  (-0.004608  0.000884 -0.001903)
110:   3155.83   0.000873    4.41  0.000086  ( 0.002846  0.008759  0.001217)
111:   3184.78   0.003420   17.28  0.000335  ( 0.011368  0.002781  0.014075)
112:   3185.54   0.003315   16.75  0.000325  (-0.009348 -0.000563  0.015396)
113:   3185.73   0.002946   14.89  0.000289  ( 0.013983 -0.006113  0.007466)
114:   3186.21   0.002932   14.82  0.000287  ( 0.014074  0.004334 -0.008388)
115:   3206.18   0.000001    0.01  0.000000  (-0.000148  0.000246 -0.000201)
116:   3206.33   0.000001    0.01  0.000000  (-0.000117  0.000152 -0.000263)
117:   3213.37   0.002840   14.35  0.000276  (-0.000324 -0.002503  0.016414)
118:   3213.41   0.002917   14.74  0.000283  (-0.000711 -0.001169  0.016775)
119:   3227.32   0.003295   16.65  0.000319  ( 0.017347 -0.004183 -0.000461)
120:   3227.51   0.002766   13.98  0.000267  (-0.015394 -0.005328 -0.001453)
121:   3285.68   0.003270   16.52  0.000311  (-0.017614 -0.000354 -0.000440)
122:   3307.01   0.000739    3.73  0.000070  ( 0.000120  0.008273  0.001133)

* The epsilon (eps) is given for a Dirac delta lineshape.
** The dipole moment derivative (T) already includes vibrational overlap.

The first frequency considered to be a vibration is 6
The total number of vibrations considered is 117


--------------------------
THERMOCHEMISTRY AT 298.15K
--------------------------

Temperature         ... 298.15 K
Pressure            ... 1.00 atm
Total Mass          ... 276.38 AMU

Throughout the following assumptions are being made:
  (1) The electronic state is orbitally nondegenerate
  (2) There are no thermally accessible electronically excited states
  (3) Hindered rotations indicated by low frequency modes are not
      treated as such but are treated as vibrations and this may
      cause some error
  (4) All equations used are the standard statistical mechanics
      equations for an ideal gas
  (5) All vibrations are strictly harmonic

freq.       4.51  E(vib)   ...       0.59 
freq.      20.88  E(vib)   ...       0.56 
freq.      55.76  E(vib)   ...       0.52 
freq.      68.98  E(vib)   ...       0.50 
freq.      84.88  E(vib)   ...       0.48 
freq.      89.79  E(vib)   ...       0.47 
freq.     120.86  E(vib)   ...       0.44 
freq.     127.00  E(vib)   ...       0.43 
freq.     131.73  E(vib)   ...       0.42 
freq.     136.32  E(vib)   ...       0.42 
freq.     148.25  E(vib)   ...       0.41 
freq.     197.28  E(vib)   ...       0.35 
freq.     206.50  E(vib)   ...       0.35 
freq.     236.92  E(vib)   ...       0.32 
freq.     238.60  E(vib)   ...       0.32 
freq.     280.26  E(vib)   ...       0.28 
freq.     306.41  E(vib)   ...       0.26 
freq.     335.97  E(vib)   ...       0.24 
freq.     357.20  E(vib)   ...       0.22 
freq.     360.24  E(vib)   ...       0.22 
freq.     399.35  E(vib)   ...       0.19 
freq.     437.02  E(vib)   ...       0.17 
freq.     483.62  E(vib)   ...       0.15 
freq.     493.69  E(vib)   ...       0.14 
freq.     535.19  E(vib)   ...       0.13 
freq.     537.49  E(vib)   ...       0.12 
freq.     543.33  E(vib)   ...       0.12 
freq.     547.24  E(vib)   ...       0.12 
freq.     579.72  E(vib)   ...       0.11 
freq.     595.05  E(vib)   ...       0.10 
freq.     604.48  E(vib)   ...       0.10 
freq.     628.28  E(vib)   ...       0.09 
freq.     686.87  E(vib)   ...       0.07 
freq.     689.58  E(vib)   ...       0.07 
freq.     759.91  E(vib)   ...       0.06 
freq.     768.51  E(vib)   ...       0.06 
freq.     779.67  E(vib)   ...       0.05 
freq.     786.60  E(vib)   ...       0.05 
freq.     795.60  E(vib)   ...       0.05 
freq.     807.26  E(vib)   ...       0.05 
freq.     810.67  E(vib)   ...       0.05 
freq.     892.94  E(vib)   ...       0.03 
freq.     937.85  E(vib)   ...       0.03 
freq.     941.57  E(vib)   ...       0.03 
freq.     941.72  E(vib)   ...       0.03 
freq.     945.46  E(vib)   ...       0.03 
freq.     963.45  E(vib)   ...       0.03 
freq.     973.60  E(vib)   ...       0.03 
freq.    1004.03  E(vib)   ...       0.02 
freq.    1004.99  E(vib)   ...       0.02 
freq.    1034.89  E(vib)   ...       0.02 
freq.    1035.44  E(vib)   ...       0.02 
freq.    1055.54  E(vib)   ...       0.02 
freq.    1056.74  E(vib)   ...       0.02 
freq.    1057.07  E(vib)   ...       0.02 
freq.    1058.42  E(vib)   ...       0.02 
freq.    1060.08  E(vib)   ...       0.02 
freq.    1060.37  E(vib)   ...       0.02 
freq.    1091.56  E(vib)   ...       0.02 
freq.    1098.13  E(vib)   ...       0.02 
freq.    1100.64  E(vib)   ...       0.02 
freq.    1127.77  E(vib)   ...       0.01 
freq.    1139.79  E(vib)   ...       0.01 
freq.    1173.16  E(vib)   ...       0.01 
freq.    1174.14  E(vib)   ...       0.01 
freq.    1267.69  E(vib)   ...       0.01 
freq.    1277.81  E(vib)   ...       0.01 
freq.    1280.65  E(vib)   ...       0.01 
freq.    1296.58  E(vib)   ...       0.01 
freq.    1302.13  E(vib)   ...       0.01 
freq.    1330.48  E(vib)   ...       0.01 
freq.    1330.83  E(vib)   ...       0.01 
freq.    1337.01  E(vib)   ...       0.01 
freq.    1379.25  E(vib)   ...       0.01 
freq.    1390.20  E(vib)   ...       0.00 
freq.    1391.04  E(vib)   ...       0.00 
freq.    1394.89  E(vib)   ...       0.00 
freq.    1398.41  E(vib)   ...       0.00 
freq.    1418.99  E(vib)   ...       0.00 
freq.    1433.71  E(vib)   ...       0.00 
freq.    1443.09  E(vib)   ...       0.00 
freq.    1443.31  E(vib)   ...       0.00 
freq.    1444.70  E(vib)   ...       0.00 
freq.    1445.64  E(vib)   ...       0.00 
freq.    1447.00  E(vib)   ...       0.00 
freq.    1447.57  E(vib)   ...       0.00 
freq.    1453.70  E(vib)   ...       0.00 
freq.    1470.50  E(vib)   ...       0.00 
freq.    1533.48  E(vib)   ...       0.00 
freq.    1533.71  E(vib)   ...       0.00 
freq.    1555.23  E(vib)   ...       0.00 
freq.    1561.61  E(vib)   ...       0.00 
freq.    1652.01  E(vib)   ...       0.00 
freq.    1698.20  E(vib)   ...       0.00 
freq.    1699.92  E(vib)   ...       0.00 
freq.    1703.03  E(vib)   ...       0.00 
freq.    1703.58  E(vib)   ...       0.00 
freq.    3065.98  E(vib)   ...       0.00 
freq.    3066.44  E(vib)   ...       0.00 
freq.    3066.97  E(vib)   ...       0.00 
freq.    3067.34  E(vib)   ...       0.00 
freq.    3154.68  E(vib)   ...       0.00 
freq.    3154.95  E(vib)   ...       0.00 
freq.    3155.58  E(vib)   ...       0.00 
freq.    3155.83  E(vib)   ...       0.00 
freq.    3184.78  E(vib)   ...       0.00 
freq.    3185.54  E(vib)   ...       0.00 
freq.    3185.73  E(vib)   ...       0.00 
freq.    3186.21  E(vib)   ...       0.00 
freq.    3206.18  E(vib)   ...       0.00 
freq.    3206.33  E(vib)   ...       0.00 
freq.    3213.37  E(vib)   ...       0.00 
freq.    3213.41  E(vib)   ...       0.00 
freq.    3227.32  E(vib)   ...       0.00 
freq.    3227.51  E(vib)   ...       0.00 
freq.    3285.68  E(vib)   ...       0.00 
freq.    3307.01  E(vib)   ...       0.00 

------------
INNER ENERGY
------------

The inner energy is: U= E(el) + E(ZPE) + E(vib) + E(rot) + E(trans)
    E(el)   - is the total energy from the electronic structure calculation
              = E(kin-el) + E(nuc-el) + E(el-el) + E(nuc-nuc)
    E(ZPE)  - the the zero temperature vibrational energy from the frequency calculation
    E(vib)  - the the finite temperature correction to E(ZPE) due to population
              of excited vibrational states
    E(rot)  - is the rotational thermal energy
    E(trans)- is the translational thermal energy

Summary of contributions to the inner energy U:
Electronic energy                ...   -844.74955737 Eh
Zero point energy                ...      0.34557429 Eh     216.85 kcal/mol
Thermal vibrational correction   ...      0.01669117 Eh      10.47 kcal/mol
Thermal rotational correction    ...      0.00141627 Eh       0.89 kcal/mol
Thermal translational correction ...      0.00141627 Eh       0.89 kcal/mol
-----------------------------------------------------------------------
Total thermal energy                   -844.38445936 Eh


Summary of corrections to the electronic energy:
(perhaps to be used in another calculation)
Total thermal correction                  0.01952372 Eh      12.25 kcal/mol
Non-thermal (ZPE) correction              0.34557429 Eh     216.85 kcal/mol
-----------------------------------------------------------------------
Total correction                          0.36509801 Eh     229.10 kcal/mol


--------
ENTHALPY
--------

The enthalpy is H = U + kB*T
                kB is Boltzmann's constant
Total free energy                 ...   -844.38445936 Eh 
Thermal Enthalpy correction       ...      0.00094421 Eh       0.59 kcal/mol
-----------------------------------------------------------------------
Total Enthalpy                    ...   -844.38351515 Eh


Note: Only C1 symmetry has been detected, increase convergence thresholds 
      if your molecule has a higher symmetry. Symmetry factor of 1.0 is   
      used for the rotational entropy correction. 
 

Note: Rotational entropy computed according to Herzberg 
Infrared and Raman Spectra, Chapter V,1, Van Nostrand Reinhold, 1945 
Point Group:  C1, Symmetry Number:   1  
Rotational constants in cm-1:     0.023619     0.005964     0.005189 

Vibrational entropy computed according to the QRRHO of S. Grimme
Chem.Eur.J. 2012 18 9955


-------
ENTROPY
-------

The entropy contributions are T*S = T*(S(el)+S(vib)+S(rot)+S(trans))
     S(el)   - electronic entropy
     S(vib)  - vibrational entropy
     S(rot)  - rotational entropy
     S(trans)- translational entropy
The entropies will be listed as multiplied by the temperature to get
units of energy

Electronic entropy                ...      0.00000000 Eh      0.00 kcal/mol
Vibrational entropy               ...      0.03048799 Eh     19.13 kcal/mol
Rotational entropy                ...      0.01618098 Eh     10.15 kcal/mol
Translational entropy             ...      0.02031105 Eh     12.75 kcal/mol
-----------------------------------------------------------------------
Final entropy term                ...      0.06698002 Eh     42.03 kcal/mol

In case the symmetry of your molecule has not been determined correctly
or in case you have a reason to use a different symmetry number we print 
out the resulting rotational entropy values for sn=1,12 :
 --------------------------------------------------------
|  sn= 1 | S(rot)=       0.01618098 Eh     10.15 kcal/mol|
|  sn= 2 | S(rot)=       0.01552652 Eh      9.74 kcal/mol|
|  sn= 3 | S(rot)=       0.01514369 Eh      9.50 kcal/mol|
|  sn= 4 | S(rot)=       0.01487207 Eh      9.33 kcal/mol|
|  sn= 5 | S(rot)=       0.01466138 Eh      9.20 kcal/mol|
|  sn= 6 | S(rot)=       0.01448923 Eh      9.09 kcal/mol|
|  sn= 7 | S(rot)=       0.01434369 Eh      9.00 kcal/mol|
|  sn= 8 | S(rot)=       0.01421761 Eh      8.92 kcal/mol|
|  sn= 9 | S(rot)=       0.01410640 Eh      8.85 kcal/mol|
|  sn=10 | S(rot)=       0.01400692 Eh      8.79 kcal/mol|
|  sn=11 | S(rot)=       0.01391693 Eh      8.73 kcal/mol|
|  sn=12 | S(rot)=       0.01383478 Eh      8.68 kcal/mol|
 --------------------------------------------------------


-------------------
GIBBS FREE ENERGY
-------------------

The Gibbs free energy is G = H - T*S

Total enthalpy                    ...   -844.38351515 Eh 
Total entropy correction          ...     -0.06698002 Eh    -42.03 kcal/mol
-----------------------------------------------------------------------
Final Gibbs free energy         ...   -844.45049517 Eh

For completeness - the Gibbs free energy minus the electronic energy
G-E(el)                           ...      0.29906220 Eh    187.66 kcal/mol


Timings for individual modules:

Sum of individual times         ...     7269.551 sec (= 121.159 min)
GTO integral calculation        ...       19.476 sec (=   0.325 min)   0.3 %
SCF iterations                  ...     4709.687 sec (=  78.495 min)  64.8 %
SCF Gradient evaluation         ...     1331.196 sec (=  22.187 min)  18.3 %
Geometry relaxation             ...        2.467 sec (=   0.041 min)   0.0 %
Analytical frequency calculation...     1206.726 sec (=  20.112 min)  16.6 %
                             ****ORCA TERMINATED NORMALLY****
TOTAL RUN TIME: 0 days 2 hours 1 minutes 21 seconds 90 msec
