      -----------------------------------------------------------      
     |                   =====================                   |     
     |                           x T B                           |     
     |                   =====================                   |     
     |                         S. Grimme                         |     
     |          Mulliken Center for Theoretical Chemistry        |     
     |                    University of Bonn                     |     
      -----------------------------------------------------------      

   * xtb version 6.6.1 (8d0f1dd) compiled by 'conda@1efc2f54142f' on 2023-08-01

   xtb is free software: you can redistribute it and/or modify it under
   the terms of the GNU Lesser General Public License as published by
   the Free Software Foundation, either version 3 of the License, or
   (at your option) any later version.
   
   xtb is distributed in the hope that it will be useful,
   but WITHOUT ANY WARRANTY; without even the implied warranty of
   MERCHANTABILITY or FITNESS FOR A PARTICULAR PURPOSE.  See the
   GNU Lesser General Public License for more details.
   
   Cite this work as:
   * C. Bannwarth, E. Caldeweyher, S. Ehlert, A. Hansen, P. Pracht,
     J. Seibert, S. Spicher, S. Grimme, WIREs Comput. Mol. Sci., 2020, 11,
     e01493. DOI: 10.1002/wcms.1493
   
   for GFN2-xTB:
   * C. Bannwarth, S. Ehlert and S. Grimme., J. Chem. Theory Comput., 2019,
     15, 1652-1671. DOI: 10.1021/acs.jctc.8b01176
   for GFN1-xTB:
   * S. Grimme, C. Bannwarth, P. Shushkov, J. Chem. Theory Comput., 2017,
     13, 1989-2009. DOI: 10.1021/acs.jctc.7b00118
   for GFN0-xTB:
   * P. Pracht, E. Caldeweyher, S. Ehlert, S. Grimme, ChemRxiv, 2019, preprint.
     DOI: 10.26434/chemrxiv.8326202.v1
   for GFN-FF:
   * S. Spicher and S. Grimme, Angew. Chem. Int. Ed., 2020, 59, 15665-15673.
     DOI: 10.1002/anie.202004239
   
   for ALPB and GBSA implicit solvation:
   * S. Ehlert, M. Stahn, S. Spicher, S. Grimme, J. Chem. Theory Comput.,
     2021, 17, 4250-4261. DOI: 10.1021/acs.jctc.1c00471
   
   for DFT-D4:
   * E. Caldeweyher, C. Bannwarth and S. Grimme, J. Chem. Phys., 2017,
     147, 034112. DOI: 10.1063/1.4993215
   * E. Caldeweyher, S. Ehlert, A. Hansen, H. Neugebauer, S. Spicher,
     C. Bannwarth and S. Grimme, J. Chem. Phys., 2019, 150, 154122.
     DOI: 10.1063/1.5090222
   * E. Caldeweyher, J.-M. Mewes, S. Ehlert and S. Grimme, Phys. Chem. Chem. Phys.
     2020, 22, 8499-8512. DOI: 10.1039/D0CP00502A
   
   for sTDA-xTB:
   * S. Grimme and C. Bannwarth, J. Chem. Phys., 2016, 145, 054103.
     DOI: 10.1063/1.4959605
   
   in the mass-spec context:
   * V. Asgeirsson, C. Bauer and S. Grimme, Chem. Sci., 2017, 8, 4879.
     DOI: 10.1039/c7sc00601b
   * J. Koopman and S. Grimme, ACS Omega 2019, 4, 12, 15120-15133.
     DOI: 10.1021/acsomega.9b02011
   
   for metadynamics refer to:
   * S. Grimme, J. Chem. Theory Comput., 2019, 155, 2847-2862
     DOI: 10.1021/acs.jctc.9b00143
   
   for SPH calculations refer to:
   * S. Spicher and S. Grimme, J. Chem. Theory Comput., 2021, 17, 1701-1714
     DOI: 10.1021/acs.jctc.0c01306
   
   with help from (in alphabetical order)
   P. Atkinson, C. Bannwarth, F. Bohle, G. Brandenburg, E. Caldeweyher
   M. Checinski, S. Dohm, S. Ehlert, S. Ehrlich, I. Gerasimov, C. Hölzer
   A. Katbashev, J. Koopman, C. Lavigne, S. Lehtola, F. März, M. Müller,
   F. Musil, H. Neugebauer, J. Pisarek, C. Plett, P. Pracht, F. Pultar,
   J. Seibert, P. Shushkov, S. Spicher, M. Stahn, M. Steiner, T. Strunk,
   J. Stückrath, T. Rose, and J. Unsleber
   
 * started run on 2024/02/12 at 14:13:51.903     

           -------------------------------------------------
          |                Calculation Setup                |
           -------------------------------------------------

          program call               : xtb struc.xyz --gfn2 --ceasefiles --opt
          hostname                   : node021
          coordinate file            : struc.xyz
          omp threads                :                     1

   ID    Z sym.   atoms
    1    6 C      1, 2, 5-7, 11-14, 27, 28
    2    7 N      3, 4
    3    1 H      8-10, 15-26, 29-34

           -------------------------------------------------
          |                 G F N 2 - x T B                 |
           -------------------------------------------------

        Reference                      10.1021/acs.jctc.8b01176
      * Hamiltonian:
        H0-scaling (s, p, d)           1.850000    2.230000    2.230000
        zeta-weighting                 0.500000
      * Dispersion:
        s8                             2.700000
        a1                             0.520000
        a2                             5.000000
        s9                             5.000000
      * Repulsion:
        kExp                           1.500000    1.000000
        rExp                           1.000000
      * Coulomb:
        alpha                          2.000000
        third order                    shell-resolved
        anisotropic                    true
        a3                             3.000000
        a5                             4.000000
        cn-shift                       1.200000
        cn-exp                         4.000000
        max-rad                        5.000000


          ...................................................
          :                      SETUP                      :
          :.................................................:
          :  # basis functions                  73          :
          :  # atomic orbitals                  73          :
          :  # shells                           47          :
          :  # electrons                        74          :
          :  max. iterations                   250          :
          :  Hamiltonian                  GFN2-xTB          :
          :  restarted?                      false          :
          :  GBSA solvation                  false          :
          :  PC potential                    false          :
          :  electronic temp.          300.0000000     K    :
          :  accuracy                    1.0000000          :
          :  -> integral cutoff          0.2500000E+02      :
          :  -> integral neglect         0.1000000E-07      :
          :  -> SCF convergence          0.1000000E-05 Eh   :
          :  -> wf. convergence          0.1000000E-03 e    :
          :  Broyden damping             0.4000000          :
          ...................................................

 iter      E             dE          RMSdq      gap      omega  full diag
   1    -40.2519986 -0.402520E+02  0.254E+00    5.55       0.0  T
   2    -40.3563516 -0.104353E+00  0.179E+00    4.64       1.0  T
   3    -40.3634038 -0.705219E-02  0.103E+00    4.88       1.0  T
   4    -40.3634059 -0.216484E-05  0.285E-01    4.63       1.0  T
   5    -40.3642930 -0.887084E-03  0.696E-02    4.68       1.0  T
   6    -40.3643307 -0.376880E-04  0.373E-02    4.67       1.0  T
   7    -40.3643320 -0.134022E-05  0.164E-02    4.69       1.0  T
   8    -40.3643374 -0.540480E-05  0.174E-03    4.68       9.8  T
   9    -40.3643375 -0.132927E-07  0.849E-04    4.68      20.2  T
  10    -40.3643375 -0.102661E-08  0.415E-04    4.68      41.3  T

   *** convergence criteria satisfied after 10 iterations ***

         #    Occupation            Energy/Eh            Energy/eV
      -------------------------------------------------------------
         1        2.0000           -0.8794638             -23.9314
       ...           ...                  ...                  ...
        31        2.0000           -0.5878278             -15.9956
        32        2.0000           -0.5863969             -15.9567
        33        2.0000           -0.5812392             -15.8163
        34        2.0000           -0.5748159             -15.6415
        35        2.0000           -0.5738451             -15.6151
        36        2.0000           -0.5726307             -15.5821
        37        2.0000           -0.5682034             -15.4616 (HOMO)
        38                         -0.3961217             -10.7790 (LUMO)
        39                         -0.3593148              -9.7775
        40                         -0.1991818              -5.4200
        41                         -0.1534703              -4.1761
        42                         -0.0896060              -2.4383
       ...                                ...                  ...
        73                          0.4719392              12.8421
      -------------------------------------------------------------
                  HL-Gap            0.1720817 Eh            4.6826 eV
             Fermi-level           -0.4821625 Eh          -13.1203 eV

 SCC (total)                   0 d,  0 h,  0 min,  0.070 sec
 SCC setup                      ...        0 min,  0.000 sec (  0.703%)
 Dispersion                     ...        0 min,  0.000 sec (  0.674%)
 classical contributions        ...        0 min,  0.000 sec (  0.173%)
 integral evaluation            ...        0 min,  0.006 sec (  8.391%)
 iterations                     ...        0 min,  0.044 sec ( 62.686%)
 molecular gradient             ...        0 min,  0.019 sec ( 26.915%)
 printout                       ...        0 min,  0.000 sec (  0.425%)

         :::::::::::::::::::::::::::::::::::::::::::::::::::::
         ::                     SUMMARY                     ::
         :::::::::::::::::::::::::::::::::::::::::::::::::::::
         :: total energy             -39.752443655128 Eh    ::
         :: gradient norm              0.062098408125 Eh/a0 ::
         :: HOMO-LUMO gap              4.682581994622 eV    ::
         ::.................................................::
         :: SCC energy               -40.364337460138 Eh    ::
         :: -> isotropic ES            0.076749846895 Eh    ::
         :: -> anisotropic ES         -0.005519271154 Eh    ::
         :: -> anisotropic XC          0.025781973382 Eh    ::
         :: -> dispersion             -0.027942422683 Eh    ::
         :: repulsion energy           0.611605656088 Eh    ::
         :: add. restraining           0.000000000000 Eh    ::
         :: total charge               1.000000000000 e     ::
         :::::::::::::::::::::::::::::::::::::::::::::::::::::

      ----------------------------------------------------------- 
     |                   =====================                   |
     |                        A N C O P T                        |
     |                   =====================                   |
     |               Approximate Normal Coordinate               |
     |                Rational Function Optimizer                |
      ----------------------------------------------------------- 

Optimization log is written to '/dev/null'

          ...................................................
          :                      SETUP                      :
          :.................................................:
          :   optimization level             crude          :
          :   max. optcycles                   200          :
          :   ANC micro-cycles                  20          :
          :   degrees of freedom                96          :
          :.................................................:
          :   RF solver                   davidson          :
          :   write xtbopt.log                true          :
          :   linear?                        false          :
          :   energy convergence         0.5000000E-03 Eh   :
          :   grad. convergence          0.1000000E-01 Eh/α :
          :   maxmium RF displ.          1.0000000          :
          :   Hlow (freq-cutoff)         0.5000000E-02      :
          :   Hmax (freq-cutoff)         5.0000000          :
          :   S6 in model hess.         20.0000000          :
          ...................................................

generating ANC from model Hessian ...
Using Lindh-Hessian (1995)
 Shifting diagonal of input Hessian by    4.6617794375053197E-003
 Lowest  eigenvalues of input Hessian
    0.000000    0.000000    0.000000    0.000000    0.000000    0.000000
    0.005000    0.005523    0.005773    0.008827    0.009243    0.009682
    0.011613    0.013333    0.014465    0.014509    0.014629    0.014796
 Highest eigenvalues
    1.337726    1.697315    1.991491    2.025957    2.154800    2.220039


........................................................................
.............................. CYCLE    1 ..............................
........................................................................

 iter      E             dE          RMSdq      gap      omega  full diag
   1    -40.3643375 -0.403643E+02  0.792E-05    4.68       0.0  T
   2    -40.3643375 -0.128608E-10  0.437E-05    4.68     392.2  T
   3    -40.3643375  0.316902E-11  0.192E-05    4.68     892.7  T
     SCC iter.                  ...        0 min,  0.006 sec
     gradient                   ...        0 min,  0.017 sec
 * total energy  :   -39.7524437 Eh     change       -0.3908845E-08 Eh
   gradient norm :     0.0620964 Eh/α   predicted     0.0000000E+00 (-100.00%)
   displ. norm   :     0.5270878 α      lambda       -0.2284145E-01
   maximum displ.:     0.1998870 α      in ANC's #18, #35, #22, ...

........................................................................
.............................. CYCLE    2 ..............................
........................................................................

 iter      E             dE          RMSdq      gap      omega  full diag
   1    -40.3727124 -0.403727E+02  0.317E-01    4.79       0.0  T
   2    -40.3727735 -0.611090E-04  0.185E-01    4.81       1.0  T
   3    -40.3727712  0.223932E-05  0.226E-02    4.81       1.0  T
   4    -40.3727793 -0.812716E-05  0.961E-03    4.81       1.8  T
   5    -40.3727814 -0.209439E-05  0.392E-03    4.81       4.4  T
   6    -40.3727815 -0.505671E-07  0.912E-04    4.81      18.8  T
   7    -40.3727815 -0.559674E-08  0.366E-04    4.81      46.8  T
     SCC iter.                  ...        0 min,  0.012 sec
     gradient                   ...        0 min,  0.017 sec
 * total energy  :   -39.7680914 Eh     change       -0.1564775E-01 Eh
   gradient norm :     0.0259307 Eh/α   predicted    -0.1459370E-01 (  -6.74%)
   displ. norm   :     0.5098226 α      lambda       -0.7661839E-02
   maximum displ.:     0.1878567 α      in ANC's #6, #4, #22, ...

........................................................................
.............................. CYCLE    3 ..............................
........................................................................

 iter      E             dE          RMSdq      gap      omega  full diag
   1    -40.3758548 -0.403759E+02  0.189E-01    4.85       0.0  T
   2    -40.3758660 -0.112657E-04  0.110E-01    4.85       1.0  T
   3    -40.3758638  0.220000E-05  0.137E-02    4.85       1.3  T
   4    -40.3758686 -0.475728E-05  0.504E-03    4.85       3.4  T
   5    -40.3758690 -0.400182E-06  0.213E-03    4.85       8.1  T
   6    -40.3758690 -0.883018E-08  0.599E-04    4.85      28.7  T
   7    -40.3758690 -0.815771E-08  0.209E-04    4.85      82.1  T
     SCC iter.                  ...        0 min,  0.011 sec
     gradient                   ...        0 min,  0.017 sec
 * total energy  :   -39.7733619 Eh     change       -0.5270479E-02 Eh
   gradient norm :     0.0165137 Eh/α   predicted    -0.4826658E-02 (  -8.42%)
   displ. norm   :     0.4645374 α      lambda       -0.3091553E-02
   maximum displ.:     0.2074618 α      in ANC's #6, #3, #1, ...

........................................................................
.............................. CYCLE    4 ..............................
........................................................................

 iter      E             dE          RMSdq      gap      omega  full diag
   1    -40.3797232 -0.403797E+02  0.109E-01    4.86       0.0  T
   2    -40.3797267 -0.343028E-05  0.640E-02    4.86       1.0  T
   3    -40.3797256  0.110329E-05  0.803E-03    4.87       2.1  T
   4    -40.3797274 -0.188322E-05  0.274E-03    4.86       6.3  T
   5    -40.3797275 -0.109190E-06  0.125E-03    4.86      13.7  T
   6    -40.3797275 -0.253198E-08  0.326E-04    4.86      52.6  T
   7    -40.3797275 -0.184768E-08  0.114E-04    4.86     150.7  T
     SCC iter.                  ...        0 min,  0.011 sec
     gradient                   ...        0 min,  0.016 sec
 * total energy  :   -39.7756379 Eh     change       -0.2276007E-02 Eh
   gradient norm :     0.0156975 Eh/α   predicted    -0.1879404E-02 ( -17.43%)
   displ. norm   :     0.4578199 α      lambda       -0.1995844E-02
   maximum displ.:     0.2123393 α      in ANC's #6, #3, #4, ...

........................................................................
.............................. CYCLE    5 ..............................
........................................................................

 iter      E             dE          RMSdq      gap      omega  full diag
   1    -40.3848111 -0.403848E+02  0.986E-02    4.87       0.0  T
   2    -40.3848145 -0.332103E-05  0.576E-02    4.86       1.0  T
   3    -40.3848140  0.428734E-06  0.626E-03    4.87       2.7  T
   4    -40.3848149 -0.837308E-06  0.234E-03    4.86       7.3  T
   5    -40.3848150 -0.115026E-06  0.106E-03    4.87      16.2  T
   6    -40.3848150 -0.206483E-08  0.152E-04    4.87     112.7  T
   7    -40.3848150 -0.290015E-09  0.641E-05    4.87     267.6  T
     SCC iter.                  ...        0 min,  0.011 sec
     gradient                   ...        0 min,  0.017 sec
 * total energy  :   -39.7770947 Eh     change       -0.1456826E-02 Eh
   gradient norm :     0.0104368 Eh/α   predicted    -0.1207086E-02 ( -17.14%)
   displ. norm   :     0.4185799 α      lambda       -0.1122606E-02
   maximum displ.:     0.2339378 α      in ANC's #3, #1, #6, ...

........................................................................
.............................. CYCLE    6 ..............................
........................................................................

 iter      E             dE          RMSdq      gap      omega  full diag
   1    -40.3871859 -0.403872E+02  0.867E-02    4.87       0.0  T
   2    -40.3871884 -0.244073E-05  0.507E-02    4.86       1.0  T
   3    -40.3871870  0.134711E-05  0.790E-03    4.87       2.2  T
   4    -40.3871889 -0.188256E-05  0.207E-03    4.86       8.3  T
   5    -40.3871890 -0.614293E-07  0.991E-04    4.86      17.3  T
   6    -40.3871890 -0.108999E-08  0.239E-04    4.86      71.6  T
     SCC iter.                  ...        0 min,  0.009 sec
     gradient                   ...        0 min,  0.017 sec
 * total energy  :   -39.7778395 Eh     change       -0.7447589E-03 Eh
   gradient norm :     0.0075535 Eh/α   predicted    -0.6596495E-03 ( -11.43%)
   displ. norm   :     0.2948716 α      lambda       -0.4673362E-03
   maximum displ.:     0.1690862 α      in ANC's #3, #6, #1, ...

........................................................................
.............................. CYCLE    7 ..............................
........................................................................

 iter      E             dE          RMSdq      gap      omega  full diag
   1    -40.3893532 -0.403894E+02  0.629E-02    4.86       0.0  T
   2    -40.3893554 -0.219560E-05  0.365E-02    4.86       1.0  T
   3    -40.3893548  0.608375E-06  0.651E-03    4.86       2.6  T
   4    -40.3893558 -0.933260E-06  0.199E-03    4.86       8.6  T
   5    -40.3893558 -0.732594E-07  0.920E-04    4.86      18.6  T
   6    -40.3893558 -0.113671E-08  0.171E-04    4.86     100.4  T
     SCC iter.                  ...        0 min,  0.009 sec
     gradient                   ...        0 min,  0.017 sec
 * total energy  :   -39.7780843 Eh     change       -0.2447749E-03 Eh
   gradient norm :     0.0067550 Eh/α   predicted    -0.2539866E-03 (   3.76%)
   displ. norm   :     0.1530964 α      lambda       -0.1894443E-03
   maximum displ.:     0.0956932 α      in ANC's #3, #1, #6, ...

   *** GEOMETRY OPTIMIZATION CONVERGED AFTER 7 ITERATIONS ***

------------------------------------------------------------------------
 total energy gain   :        -0.0256406 Eh      -16.0897 kcal/mol
 total RMSD          :         0.4040144 a0        0.2138 Å
 total power (kW/mol):        -9.6170553 (step) -246.0522 (real)
------------------------------------------------------------------------

 ANCopt (total)                0 d,  0 h,  0 min,  0.274 sec
 optimizer setup                ...        0 min,  0.000 sec (  0.045%)
 model hessian                  ...        0 min,  0.038 sec ( 13.952%)
 ANC generation                 ...        0 min,  0.001 sec (  0.528%)
 coordinate transformation      ...        0 min,  0.000 sec (  0.068%)
 single point calculation       ...        0 min,  0.230 sec ( 84.157%)
 optimization log               ...        0 min,  0.001 sec (  0.460%)
 hessian update                 ...        0 min,  0.000 sec (  0.056%)
 rational function              ...        0 min,  0.001 sec (  0.532%)

================
 final structure:
================
34
 xtb: 6.6.1 (8d0f1dd)
C           -2.23260699061894        0.07899933594138        1.09812666514877
C            2.34895644597333       -0.35852658876626       -0.79798477579544
N           -1.05319393397824        0.24142395795531        0.23229424945232
N            0.93810306216784        0.03482870747326       -0.62766884694303
C           -0.95051304983489        1.14256698054139       -0.78455566182588
C            0.29352820005621        1.01635943006839       -1.31881838975158
C            0.10132537198697       -0.41477790515308        0.30381266358793
H           -1.74793313558016        1.80005290245326       -1.06023804436532
H            0.73480176732458        1.55615767724349       -2.12905205168302
H            0.32944807487448       -1.19865741846265        0.99398811552967
C           -1.99136929703213       -1.06321499887256        2.08145314515511
C            2.70553293486794       -0.29522718648250       -2.28444988315978
C            2.55318963039985       -1.77812853004199       -0.27398877428337
C           -2.43471256565617        1.38986703561770        1.86242115692084
H           -1.14456874664963       -0.85492994872784        2.72922915151586
H            2.68653591864242        0.72369713220025       -2.65535339530358
H            1.86576374555811       -2.47405278708560       -0.75174180424954
H           -1.55994268821703        1.62347170697880        2.46494998600528
H           -2.86301453568782       -1.17840856173092        2.71116890538852
H            2.01727132907769       -0.90009837514595       -2.87029265534378
H            3.56680382701081       -2.09949036372576       -0.50275636224251
H           -3.28841127862714        1.28979568661779        2.52394042419993
H           -1.82956873681151       -2.00230296733813        1.56551760172912
H            3.70932306461867       -0.68130615478084       -2.43499732741987
H            2.43668173192884       -1.83530035446779        0.80717639607141
H           -2.62506039402971        2.22126594321031        1.19056655778563
C           -3.43860633204480       -0.22981399941008        0.20969442210170
C            3.18729107196641        0.63816968362232        0.00861636507513
H           -4.29307642363307       -0.47924769215652        0.83421968868000
H            2.91907060321763        0.60399018830784        1.06249312073057
H           -3.71407622012805        0.62525712547385       -0.40460360807817
H            3.04204552608953        1.65330771448836       -0.35422456589476
H            4.24007953918402        0.38968002639124       -0.08390468400362
H           -3.23311930391647       -1.07730761223612       -0.44120091683463

 Bond Distances (Angstroems)
 ---------------------------
C1-N3=1.4721         C1-C11=1.5264        C1-C14=1.5308        C1-C27=1.5294        C2-N4=1.4745         C2-C12=1.5299        
C2-C13=1.5269        C2-C28=1.5319        N3-C1=1.4721         N3-C5=1.3626         N3-C7=1.3299         N4-C2=1.4745         
N4-C6=1.3626         N4-C7=1.3304         C5-N3=1.3626         C5-C6=1.3598         C5-H8=1.0697         C6-N4=1.3626         
C6-C5=1.3598         C6-H9=1.0689         C7-N3=1.3299         C7-N4=1.3304         C7-H10=1.0690        H8-C5=1.0697         
H9-C6=1.0689         H10-C7=1.0690        C11-C1=1.5264        C11-H15=1.0863       C11-H19=1.0815       C11-H23=1.0836       
C12-C2=1.5299        C12-H16=1.0845       C12-H20=1.0876       C12-H24=1.0860       C13-C2=1.5269        C13-H17=1.0886       
C13-H21=1.0877       C13-H25=1.0889       C14-C1=1.5308        C14-H18=1.0876       C14-H22=1.0846       C14-H26=1.0857       
H15-C11=1.0863       H16-C12=1.0845       H17-C13=1.0886       H18-C14=1.0876       H19-C11=1.0815       H20-C12=1.0876       
H21-C13=1.0877       H22-C14=1.0846       H23-C11=1.0836       H24-C12=1.0860       H25-C13=1.0889       H26-C14=1.0857       
C27-C1=1.5294        C27-H29=1.0874       C27-H31=1.0883       C27-H34=1.0882       C28-C2=1.5319        C28-H30=1.0880       
C28-H32=1.0878       C28-H33=1.0857       H29-C27=1.0874       H30-C28=1.0880       H31-C27=1.0883       H32-C28=1.0878       
H33-C28=1.0857       H34-C27=1.0882       
 C  H  Rav=1.0841 sigma=0.0063  Rmin=1.0689  Rmax=1.0889    21
 C  C  Rav=1.5050 sigma=0.0593  Rmin=1.3598  Rmax=1.5319     7
 N  C  Rav=1.3887 sigma=0.0613  Rmin=1.3299  Rmax=1.4745     6

 selected bond angles (degree)
 --------------------
C11-C1-N3=109.56               C14-C1-N3=107.76               C14-C1-C11=109.88              C27-C1-N3=108.20               
C27-C1-C11=110.35              C27-C1-C14=111.03              C12-C2-N4=108.92               C13-C2-N4=109.65               
C13-C2-C12=109.92              C28-C2-N4=106.81               C28-C2-C12=110.92              C28-C2-C13=110.55              
C5-N3-C1=124.91                C7-N3-C1=127.55                C7-N3-C5=107.52                C6-N4-C2=125.89                
C7-N4-C2=126.34                C7-N4-C6=107.52                C6-C5-N3=107.50                H8-C5-N3=122.87                
H8-C5-C6=129.63                C5-C6-N4=107.48                H9-C6-N4=123.57                H9-C6-C5=128.95                
N4-C7-N3=109.98                H10-C7-N3=125.58               H10-C7-N4=124.44               

 selected dihedral angles (degree)
 ---------------------------------
C5-N3-C1-C11=177.79           C5-N3-C1-C14=297.31           C5-N3-C1-C27= 57.43           C7-N3-C1-C11=355.93           
C7-N3-C1-C14=115.45           C7-N3-C1-C27=235.57           C6-N4-C2-C12=321.82           C6-N4-C2-C13=201.50           
C6-N4-C2-C28= 81.68           C7-N4-C2-C12=148.35           C7-N4-C2-C13= 28.03           C7-N4-C2-C28=268.21           
C6-C5-N3-C1=178.22            C6-C5-N3-C7=359.77            H8-C5-N3-C1=358.11            H8-C5-N3-C7=179.65            
C5-C6-N4-C2=185.30            C5-C6-N4-C7=359.78            H9-C6-N4-C2=  5.43            H9-C6-N4-C7=179.91            
N4-C6-C5-N3=  0.27            N4-C6-C5-H8=180.40            H9-C6-C5-N3=180.14            H9-C6-C5-H8=  0.26            
N4-C7-N3-C1=181.70            N4-C7-N3-C5=  0.10            H10-C7-N3-C1=  2.51           H10-C7-N3-C5=180.91           
N3-C7-N4-C2=174.52            N3-C7-N4-C6=  0.07            H10-C7-N4-C2=353.72           H10-C7-N4-C6=179.27           
           -------------------------------------------------
          |                Final Singlepoint                |
           -------------------------------------------------

          ...................................................
          :                      SETUP                      :
          :.................................................:
          :  # basis functions                  73          :
          :  # atomic orbitals                  73          :
          :  # shells                           47          :
          :  # electrons                        74          :
          :  max. iterations                   250          :
          :  Hamiltonian                  GFN2-xTB          :
          :  restarted?                      false          :
          :  GBSA solvation                  false          :
          :  PC potential                    false          :
          :  electronic temp.          300.0000000     K    :
          :  accuracy                    1.0000000          :
          :  -> integral cutoff          0.2500000E+02      :
          :  -> integral neglect         0.1000000E-07      :
          :  -> SCF convergence          0.1000000E-05 Eh   :
          :  -> wf. convergence          0.1000000E-03 e    :
          :  Broyden damping             0.4000000          :
          ...................................................

 iter      E             dE          RMSdq      gap      omega  full diag
   1    -40.3893558 -0.403894E+02  0.476E-05    4.86       0.0  T
   2    -40.3893558 -0.164420E-10  0.260E-05    4.86     659.4  T
   3    -40.3893558 -0.211742E-11  0.140E-05    4.86    1224.0  T

   *** convergence criteria satisfied after 3 iterations ***

         #    Occupation            Energy/Eh            Energy/eV
      -------------------------------------------------------------
         1        2.0000           -0.8781028             -23.8944
       ...           ...                  ...                  ...
        31        2.0000           -0.5901008             -16.0575
        32        2.0000           -0.5896389             -16.0449
        33        2.0000           -0.5811380             -15.8136
        34        2.0000           -0.5782719             -15.7356
        35        2.0000           -0.5780831             -15.7304
        36        2.0000           -0.5733154             -15.6007
        37        2.0000           -0.5710225             -15.5383 (HOMO)
        38                         -0.3924279             -10.6785 (LUMO)
        39                         -0.3568998              -9.7117
        40                         -0.1957848              -5.3276
        41                         -0.1454866              -3.9589
        42                         -0.0744716              -2.0265
       ...                                ...                  ...
        73                          0.4757481              12.9458
      -------------------------------------------------------------
                  HL-Gap            0.1785946 Eh            4.8598 eV
             Fermi-level           -0.4817252 Eh          -13.1084 eV

 SCC (total)                   0 d,  0 h,  0 min,  0.028 sec
 SCC setup                      ...        0 min,  0.000 sec (  0.989%)
 Dispersion                     ...        0 min,  0.000 sec (  0.983%)
 classical contributions        ...        0 min,  0.000 sec (  0.385%)
 integral evaluation            ...        0 min,  0.005 sec ( 18.826%)
 iterations                     ...        0 min,  0.005 sec ( 18.144%)
 molecular gradient             ...        0 min,  0.017 sec ( 60.026%)
 printout                       ...        0 min,  0.000 sec (  0.586%)

         :::::::::::::::::::::::::::::::::::::::::::::::::::::
         ::                     SUMMARY                     ::
         :::::::::::::::::::::::::::::::::::::::::::::::::::::
         :: total energy             -39.778084255966 Eh    ::
         :: gradient norm              0.006754604774 Eh/a0 ::
         :: HOMO-LUMO gap              4.859805864092 eV    ::
         ::.................................................::
         :: SCC energy               -40.389355837180 Eh    ::
         :: -> isotropic ES            0.076423670166 Eh    ::
         :: -> anisotropic ES         -0.005910141311 Eh    ::
         :: -> anisotropic XC          0.025702695978 Eh    ::
         :: -> dispersion             -0.027894370906 Eh    ::
         :: repulsion energy           0.610998531473 Eh    ::
         :: add. restraining           0.000000000000 Eh    ::
         :: total charge               1.000000000000 e     ::
         :::::::::::::::::::::::::::::::::::::::::::::::::::::

           -------------------------------------------------
          |                Property Printout                |
           -------------------------------------------------

    * Orbital Energies and Occupations

         #    Occupation            Energy/Eh            Energy/eV
      -------------------------------------------------------------
         1        2.0000           -0.8781028             -23.8944
       ...           ...                  ...                  ...
        25        2.0000           -0.6009030             -16.3514
        26        2.0000           -0.5995482             -16.3145
        27        2.0000           -0.5986715             -16.2907
        28        2.0000           -0.5979844             -16.2720
        29        2.0000           -0.5930726             -16.1383
        30        2.0000           -0.5911437             -16.0858
        31        2.0000           -0.5901008             -16.0575
        32        2.0000           -0.5896389             -16.0449
        33        2.0000           -0.5811380             -15.8136
        34        2.0000           -0.5782719             -15.7356
        35        2.0000           -0.5780831             -15.7304
        36        2.0000           -0.5733154             -15.6007
        37        2.0000           -0.5710225             -15.5383 (HOMO)
        38                         -0.3924279             -10.6785 (LUMO)
        39                         -0.3568998              -9.7117
        40                         -0.1957848              -5.3276
        41                         -0.1454866              -3.9589
        42                         -0.0744716              -2.0265
        43                         -0.0601660              -1.6372
        44                         -0.0586579              -1.5962
        45                         -0.0537048              -1.4614
        46                         -0.0479373              -1.3044
        47                         -0.0366863              -0.9983
        48                         -0.0321796              -0.8757
       ...                                ...                  ...
        73                          0.4757481              12.9458
      -------------------------------------------------------------
                  HL-Gap            0.1785946 Eh            4.8598 eV
             Fermi-level           -0.4817252 Eh          -13.1084 eV

     #   Z          covCN         q      C6AA      α(0)
     1   6 C        3.837     0.075    19.306     6.251
     2   6 C        3.836     0.075    19.308     6.251
     3   7 N        2.870     0.047    20.412     6.710
     4   7 N        2.870     0.046    20.440     6.715
     5   6 C        3.078    -0.005    28.065     8.685
     6   6 C        3.077    -0.006    28.078     8.688
     7   6 C        3.109     0.050    26.742     8.472
     8   1 H        0.927     0.099     1.795     2.095
     9   1 H        0.927     0.101     1.775     2.083
    10   1 H        0.927     0.112     1.683     2.029
    11   6 C        3.761    -0.133    23.114     6.854
    12   6 C        3.759    -0.130    23.046     6.844
    13   6 C        3.759    -0.132    23.084     6.850
    14   6 C        3.760    -0.128    23.007     6.838
    15   1 H        0.925     0.056     2.244     2.342
    16   1 H        0.925     0.062     2.178     2.308
    17   1 H        0.925     0.059     2.212     2.326
    18   1 H        0.925     0.057     2.234     2.337
    19   1 H        0.925     0.082     1.958     2.188
    20   1 H        0.925     0.060     2.194     2.316
    21   1 H        0.925     0.081     1.965     2.192
    22   1 H        0.925     0.080     1.977     2.199
    23   1 H        0.925     0.058     2.218     2.329
    24   1 H        0.925     0.079     1.988     2.205
    25   1 H        0.925     0.056     2.251     2.346
    26   1 H        0.925     0.060     2.193     2.316
    27   6 C        3.759    -0.128    23.010     6.839
    28   6 C        3.760    -0.127    22.980     6.834
    29   1 H        0.925     0.079     1.987     2.204
    30   1 H        0.925     0.054     2.267     2.354
    31   1 H        0.925     0.062     2.180     2.309
    32   1 H        0.925     0.059     2.205     2.322
    33   1 H        0.925     0.081     1.970     2.195
    34   1 H        0.925     0.057     2.229     2.335

 Mol. C6AA /au·bohr⁶  :       8558.976186
 Mol. C8AA /au·bohr⁸  :     188329.597359
 Mol. α(0) /au        :        140.161954


molecular dipole:
                 x           y           z       tot (Debye)
 q only:        0.001       0.066      -0.059
   full:        0.002       0.058      -0.051       0.196
molecular quadrupole (traceless):
                xx          xy          yy          xz          yz          zz
 q only:       14.032      -3.711      -8.922     -10.147      -2.528      -5.110
  q+dip:       13.529      -4.004      -8.541      -9.801      -3.420      -4.988
   full:       12.937      -3.554      -8.190      -9.307      -2.669      -4.747

           -------------------------------------------------
          |                Geometry Summary                 |
           -------------------------------------------------

      molecular mass/u    :      181.2982571
   center of mass at/Å    :        0.0074608       0.0169521      -0.0058721
  moments of inertia/u·Å² :        0.3016015E+03   0.1124876E+04   0.1203406E+04
rotational constants/cm⁻¹ :        0.5589373E-01   0.1498621E-01   0.1400827E-01

 * 34 selected distances

     #   Z          #   Z                                           value/Å
     1   6 C        3   7 N                                       1.4720948
     2   6 C        4   7 N                                       1.4745316
     3   7 N        5   6 C                                       1.3625660
     4   7 N        6   6 C                                       1.3625591
     5   6 C        6   6 C                                       1.3597809
     3   7 N        7   6 C                                       1.3298988
     4   7 N        7   6 C                                       1.3304139
     5   6 C        8   1 H                                       1.0696577
     6   6 C        9   1 H                                       1.0689169 (min)
     7   6 C       10   1 H                                       1.0690414
     1   6 C       11   6 C                                       1.5263619
     2   6 C       12   6 C                                       1.5299453
     2   6 C       13   6 C                                       1.5269424
     1   6 C       14   6 C                                       1.5308061
    11   6 C       15   1 H                                       1.0863093
    12   6 C       16   1 H                                       1.0844986
    13   6 C       17   1 H                                       1.0886290
    14   6 C       18   1 H                                       1.0875820
    11   6 C       19   1 H                                       1.0814699
    12   6 C       20   1 H                                       1.0875593
    13   6 C       21   1 H                                       1.0876681
    14   6 C       22   1 H                                       1.0846307
    11   6 C       23   1 H                                       1.0836306
    12   6 C       24   1 H                                       1.0859633
    13   6 C       25   1 H                                       1.0889266
    14   6 C       26   1 H                                       1.0857464
     1   6 C       27   6 C                                       1.5294157
     2   6 C       28   6 C                                       1.5319315 (max)
    27   6 C       29   1 H                                       1.0873676
    28   6 C       30   1 H                                       1.0880105
    27   6 C       31   1 H                                       1.0882980
    28   6 C       32   1 H                                       1.0877754
    28   6 C       33   1 H                                       1.0856662
    27   6 C       34   1 H                                       1.0881798

 * 3 distinct bonds (by element types)

   Z      Z             #   av. dist./Å        max./Å        min./Å
   1 H    6 C          21     1.0840727     1.0889266     1.0689169
   6 C    6 C           7     1.5050263     1.5319315     1.3597809
   6 C    7 N           6     1.3886774     1.4745316     1.3298988


optimized geometry written to: xtbopt.xyz


           -------------------------------------------------
          | TOTAL ENERGY              -39.778084255966 Eh   |
          | GRADIENT NORM               0.006754604774 Eh/α |
          | HOMO-LUMO GAP               4.859805864092 eV   |
           -------------------------------------------------

------------------------------------------------------------------------
 * finished run on 2024/02/12 at 14:13:52.330     
------------------------------------------------------------------------
 total:
 * wall-time:     0 d,  0 h,  0 min,  0.427 sec
 *  cpu-time:     0 d,  0 h,  0 min,  0.373 sec
 * ratio c/w:     0.874 speedup
 SCF:
 * wall-time:     0 d,  0 h,  0 min,  0.070 sec
 *  cpu-time:     0 d,  0 h,  0 min,  0.047 sec
 * ratio c/w:     0.671 speedup
 ANC optimizer:
 * wall-time:     0 d,  0 h,  0 min,  0.303 sec
 *  cpu-time:     0 d,  0 h,  0 min,  0.301 sec
 * ratio c/w:     0.994 speedup

