
                                 *****************
                                 * O   R   C   A *
                                 *****************

                                            #,                                       
                                            ###                                      
                                            ####                                     
                                            #####                                    
                                            ######                                   
                                           ########,                                 
                                     ,,################,,,,,                         
                               ,,#################################,,                 
                          ,,##########################################,,             
                       ,#########################################, ''#####,          
                    ,#############################################,,   '####,        
                  ,##################################################,,,,####,       
                ,###########''''           ''''###############################       
              ,#####''   ,,,,##########,,,,          '''####'''          '####       
            ,##' ,,,,###########################,,,                        '##       
           ' ,,###''''                  '''############,,,                           
         ,,##''                                '''############,,,,        ,,,,,,###''
      ,#''                                            '''#######################'''  
     '                                                          ''''####''''         
             ,#######,   #######,   ,#######,      ##                                
            ,#'     '#,  ##    ##  ,#'     '#,    #''#        ######   ,####,        
            ##       ##  ##   ,#'  ##            #'  '#       #        #'  '#        
            ##       ##  #######   ##           ,######,      #####,   #    #        
            '#,     ,#'  ##    ##  '#,     ,#' ,#      #,         ##   #,  ,#        
             '#######'   ##     ##  '#######'  #'      '#     #####' # '####'        



                  #######################################################
                  #                        -***-                        #
                  #          Department of theory and spectroscopy      #
                  #    Directorship and core code : Frank Neese         #
                  #        Max Planck Institute fuer Kohlenforschung    #
                  #                Kaiser Wilhelm Platz 1               #
                  #                 D-45470 Muelheim/Ruhr               #
                  #                      Germany                        #
                  #                                                     #
                  #                  All rights reserved                #
                  #                        -***-                        #
                  #######################################################


                         Program Version 5.0.4 -  RELEASE  -


 With contributions from (in alphabetic order):
   Daniel Aravena         : Magnetic Suceptibility
   Michael Atanasov       : Ab Initio Ligand Field Theory (pilot matlab implementation)
   Alexander A. Auer      : GIAO ZORA, VPT2 properties, NMR spectrum
   Ute Becker             : Parallelization
   Giovanni Bistoni       : ED, misc. LED, open-shell LED, HFLD
   Martin Brehm           : Molecular dynamics
   Dmytro Bykov           : SCF Hessian
   Vijay G. Chilkuri      : MRCI spin determinant printing, contributions to CSF-ICE
   Dipayan Datta          : RHF DLPNO-CCSD density
   Achintya Kumar Dutta   : EOM-CC, STEOM-CC
   Dmitry Ganyushin       : Spin-Orbit,Spin-Spin,Magnetic field MRCI
   Miquel Garcia          : C-PCM and meta-GGA Hessian, CC/C-PCM, Gaussian charge scheme
   Yang Guo               : DLPNO-NEVPT2, F12-NEVPT2, CIM, IAO-localization
   Andreas Hansen         : Spin unrestricted coupled pair/coupled cluster methods
   Benjamin Helmich-Paris : MC-RPA, TRAH-SCF, COSX integrals
   Lee Huntington         : MR-EOM, pCC
   Robert Izsak           : Overlap fitted RIJCOSX, COSX-SCS-MP3, EOM
   Marcus Kettner         : VPT2
   Christian Kollmar      : KDIIS, OOCD, Brueckner-CCSD(T), CCSD density, CASPT2, CASPT2-K
   Simone Kossmann        : Meta GGA functionals, TD-DFT gradient, OOMP2, MP2 Hessian
   Martin Krupicka        : Initial AUTO-CI
   Lucas Lang             : DCDCAS
   Marvin Lechner         : AUTO-CI (C++ implementation), FIC-MRCC
   Dagmar Lenk            : GEPOL surface, SMD
   Dimitrios Liakos       : Extrapolation schemes; Compound Job, initial MDCI parallelization
   Dimitrios Manganas     : Further ROCIS development; embedding schemes
   Dimitrios Pantazis     : SARC Basis sets
   Anastasios Papadopoulos: AUTO-CI, single reference methods and gradients
   Taras Petrenko         : DFT Hessian,TD-DFT gradient, ASA, ECA, R-Raman, ABS, FL, XAS/XES, NRVS
   Peter Pinski           : DLPNO-MP2, DLPNO-MP2 Gradient
   Christoph Reimann      : Effective Core Potentials
   Marius Retegan         : Local ZFS, SOC
   Christoph Riplinger    : Optimizer, TS searches, QM/MM, DLPNO-CCSD(T), (RO)-DLPNO pert. Triples
   Tobias Risthaus        : Range-separated hybrids, TD-DFT gradient, RPA, STAB
   Michael Roemelt        : Original ROCIS implementation
   Masaaki Saitow         : Open-shell DLPNO-CCSD energy and density
   Barbara Sandhoefer     : DKH picture change effects
   Avijit Sen             : IP-ROCIS
   Kantharuban Sivalingam : CASSCF convergence, NEVPT2, FIC-MRCI
   Bernardo de Souza      : ESD, SOC TD-DFT
   Georgi Stoychev        : AutoAux, RI-MP2 NMR, DLPNO-MP2 response
   Willem Van den Heuvel  : Paramagnetic NMR
   Boris Wezisla          : Elementary symmetry handling
   Frank Wennmohs         : Technical directorship


 We gratefully acknowledge several colleagues who have allowed us to
 interface, adapt or use parts of their codes:
   Stefan Grimme, W. Hujo, H. Kruse, P. Pracht,  : VdW corrections, initial TS optimization,
                  C. Bannwarth, S. Ehlert          DFT functionals, gCP, sTDA/sTD-DF
   Ed Valeev, F. Pavosevic, A. Kumar             : LibInt (2-el integral package), F12 methods
   Garnet Chan, S. Sharma, J. Yang, R. Olivares  : DMRG
   Ulf Ekstrom                                   : XCFun DFT Library
   Mihaly Kallay                                 : mrcc  (arbitrary order and MRCC methods)
   Jiri Pittner, Ondrej Demel                    : Mk-CCSD
   Frank Weinhold                                : gennbo (NPA and NBO analysis)
   Christopher J. Cramer and Donald G. Truhlar   : smd solvation model
   Lars Goerigk                                  : TD-DFT with DH, B97 family of functionals
   V. Asgeirsson, H. Jonsson                     : NEB implementation
   FAccTs GmbH                                   : IRC, NEB, NEB-TS, DLPNO-Multilevel, CI-OPT
                                                   MM, QMMM, 2- and 3-layer-ONIOM, Crystal-QMMM,
                                                   LR-CPCM, SF, NACMEs, symmetry and pop. for TD-DFT,
                                                   nearIR, NL-DFT gradient (VV10), updates on ESD,
                                                   ML-optimized integration grids
   S Lehtola, MJT Oliveira, MAL Marques          : LibXC Library
   Liviu Ungur et al                             : ANISO software


 Your calculation uses the libint2 library for the computation of 2-el integrals
 For citations please refer to: http://libint.valeyev.net

 Your ORCA version has been built with support for libXC version: 5.1.0
 For citations please refer to: https://tddft.org/programs/libxc/

 This ORCA versions uses:
   CBLAS   interface :  Fast vector & matrix operations
   LAPACKE interface :  Fast linear algebra routines
   SCALAPACK package :  Parallel linear algebra routines
   Shared memory     :  Shared parallel matrices
   BLAS/LAPACK       :  OpenBLAS 0.3.15  USE64BITINT DYNAMIC_ARCH NO_AFFINITY SkylakeX SINGLE_THREADED
        Core in use  :  SkylakeX
   Copyright (c) 2011-2014, The OpenBLAS Project




***************************************
The coordinates will be read from file: 10_deprot.xyz
***************************************


Your calculation utilizes the atom-pairwise dispersion correction
based on tight binding partial charges (D4)
Cite in your paper:
E.Caldeweyher, C.Bannwarth, S.Grimme, J.Chem.Phys., (2017), 147, 034112.
E.Caldeweyher, S.Ehlert, A.Hansen, H.Neugebauer, S.Grimme, J.Chem.Phys., (2018), in progress.
   

XCFun DFT library Copyright 2009-2010 Ulf Ekstrom and contributors.
See http://admol.org/xcfun for more information.
This is free software; see the source code for copying conditions.
There is ABSOLUTELY NO WARRANTY; not even for MERCHANTABILITY or FITNESS FOR A PARTICULAR PURPOSE.
For details see the documentation.
Scientific users of this library should cite U. Ekstrom, L. Visscher, R. Bast, A. J. Thorvaldsen and K. Ruud;
J.Chem.Theor.Comp. 2010, DOI: 10.1021/ct100117s
XCFun Version 0.99 

================================================================================

----- Orbital basis set information -----
Your calculation utilizes the basis: def2-TZVP
   F. Weigend and R. Ahlrichs, Phys. Chem. Chem. Phys. 7, 3297 (2005).

----- AuxJ basis set information -----
Your calculation utilizes the auxiliary basis: def2/J
   F. Weigend, Phys. Chem. Chem. Phys. 8, 1057 (2006).

================================================================================
                                        WARNINGS
                       Please study these warnings very carefully!
================================================================================


WARNING: Geometry Optimization
  ===> : Switching off AutoStart
         For restart on a previous wavefunction, please use MOREAD

INFO   : the flag for use of the SHARK integral package has been found!

================================================================================
                                       INPUT FILE
================================================================================
NAME = 10_deprot.inp
|  1> # ORCA 5.0.4 - /users/bwb16179/postgrad/2024_06/pKa_Reviewer_Comments/Gas_Z=0/10_deprot.inp # write input file
|  2> # Basic Mode
|  3> #
|  4> ! Opt Freq wB97X Def2-TZVP D4 SlowConv TightSCF Defgrid2 Def2/J RIJCOSX 
|  5> 
|  6> %PAL NPROCS 4 END
|  7> 
|  8> %maxcore 4500
|  9> 
| 10> %geom
| 11> Maxiter 150
| 12> END
| 13> 
| 14> * xyzfile 0 1 10_deprot.xyz
| 15> 
| 16>                          ****END OF INPUT****
================================================================================

                       *****************************
                       * Geometry Optimization Run *
                       *****************************

Geometry optimization settings:
Update method            Update   .... BFGS
Choice of coordinates    CoordSys .... Z-matrix Internals
Initial Hessian          InHess   .... Almoef's Model

Convergence Tolerances:
Energy Change            TolE     ....  5.0000e-06 Eh
Max. Gradient            TolMAXG  ....  3.0000e-04 Eh/bohr
RMS Gradient             TolRMSG  ....  1.0000e-04 Eh/bohr
Max. Displacement        TolMAXD  ....  4.0000e-03 bohr
RMS Displacement         TolRMSD  ....  2.0000e-03 bohr
Strict Convergence                ....  False
------------------------------------------------------------------------------
                        ORCA OPTIMIZATION COORDINATE SETUP
------------------------------------------------------------------------------

The optimization will be done in new redundant internal coordinates
Making redundant internal coordinates   ...  (new redundants) done
Evaluating the initial hessian          ...  (Almloef) done
Evaluating the coordinates              ...  done
Calculating the B-matrix                .... done
Calculating the G-matrix                .... done
Diagonalizing the G-matrix              .... done
The first mode is                       ....   49
The number of degrees of freedom        ....   54

    -----------------------------------------------------------------
                    Redundant Internal Coordinates


    -----------------------------------------------------------------
         Definition                    Initial Value    Approx d2E/dq
    -----------------------------------------------------------------
      1. B(C   3,C   2)                  1.5176         0.390941   
      2. B(C   3,C   0)                  1.5176         0.390940   
      3. B(H   4,C   0)                  1.1077         0.337422   
      4. B(H   5,C   2)                  1.1030         0.343300   
      5. B(H   6,C   3)                  1.1025         0.343888   
      6. B(N   7,C   1)                  1.3462         0.657231   
      7. B(N   7,C   0)                  1.4572         0.437130   
      8. B(N   8,C   2)                  1.4572         0.437130   
      9. B(N   8,C   1)                  1.3462         0.657231   
     10. B(H   9,C   2)                  1.1077         0.337422   
     11. B(H  10,C   3)                  1.1004         0.346646   
     12. B(H  11,C   0)                  1.1030         0.343301   
     13. B(C  12,N   7)                  1.4462         0.455279   
     14. B(H  13,C  12)                  1.0963         0.351839   
     15. B(H  14,C  12)                  1.1048         0.341007   
     16. B(H  15,C  12)                  1.1052         0.340593   
     17. B(C  16,N   8)                  1.4462         0.455279   
     18. B(H  17,C  16)                  1.1048         0.341007   
     19. B(H  18,C  16)                  1.0963         0.351839   
     20. B(H  19,C  16)                  1.1052         0.340592   
     21. A(C   3,C   0,H  11)          110.3006         0.324194   
     22. A(C   3,C   0,H   4)          110.5877         0.323277   
     23. A(H   4,C   0,H  11)          106.6656         0.285751   
     24. A(C   3,C   0,N   7)          110.1460         0.373858   
     25. A(H   4,C   0,N   7)          110.3492         0.327297   
     26. A(N   7,C   0,H  11)          108.7174         0.328230   
     27. A(N   7,C   1,N   8)          115.7082         0.437490   
     28. A(H   5,C   2,H   9)          106.6656         0.285750   
     29. A(C   3,C   2,H   5)          110.3007         0.324194   
     30. A(N   8,C   2,H   9)          110.3491         0.327297   
     31. A(H   5,C   2,N   8)          108.7174         0.328230   
     32. A(C   3,C   2,H   9)          110.5878         0.323277   
     33. A(C   3,C   2,N   8)          110.1460         0.373858   
     34. A(C   2,C   3,H   6)          109.3101         0.324285   
     35. A(H   6,C   3,H  10)          107.5680         0.287032   
     36. A(C   0,C   3,C   2)          109.3244         0.369053   
     37. A(C   0,C   3,H  10)          110.6463         0.324711   
     38. A(C   2,C   3,H  10)          110.6464         0.324711   
     39. A(C   0,C   3,H   6)          109.3101         0.324285   
     40. A(C   1,N   7,C  12)          118.6037         0.409703   
     41. A(C   0,N   7,C  12)          115.2978         0.381426   
     42. A(C   0,N   7,C   1)          126.0076         0.406763   
     43. A(C   1,N   8,C  16)          118.6037         0.409703   
     44. A(C   2,N   8,C  16)          115.2978         0.381426   
     45. A(C   1,N   8,C   2)          126.0075         0.406763   
     46. A(H  14,C  12,H  15)          107.8433         0.285869   
     47. A(H  13,C  12,H  15)          109.0334         0.287267   
     48. A(N   7,C  12,H  15)          111.2512         0.330011   
     49. A(H  13,C  12,H  14)          109.3170         0.287321   
     50. A(N   7,C  12,H  14)          111.2375         0.330077   
     51. A(N   7,C  12,H  13)          108.1252         0.331789   
     52. A(H  18,C  16,H  19)          109.0335         0.287267   
     53. A(H  17,C  16,H  19)          107.8434         0.285869   
     54. A(N   8,C  16,H  19)          111.2512         0.330010   
     55. A(H  17,C  16,H  18)          109.3170         0.287321   
     56. A(N   8,C  16,H  18)          108.1252         0.331789   
     57. A(N   8,C  16,H  17)          111.2375         0.330077   
     58. D(C   0,C   3,C   2,N   8)    -50.0978         0.012148   
     59. D(H   6,C   3,C   0,N   7)    -69.5184         0.012148   
     60. D(H   6,C   3,C   0,H   4)    168.2411         0.012148   
     61. D(C   0,C   3,C   2,H   9)     72.1428         0.012148   
     62. D(H  10,C   3,C   0,H  11)    -67.7895         0.012148   
     63. D(H  10,C   3,C   0,H   4)     49.9592         0.012148   
     64. D(H  10,C   3,C   2,N   8)   -172.1998         0.012148   
     65. D(H  10,C   3,C   0,N   7)    172.1998         0.012148   
     66. D(H   6,C   3,C   2,H   5)    -50.4923         0.012148   
     67. D(C   2,C   3,C   0,H  11)    170.1084         0.012148   
     68. D(H   6,C   3,C   2,N   8)     69.5184         0.012148   
     69. D(H   6,C   3,C   0,H  11)     50.4923         0.012148   
     70. D(H  10,C   3,C   2,H   5)     67.7895         0.012148   
     71. D(H   6,C   3,C   2,H   9)   -168.2411         0.012148   
     72. D(C   0,C   3,C   2,H   5)   -170.1085         0.012148   
     73. D(H  10,C   3,C   2,H   9)    -49.9593         0.012148   
     74. D(C   2,C   3,C   0,N   7)     50.0978         0.012148   
     75. D(C   2,C   3,C   0,H   4)    -72.1428         0.012148   
     76. D(C  12,N   7,C   1,N   8)    176.9650         0.031982   
     77. D(C   0,N   7,C   1,N   8)      0.6078         0.031982   
     78. D(C  12,N   7,C   0,H  11)     35.8442         0.016293   
     79. D(C  12,N   7,C   0,H   4)    -80.8110         0.016293   
     80. D(C  12,N   7,C   0,C   3)    156.8077         0.016293   
     81. D(C   1,N   7,C   0,H  11)   -147.6931         0.016293   
     82. D(C   1,N   7,C   0,H   4)     95.6517         0.016293   
     83. D(C   1,N   7,C   0,C   3)    -26.7296         0.016293   
     84. D(C   1,N   8,C   2,H   5)    147.6931         0.016293   
     85. D(C   1,N   8,C   2,C   3)     26.7296         0.016293   
     86. D(C  16,N   8,C   1,N   7)   -176.9650         0.031982   
     87. D(C   1,N   8,C   2,H   9)    -95.6517         0.016293   
     88. D(C   2,N   8,C   1,N   7)     -0.6078         0.031982   
     89. D(C  16,N   8,C   2,H   9)     80.8110         0.016293   
     90. D(C  16,N   8,C   2,H   5)    -35.8441         0.016293   
     91. D(C  16,N   8,C   2,C   3)   -156.8076         0.016293   
     92. D(H  15,C  12,N   7,C   1)   -118.0300         0.017688   
     93. D(H  15,C  12,N   7,C   0)     58.7111         0.017688   
     94. D(H  14,C  12,N   7,C   1)    121.7140         0.017688   
     95. D(H  14,C  12,N   7,C   0)    -61.5449         0.017688   
     96. D(H  13,C  12,N   7,C   1)      1.6718         0.017688   
     97. D(H  13,C  12,N   7,C   0)    178.4128         0.017688   
     98. D(H  19,C  16,N   8,C   2)    -58.7110         0.017688   
     99. D(H  19,C  16,N   8,C   1)    118.0301         0.017688   
    100. D(H  18,C  16,N   8,C   2)   -178.4128         0.017688   
    101. D(H  18,C  16,N   8,C   1)     -1.6717         0.017688   
    102. D(H  17,C  16,N   8,C   2)     61.5450         0.017688   
    103. D(H  17,C  16,N   8,C   1)   -121.7139         0.017688   
    -----------------------------------------------------------------

Number of atoms                         .... 20
Number of degrees of freedom            .... 103

         *************************************************************
         *                GEOMETRY OPTIMIZATION CYCLE   1            *
         *************************************************************
---------------------------------
CARTESIAN COORDINATES (ANGSTROEM)
---------------------------------
  C     -0.060099    1.067804    1.238018
  C     -0.064179   -1.102391   -0.000000
  C     -0.060099    1.067804   -1.238017
  C      0.572948    1.675891   -0.000000
  H     -1.093392    1.443848    1.371849
  H      0.502933    1.362223   -2.139645
  H      1.654183    1.460197   -0.000000
  N     -0.058705   -0.386117    1.139842
  N     -0.058705   -0.386117   -1.139842
  H     -1.093392    1.443847   -1.371848
  H      0.452463    2.769640    0.000000
  H      0.502933    1.362223    2.139645
  C     -0.131314   -1.090707    2.400658
  H     -0.151433   -2.166328    2.189597
  H      0.740397   -0.859758    3.038961
  H     -1.043510   -0.816240    2.960966
  C     -0.131314   -1.090707   -2.400658
  H      0.740398   -0.859759   -3.038960
  H     -0.151434   -2.166328   -2.189597
  H     -1.043510   -0.816239   -2.960967

----------------------------
CARTESIAN COORDINATES (A.U.)
----------------------------
  NO LB      ZA    FRAG     MASS         X           Y           Z
   0 C     6.0000    0    12.011   -0.113571    2.017857    2.339515
   1 C     6.0000    0    12.011   -0.121281   -2.083217   -0.000000
   2 C     6.0000    0    12.011   -0.113571    2.017857   -2.339513
   3 C     6.0000    0    12.011    1.082715    3.166975   -0.000000
   4 H     1.0000    0     1.008   -2.066211    2.728477    2.592419
   5 H     1.0000    0     1.008    0.950406    2.574228   -4.043343
   6 H     1.0000    0     1.008    3.125953    2.759372   -0.000000
   7 N     7.0000    0    14.007   -0.110936   -0.729655    2.153989
   8 N     7.0000    0    14.007   -0.110936   -0.729655   -2.153989
   9 H     1.0000    0     1.008   -2.066211    2.728475   -2.592417
  10 H     1.0000    0     1.008    0.855031    5.233861    0.000000
  11 H     1.0000    0     1.008    0.950406    2.574228    4.043343
  12 C     6.0000    0    12.011   -0.248147   -2.061138    4.536586
  13 H     1.0000    0     1.008   -0.286167   -4.093767    4.137739
  14 H     1.0000    0     1.008    1.399148   -1.624707    5.742804
  15 H     1.0000    0     1.008   -1.971948   -1.542470    5.595415
  16 C     6.0000    0    12.011   -0.248147   -2.061138   -4.536586
  17 H     1.0000    0     1.008    1.399149   -1.624709   -5.742802
  18 H     1.0000    0     1.008   -0.286169   -4.093767   -4.137739
  19 H     1.0000    0     1.008   -1.971948   -1.542468   -5.595417

--------------------------------
INTERNAL COORDINATES (ANGSTROEM)
--------------------------------
 C      0   0   0     0.000000000000     0.00000000     0.00000000
 C      1   0   0     2.498489854442     0.00000000     0.00000000
 C      1   2   0     2.476035000000    60.29684396     0.00000000
 C      3   1   2     1.517631179196    35.33780087   226.04438272
 H      1   2   3     1.107706752866   110.68413891    86.17544533
 H      3   1   2     1.103005272412   144.82820399   242.28645062
 H      4   3   1     1.102539353883   109.31013279   119.61615002
 N      2   1   3     1.346223678560    28.15186555   179.62768008
 N      2   1   3     1.346223678560    87.55768589     0.17582309
 H      3   1   2     1.107706413387    96.93932062   109.89008493
 H      4   3   1     1.100365171307   110.64635364   237.89798402
 H      1   2   3     1.103004454984   129.62246070   221.45615895
 C      8   2   1     1.446159092506   118.60372408   176.35723196
 H     13   8   2     1.096317497590   108.12516108     1.67176005
 H     13   8   2     1.104829501747   111.23751480   121.71398463
 H     13   8   2     1.105160047852   111.25116367   241.96999011
 C      9   2   1     1.446159092506   118.60372408   183.32198495
 H     17   9   2     1.104829503974   111.23749057   238.28610816
 H     17   9   2     1.096317515942   108.12516353   358.32829487
 H     17   9   2     1.105160803196   111.25116984   118.03007607

---------------------------
INTERNAL COORDINATES (A.U.)
---------------------------
 C      0   0   0     0.000000000000     0.00000000     0.00000000
 C      1   0   0     4.721461573276     0.00000000     0.00000000
 C      1   2   0     4.679028048004    60.29684396     0.00000000
 C      3   1   2     2.867907300980    35.33780087   226.04438272
 H      1   2   3     2.093262399613   110.68413891    86.17544533
 H      3   1   2     2.084377889130   144.82820399   242.28645062
 H      4   3   1     2.083497430710   109.31013279   119.61615002
 N      2   1   3     2.543994067479    28.15186555   179.62768008
 N      2   1   3     2.543994067479    87.55768589     0.17582309
 H      3   1   2     2.093261758090    96.93932062   109.89008493
 H      4   3   1     2.079388821076   110.64635364   237.89798402
 H      1   2   3     2.084376344414   129.62246070   221.45615895
 C      8   2   1     2.732844630916   118.60372408   176.35723196
 H     13   8   2     2.071739826272   108.12516108     1.67176005
 H     13   8   2     2.087825182979   111.23751480   121.71398463
 H     13   8   2     2.088449824592   111.25116367   241.96999011
 C      9   2   1     2.732844630916   118.60372408   183.32198495
 H     17   9   2     2.087825187187   111.23749057   238.28610816
 H     17   9   2     2.071739860952   108.12516353   358.32829487
 H     17   9   2     2.088451251985   111.25116984   118.03007607

---------------------
BASIS SET INFORMATION
---------------------
There are 3 groups of distinct atoms

 Group   1 Type C   : 11s6p2d1f contracted to 5s3p2d1f pattern {62111/411/11/1}
 Group   2 Type H   : 5s1p contracted to 3s1p pattern {311/1}
 Group   3 Type N   : 11s6p2d1f contracted to 5s3p2d1f pattern {62111/411/11/1}

Atom   0C    basis set group =>   1
Atom   1C    basis set group =>   1
Atom   2C    basis set group =>   1
Atom   3C    basis set group =>   1
Atom   4H    basis set group =>   2
Atom   5H    basis set group =>   2
Atom   6H    basis set group =>   2
Atom   7N    basis set group =>   3
Atom   8N    basis set group =>   3
Atom   9H    basis set group =>   2
Atom  10H    basis set group =>   2
Atom  11H    basis set group =>   2
Atom  12C    basis set group =>   1
Atom  13H    basis set group =>   2
Atom  14H    basis set group =>   2
Atom  15H    basis set group =>   2
Atom  16C    basis set group =>   1
Atom  17H    basis set group =>   2
Atom  18H    basis set group =>   2
Atom  19H    basis set group =>   2
---------------------------------
AUXILIARY/J BASIS SET INFORMATION
---------------------------------
There are 3 groups of distinct atoms

 Group   1 Type C   : 12s5p4d2f1g contracted to 6s4p3d1f1g pattern {711111/2111/211/2/1}
 Group   2 Type H   : 5s2p1d contracted to 3s1p1d pattern {311/2/1}
 Group   3 Type N   : 12s5p4d2f1g contracted to 6s4p3d1f1g pattern {711111/2111/211/2/1}

Atom   0C    basis set group =>   1
Atom   1C    basis set group =>   1
Atom   2C    basis set group =>   1
Atom   3C    basis set group =>   1
Atom   4H    basis set group =>   2
Atom   5H    basis set group =>   2
Atom   6H    basis set group =>   2
Atom   7N    basis set group =>   3
Atom   8N    basis set group =>   3
Atom   9H    basis set group =>   2
Atom  10H    basis set group =>   2
Atom  11H    basis set group =>   2
Atom  12C    basis set group =>   1
Atom  13H    basis set group =>   2
Atom  14H    basis set group =>   2
Atom  15H    basis set group =>   2
Atom  16C    basis set group =>   1
Atom  17H    basis set group =>   2
Atom  18H    basis set group =>   2
Atom  19H    basis set group =>   2


           ************************************************************
           *        Program running with 4 parallel MPI-processes     *
           *              working on a common directory               *
           ************************************************************
------------------------------------------------------------------------------
                           ORCA GTO INTEGRAL CALCULATION
                           -- RI-GTO INTEGRALS CHOSEN --
------------------------------------------------------------------------------
------------------------------------------------------------------------------
                   ___                                                        
                  /   \      - P O W E R E D   B Y -                         
                 /     \                                                     
                 |  |  |   _    _      __       _____    __    __             
                 |  |  |  | |  | |    /  \     |  _  \  |  |  /  |          
                  \  \/   | |  | |   /    \    | | | |  |  | /  /          
                 / \  \   | |__| |  /  /\  \   | |_| |  |  |/  /          
                |  |  |   |  __  | /  /__\  \  |    /   |      \           
                |  |  |   | |  | | |   __   |  |    \   |  |\   \          
                \     /   | |  | | |  |  |  |  | |\  \  |  | \   \       
                 \___/    |_|  |_| |__|  |__|  |_| \__\ |__|  \__/        
                                                                              
                      - O R C A' S   B I G   F R I E N D -                    
                                      &                                       
                       - I N T E G R A L  F E E D E R -                       
                                                                              
 v1 FN, 2020, v2 2021                                                         
------------------------------------------------------------------------------


Reading SHARK input file 10_deprot.SHARKINP.tmp ... ok
----------------------
SHARK INTEGRAL PACKAGE
----------------------

Number of atoms                             ...     20
Number of basis functions                   ...    320
Number of shells                            ...    136
Maximum angular momentum                    ...      3
Integral batch strategy                     ... SHARK/LIBINT Hybrid
RI-J (if used) integral strategy            ... SPLIT-RIJ (Revised 2003 algorithm where possible)
Printlevel                                  ...      1
Contraction scheme used                     ... SEGMENTED contraction
Coulomb Range Separation                    ... NOT USED
Exchange Range Separation                   ... Long Range
   Mu parameter                             ...  0.300000
   Scaling (regular/separated)              ...  0.157706  0.842294
Finite Nucleus Model                        ... NOT USED
Auxiliary Coulomb fitting basis             ... AVAILABLE
   # of basis functions in Aux-J            ...    524
   # of shells in Aux-J                     ...    180
   Maximum angular momentum in Aux-J        ...      4
Auxiliary J/K fitting basis                 ... NOT available
Auxiliary Correlation fitting basis         ... NOT available
Auxiliary 'external' fitting basis          ... NOT available
Integral threshold                          ...     2.500000e-11
Primitive cut-off                           ...     2.500000e-12
Primitive pair pre-selection threshold      ...     2.500000e-12

Calculating pre-screening integrals         ... done (  0.1 sec) Dimension = 136
Organizing shell pair data                  ... done (  0.1 sec)
Shell pair information
Total number of shell pairs                 ...      9316
Shell pairs after pre-screening             ...      8555
Total number of primitive shell pairs       ...     27240
Primitive shell pairs kept                  ...     18986
          la=0 lb=0:   2586 shell pairs
          la=1 lb=0:   2518 shell pairs
          la=1 lb=1:    615 shell pairs
          la=2 lb=0:   1147 shell pairs
          la=2 lb=1:    550 shell pairs
          la=2 lb=2:    133 shell pairs
          la=3 lb=0:    562 shell pairs
          la=3 lb=1:    282 shell pairs
          la=3 lb=2:    126 shell pairs
          la=3 lb=3:     36 shell pairs

Calculating one electron integrals          ... done (  0.0 sec)
Calculating RI/J V-Matrix + Cholesky decomp.... done (  0.0 sec)
Calculating Nuclear repulsion               ... done (  0.0 sec) ENN=    395.832558764947 Eh

SHARK setup successfully completed in   0.4 seconds

Maximum memory used throughout the entire GTOINT-calculation: 21.6 MB


           ************************************************************
           *        Program running with 4 parallel MPI-processes     *
           *              working on a common directory               *
           ************************************************************
-------------------------------------------------------------------------------
                                 ORCA SCF
-------------------------------------------------------------------------------

------------
SCF SETTINGS
------------
Hamiltonian:
 Density Functional     Method          .... DFT(GTOs)
 Exchange Functional    Exchange        .... WB97X
 Correlation Functional Correlation     .... WB97X
 Gradients option       PostSCFGGA      .... off
 Hybrid DFT is turned on
   Fraction HF Exchange ScalHFX         ....  0.157706
   Scaling of DF-GGA-X  ScalDFX         ....  0.000000
   Scaling of DF-GGA-C  ScalDFC         ....  1.000000
   Scaling of DF-LDA-C  ScalLDAC        ....  1.000000
   Perturbative correction              ....  0.000000
   Density functional embedding theory  .... OFF
 Long-range corrected/Screened/Range-Separated Hybrid DFT is turned on
   Amount of maximum screened exact exchange              ....  0.842294
   Range separation parameter mu (erf(mu*r12)/r12)        ....  0.300000
 RI-approximation to the Coulomb term is turned on
   Number of AuxJ basis functions       .... 524
   RIJ-COSX (HFX calculated with COS-X)).... on


General Settings:
 Integral files         IntName         .... 10_deprot
 Hartree-Fock type      HFTyp           .... RHF
 Total Charge           Charge          ....    0
 Multiplicity           Mult            ....    1
 Number of Electrons    NEL             ....   62
 Basis Dimension        Dim             ....  320
 Nuclear Repulsion      ENuc            ....    395.8325587649 Eh

Convergence Acceleration:
 DIIS                   CNVDIIS         .... on
   Start iteration      DIISMaxIt       ....     0
   Startup error        DIISStart       ....  0.200000
   # of expansion vecs  DIISMaxEq       ....     5
   Bias factor          DIISBfac        ....   1.050
   Max. coefficient     DIISMaxC        ....  10.000
 Trust-Rad. Augm. Hess. CNVTRAH         .... auto
   Auto Start mean grad. ratio tolernc. ....  1.125000
   Auto Start start iteration           ....    20
   Auto Start num. interpolation iter.  ....    10
   Max. Number of Micro iterations      ....    16
   Max. Number of Macro iterations      .... Maxiter - #DIIS iter
   Number of Davidson start vectors     ....     2
   Converg. threshold I  (grad. norm)   ....   1.000e-05
   Converg. threshold II (energy diff.) ....   1.000e-08
   Grad. Scal. Fac. for Micro threshold ....   0.100
   Minimum threshold for Micro iter.    ....   0.010
   NR start threshold (gradient norm)   ....   0.001
   Initial trust radius                 ....   0.400
   Minimum AH scaling param. (alpha)    ....   1.000
   Maximum AH scaling param. (alpha)    .... 1000.000
   Orbital update algorithm             .... Taylor
   White noise on init. David. guess    .... on
   Maximum white noise                  ....   0.010
   Quad. conv. algorithm                .... NR
 SOSCF                  CNVSOSCF        .... on
   Start iteration      SOSCFMaxIt      ....   150
   Startup grad/error   SOSCFStart      ....  0.001000
 Level Shifting         CNVShift        .... on
   Level shift para.    LevelShift      ....    0.2500
   Turn off err/grad.   ShiftErr        ....    0.0000
 Zerner damping         CNVZerner       .... off
 Static damping         CNVDamp         .... on
   Fraction old density DampFac         ....    0.8500
   Max. Damping (<1)    DampMax         ....    0.9800
   Min. Damping (>=0)   DampMin         ....    0.0000
   Turn off err/grad.   DampErr         ....    0.0300
 Fernandez-Rico         CNVRico         .... off

SCF Procedure:
 Maximum # iterations   MaxIter         ....   125
 SCF integral mode      SCFMode         .... Direct
   Integral package                     .... SHARK and LIBINT hybrid scheme
 Reset frequency        DirectResetFreq ....    20
 Integral Threshold     Thresh          ....  2.500e-11 Eh
 Primitive CutOff       TCut            ....  2.500e-12 Eh

Convergence Tolerance:
 Convergence Check Mode ConvCheckMode   .... Total+1el-Energy
 Convergence forced     ConvForced      .... 0
 Energy Change          TolE            ....  1.000e-08 Eh
 1-El. energy change                    ....  1.000e-05 Eh
 Orbital Gradient       TolG            ....  1.000e-05
 Orbital Rotation angle TolX            ....  1.000e-05
 DIIS Error             TolErr          ....  5.000e-07


Diagonalization of the overlap matrix:
Smallest eigenvalue                        ... 2.080e-04
Time for diagonalization                   ...    0.018 sec
Threshold for overlap eigenvalues          ... 1.000e-08
Number of eigenvalues below threshold      ... 0
Time for construction of square roots      ...    0.009 sec
Total time needed                          ...    0.028 sec

Time for model grid setup =    0.145 sec

------------------------------
INITIAL GUESS: MODEL POTENTIAL
------------------------------
Loading Hartree-Fock densities                     ... done
Calculating cut-offs                               ... done
Initializing the effective Hamiltonian             ... done
Setting up the integral package (SHARK)            ... done
Starting the Coulomb interaction                   ... done (   0.2 sec)
Reading the grid                                   ... done
Mapping shells                                     ... done
Starting the XC term evaluation                    ... done (   0.2 sec)
  promolecular density results
     # of electrons  =     61.995611652
     EX              =    -47.320667267
     EC              =     -2.051332826
     EX+EC           =    -49.372000094
Transforming the Hamiltonian                       ... done (   0.0 sec)
Diagonalizing the Hamiltonian                      ... done (   0.0 sec)
Back transforming the eigenvectors                 ... done (   0.0 sec)
Now organizing SCF variables                       ... done
                      ------------------
                      INITIAL GUESS DONE (   0.5 sec)
                      ------------------
-------------------
DFT GRID GENERATION
-------------------

General Integration Accuracy     IntAcc      ... 4.388
Radial Grid Type                 RadialGrid  ... OptM3 with GC (2021)
Angular Grid (max. ang.)         AngularGrid ... 4 (Lebedev-302)
Angular grid pruning method      GridPruning ... 4 (adaptive)
Weight generation scheme         WeightScheme... Becke
Basis function cutoff            BFCut       ... 1.0000e-11
Integration weight cutoff        WCut        ... 1.0000e-14
Angular grids for H and He will be reduced by one unit
Partially contracted basis set               ... off
Rotationally invariant grid construction     ... off

Total number of grid points                  ...    86428
Total number of batches                      ...     1359
Average number of points per batch           ...       63
Average number of grid points per atom       ...     4321
Time for grid setup =    0.710 sec

--------------------
COSX GRID GENERATION
--------------------

GRIDX 1
-------
General Integration Accuracy     IntAcc      ... 3.816
Radial Grid Type                 RadialGrid  ... OptM3 with GC (2021)
Angular Grid (max. ang.)         AngularGrid ... 1 (Lebedev-50)
Angular grid pruning method      GridPruning ... 4 (adaptive)
Weight generation scheme         WeightScheme... Becke
Basis function cutoff            BFCut       ... 1.0000e-11
Integration weight cutoff        WCut        ... 1.0000e-14
Angular grids for H and He will be reduced by one unit
Partially contracted basis set               ... on
Rotationally invariant grid construction     ... off

Total number of grid points                  ...    11102
Total number of batches                      ...      185
Average number of points per batch           ...       60
Average number of grid points per atom       ...      555
UseSFitting                                  ... on

GRIDX 2
-------
General Integration Accuracy     IntAcc      ... 4.020
Radial Grid Type                 RadialGrid  ... OptM3 with GC (2021)
Angular Grid (max. ang.)         AngularGrid ... 2 (Lebedev-110)
Angular grid pruning method      GridPruning ... 4 (adaptive)
Weight generation scheme         WeightScheme... Becke
Basis function cutoff            BFCut       ... 1.0000e-11
Integration weight cutoff        WCut        ... 1.0000e-14
Angular grids for H and He will be reduced by one unit
Partially contracted basis set               ... on
Rotationally invariant grid construction     ... off

Total number of grid points                  ...    23347
Total number of batches                      ...      374
Average number of points per batch           ...       62
Average number of grid points per atom       ...     1167
UseSFitting                                  ... on

GRIDX 3
-------
General Integration Accuracy     IntAcc      ... 4.338
Radial Grid Type                 RadialGrid  ... OptM3 with GC (2021)
Angular Grid (max. ang.)         AngularGrid ... 3 (Lebedev-194)
Angular grid pruning method      GridPruning ... 4 (adaptive)
Weight generation scheme         WeightScheme... Becke
Basis function cutoff            BFCut       ... 1.0000e-11
Integration weight cutoff        WCut        ... 1.0000e-14
Angular grids for H and He will be reduced by one unit
Partially contracted basis set               ... on
Rotationally invariant grid construction     ... off

Total number of grid points                  ...    51077
Total number of batches                      ...      811
Average number of points per batch           ...       62
Average number of grid points per atom       ...     2554
UseSFitting                                  ... on

Time for X-Grid setup             =    0.783 sec

--------------
SCF ITERATIONS
--------------
ITER       Energy         Delta-E        Max-DP      RMS-DP      [F,P]     Damp
               ***  Starting incremental Fock matrix formation  ***
  0   -345.1501606130   0.000000000000 0.02714312  0.00036254  0.1551074 0.8500
  1   -345.1914135941  -0.041252981105 0.03578601  0.00038271  0.1239961 0.8500
                               ***Turning on DIIS***
  2   -345.2226496687  -0.031236074633 0.03410985  0.00032788  0.0946161 0.8500
  3   -345.2456809851  -0.023031316391 0.02820038  0.00024570  0.0724360 0.8500
  4   -345.2634065084  -0.017725523325 0.02339478  0.00019402  0.0579239 0.8500
  5   -345.2773620903  -0.013955581836 0.01998448  0.00016192  0.0479543 0.8500
  6   -345.2887158156  -0.011353725276 0.01741020  0.00013855  0.0404022 0.8500
  7   -345.2981259570  -0.009410141399 0.01548208  0.00012059  0.0343068 0.8500
  8   -345.3060114663  -0.007885509322 0.09192680  0.00069929  0.0291276 0.0000
  9   -345.3486868018  -0.042675335560 0.00400198  0.00003471  0.0016827 0.0000
                      *** Initiating the SOSCF procedure ***
                           *** Shutting down DIIS ***
                      *** Re-Reading the Fockian *** 
                      *** Removing any level shift *** 
ITER      Energy       Delta-E        Grad      Rot      Max-DP    RMS-DP
 10   -345.34870971  -0.0000229071  0.000301  0.000301  0.002594  0.000019
               *** Restarting incremental Fock matrix formation ***
 11   -345.34872591  -0.0000161968  0.000276  0.000521  0.002668  0.000018
 12   -345.34872734  -0.0000014375  0.000077  0.000242  0.001488  0.000012
 13   -345.34872765  -0.0000003045  0.000032  0.000055  0.000361  0.000003
 14   -345.34872770  -0.0000000510  0.000005  0.000010  0.000031  0.000001
                  ***Gradient check signals convergence***
              ***Rediagonalizing the Fockian in SOSCF/NRSCF***

               *****************************************************
               *                     SUCCESS                       *
               *           SCF CONVERGED AFTER  15 CYCLES          *
               *****************************************************

Old exchange energy                            =    -15.818040538 Eh
New exchange energy                            =    -15.818051724 Eh
Exchange energy change after final integration =     -0.000011186 Eh
Total energy after final integration           =   -345.348738882 Eh
Final COS-X integration done in                =    18.461 sec

----------------
TOTAL SCF ENERGY
----------------

Total Energy       :         -345.34873888 Eh           -9397.41694 eV

Components:
Nuclear Repulsion  :          395.83255876 Eh           10771.15152 eV
Electronic Energy  :         -741.18129765 Eh          -20168.56846 eV
One Electron Energy:        -1249.85476847 Eh          -34010.27730 eV
Two Electron Energy:          508.67347082 Eh           13841.70884 eV
Max COSX asymmetry :            0.00000287 Eh               0.00008 eV

Virial components:
Potential Energy   :         -688.97596179 Eh          -18747.98905 eV
Kinetic Energy     :          343.62722291 Eh            9350.57211 eV
Virial Ratio       :            2.00500984


DFT components:
N(Alpha)           :       31.000004602861 electrons
N(Beta)            :       31.000004602861 electrons
N(Total)           :       62.000009205722 electrons
E(XC)              :      -35.035184962654 Eh       
DFET-embed. en.    :        0.000000000000 Eh       

---------------
SCF CONVERGENCE
---------------

  Last Energy change         ...    2.5148e-09  Tolerance :   1.0000e-08
  Last MAX-Density change    ...    1.7764e-15  Tolerance :   1.0000e-07
  Last RMS-Density change    ...    1.8458e-17  Tolerance :   5.0000e-09
  Last Orbital Gradient      ...    2.3501e-06  Tolerance :   1.0000e-05
  Last Orbital Rotation      ...    6.2175e-06  Tolerance :   1.0000e-05

             **** THE GBW FILE WAS UPDATED (10_deprot.gbw) ****
             **** DENSITY 10_deprot.scfp WAS UPDATED ****
             **** ENERGY FILE WAS UPDATED (10_deprot.en.tmp) ****
             **** THE GBW FILE WAS UPDATED (10_deprot.gbw) ****
             **** DENSITY 10_deprot.scfp WAS UPDATED ****
----------------
ORBITAL ENERGIES
----------------

  NO   OCC          E(Eh)            E(eV) 
   0   2.0000     -14.407242      -392.0410 
   1   2.0000     -14.407224      -392.0405 
   2   2.0000     -10.291177      -280.0372 
   3   2.0000     -10.291170      -280.0370 
   4   2.0000     -10.271125      -279.4915 
   5   2.0000     -10.271124      -279.4915 
   6   2.0000     -10.266088      -279.3545 
   7   2.0000     -10.258958      -279.1604 
   8   2.0000      -1.103082       -30.0164 
   9   2.0000      -1.036643       -28.2085 
  10   2.0000      -0.924999       -25.1705 
  11   2.0000      -0.842307       -22.9203 
  12   2.0000      -0.831572       -22.6282 
  13   2.0000      -0.755909       -20.5693 
  14   2.0000      -0.754244       -20.5240 
  15   2.0000      -0.642263       -17.4769 
  16   2.0000      -0.610110       -16.6019 
  17   2.0000      -0.607918       -16.5423 
  18   2.0000      -0.584057       -15.8930 
  19   2.0000      -0.565876       -15.3983 
  20   2.0000      -0.539785       -14.6883 
  21   2.0000      -0.532552       -14.4915 
  22   2.0000      -0.518455       -14.1079 
  23   2.0000      -0.503619       -13.7042 
  24   2.0000      -0.478504       -13.0207 
  25   2.0000      -0.467368       -12.7177 
  26   2.0000      -0.458029       -12.4636 
  27   2.0000      -0.443004       -12.0547 
  28   2.0000      -0.406958       -11.0739 
  29   2.0000      -0.311899        -8.4872 
  30   2.0000      -0.290601        -7.9077 
  31   0.0000       0.103182         2.8077 
  32   0.0000       0.123022         3.3476 
  33   0.0000       0.133684         3.6377 
  34   0.0000       0.149868         4.0781 
  35   0.0000       0.164584         4.4786 
  36   0.0000       0.176569         4.8047 
  37   0.0000       0.186968         5.0877 
  38   0.0000       0.191542         5.2121 
  39   0.0000       0.193425         5.2634 
  40   0.0000       0.200627         5.4593 
  41   0.0000       0.205348         5.5878 
  42   0.0000       0.210615         5.7311 
  43   0.0000       0.221446         6.0258 
  44   0.0000       0.224241         6.1019 
  45   0.0000       0.234144         6.3714 
  46   0.0000       0.240195         6.5360 
  47   0.0000       0.268571         7.3082 
  48   0.0000       0.269048         7.3212 
  49   0.0000       0.279148         7.5960 
  50   0.0000       0.289510         7.8780 
  51   0.0000       0.292854         7.9690 
  52   0.0000       0.304764         8.2930 
  53   0.0000       0.325564         8.8591 
  54   0.0000       0.329875         8.9764 
  55   0.0000       0.373165        10.1543 
  56   0.0000       0.376045        10.2327 
  57   0.0000       0.387557        10.5460 
  58   0.0000       0.397742        10.8231 
  59   0.0000       0.402478        10.9520 
  60   0.0000       0.413943        11.2640 
  61   0.0000       0.432117        11.7585 
  62   0.0000       0.448530        12.2051 
  63   0.0000       0.462385        12.5821 
  64   0.0000       0.474846        12.9212 
  65   0.0000       0.477778        13.0010 
  66   0.0000       0.485318        13.2062 
  67   0.0000       0.503888        13.7115 
  68   0.0000       0.507914        13.8210 
  69   0.0000       0.509577        13.8663 
  70   0.0000       0.517468        14.0810 
  71   0.0000       0.524765        14.2796 
  72   0.0000       0.531586        14.4652 
  73   0.0000       0.534753        14.5514 
  74   0.0000       0.535374        14.5683 
  75   0.0000       0.558696        15.2029 
  76   0.0000       0.561978        15.2922 
  77   0.0000       0.566138        15.4054 
  78   0.0000       0.578002        15.7282 
  79   0.0000       0.580119        15.7858 
  80   0.0000       0.595438        16.2027 
  81   0.0000       0.623394        16.9634 
  82   0.0000       0.631362        17.1802 
  83   0.0000       0.645895        17.5757 
  84   0.0000       0.660241        17.9661 
  85   0.0000       0.668967        18.2035 
  86   0.0000       0.675994        18.3947 
  87   0.0000       0.679386        18.4870 
  88   0.0000       0.709412        19.3041 
  89   0.0000       0.725029        19.7290 
  90   0.0000       0.734302        19.9814 
  91   0.0000       0.774532        21.0761 
  92   0.0000       0.789666        21.4879 
  93   0.0000       0.804247        21.8847 
  94   0.0000       0.817855        22.2550 
  95   0.0000       0.845953        23.0195 
  96   0.0000       0.871207        23.7067 
  97   0.0000       0.885167        24.0866 
  98   0.0000       0.932114        25.3641 
  99   0.0000       0.939374        25.5617 
 100   0.0000       0.945823        25.7372 
 101   0.0000       0.968674        26.3590 
 102   0.0000       0.993450        27.0331 
 103   0.0000       0.996468        27.1153 
 104   0.0000       1.005577        27.3631 
 105   0.0000       1.020409        27.7667 
 106   0.0000       1.054495        28.6943 
 107   0.0000       1.061286        28.8791 
 108   0.0000       1.110978        30.2312 
 109   0.0000       1.123088        30.5608 
 110   0.0000       1.137038        30.9404 
 111   0.0000       1.162598        31.6359 
 112   0.0000       1.164620        31.6909 
 113   0.0000       1.173552        31.9340 
 114   0.0000       1.193448        32.4754 
 115   0.0000       1.210622        32.9427 
 116   0.0000       1.212829        33.0028 
 117   0.0000       1.238398        33.6985 
 118   0.0000       1.261913        34.3384 
 119   0.0000       1.277552        34.7639 
 120   0.0000       1.314240        35.7623 
 121   0.0000       1.314264        35.7629 
 122   0.0000       1.351242        36.7692 
 123   0.0000       1.369038        37.2534 
 124   0.0000       1.383287        37.6411 
 125   0.0000       1.446054        39.3491 
 126   0.0000       1.507345        41.0169 
 127   0.0000       1.529998        41.6334 
 128   0.0000       1.547300        42.1042 
 129   0.0000       1.559782        42.4438 
 130   0.0000       1.587347        43.1939 
 131   0.0000       1.604833        43.6697 
 132   0.0000       1.611918        43.8625 
 133   0.0000       1.635260        44.4977 
 134   0.0000       1.639835        44.6222 
 135   0.0000       1.646477        44.8029 
 136   0.0000       1.660762        45.1916 
 137   0.0000       1.661325        45.2069 
 138   0.0000       1.678722        45.6804 
 139   0.0000       1.685195        45.8565 
 140   0.0000       1.699207        46.2378 
 141   0.0000       1.701204        46.2921 
 142   0.0000       1.705799        46.4172 
 143   0.0000       1.730990        47.1026 
 144   0.0000       1.746360        47.5209 
 145   0.0000       1.753119        47.7048 
 146   0.0000       1.773644        48.2633 
 147   0.0000       1.783963        48.5441 
 148   0.0000       1.793050        48.7914 
 149   0.0000       1.806788        49.1652 
 150   0.0000       1.832126        49.8547 
 151   0.0000       1.836334        49.9692 
 152   0.0000       1.845942        50.2306 
 153   0.0000       1.865956        50.7752 
 154   0.0000       1.884271        51.2736 
 155   0.0000       1.930568        52.5334 
 156   0.0000       1.977417        53.8082 
 157   0.0000       2.008258        54.6475 
 158   0.0000       2.009049        54.6690 
 159   0.0000       2.035615        55.3919 
 160   0.0000       2.083747        56.7016 
 161   0.0000       2.092949        56.9520 
 162   0.0000       2.093463        56.9660 
 163   0.0000       2.100489        57.1572 
 164   0.0000       2.132656        58.0325 
 165   0.0000       2.163055        58.8597 
 166   0.0000       2.194167        59.7063 
 167   0.0000       2.201897        59.9167 
 168   0.0000       2.231943        60.7343 
 169   0.0000       2.241088        60.9831 
 170   0.0000       2.305225        62.7283 
 171   0.0000       2.322005        63.1850 
 172   0.0000       2.325689        63.2852 
 173   0.0000       2.360864        64.2424 
 174   0.0000       2.384557        64.8871 
 175   0.0000       2.391605        65.0789 
 176   0.0000       2.394183        65.1490 
 177   0.0000       2.404508        65.4300 
 178   0.0000       2.424674        65.9787 
 179   0.0000       2.438997        66.3685 
 180   0.0000       2.456915        66.8560 
 181   0.0000       2.461883        66.9912 
 182   0.0000       2.496221        67.9256 
 183   0.0000       2.534495        68.9671 
 184   0.0000       2.548646        69.3522 
 185   0.0000       2.556417        69.5636 
 186   0.0000       2.567429        69.8633 
 187   0.0000       2.575961        70.0955 
 188   0.0000       2.604572        70.8740 
 189   0.0000       2.628480        71.5246 
 190   0.0000       2.631114        71.5962 
 191   0.0000       2.649677        72.1014 
 192   0.0000       2.653812        72.2139 
 193   0.0000       2.662269        72.4440 
 194   0.0000       2.669898        72.6516 
 195   0.0000       2.685005        73.0627 
 196   0.0000       2.717319        73.9420 
 197   0.0000       2.734460        74.4084 
 198   0.0000       2.738575        74.5204 
 199   0.0000       2.760231        75.1097 
 200   0.0000       2.791854        75.9702 
 201   0.0000       2.799951        76.1906 
 202   0.0000       2.803382        76.2839 
 203   0.0000       2.813840        76.5685 
 204   0.0000       2.825398        76.8830 
 205   0.0000       2.843997        77.3891 
 206   0.0000       2.860101        77.8273 
 207   0.0000       2.896585        78.8201 
 208   0.0000       2.936748        79.9130 
 209   0.0000       2.979141        81.0665 
 210   0.0000       2.983102        81.1743 
 211   0.0000       3.030991        82.4775 
 212   0.0000       3.050911        83.0195 
 213   0.0000       3.065492        83.4163 
 214   0.0000       3.128776        85.1383 
 215   0.0000       3.149569        85.7041 
 216   0.0000       3.167180        86.1833 
 217   0.0000       3.183741        86.6340 
 218   0.0000       3.185804        86.6901 
 219   0.0000       3.203529        87.1725 
 220   0.0000       3.212348        87.4124 
 221   0.0000       3.216103        87.5146 
 222   0.0000       3.220668        87.6388 
 223   0.0000       3.240857        88.1882 
 224   0.0000       3.263858        88.8141 
 225   0.0000       3.292481        89.5930 
 226   0.0000       3.301653        89.8425 
 227   0.0000       3.321093        90.3715 
 228   0.0000       3.324070        90.4525 
 229   0.0000       3.335050        90.7513 
 230   0.0000       3.353968        91.2661 
 231   0.0000       3.369119        91.6784 
 232   0.0000       3.382866        92.0525 
 233   0.0000       3.420591        93.0790 
 234   0.0000       3.426141        93.2300 
 235   0.0000       3.442071        93.6635 
 236   0.0000       3.454888        94.0123 
 237   0.0000       3.466446        94.3268 
 238   0.0000       3.485383        94.8421 
 239   0.0000       3.488508        94.9271 
 240   0.0000       3.504207        95.3543 
 241   0.0000       3.518856        95.7529 
 242   0.0000       3.538378        96.2842 
 243   0.0000       3.565704        97.0277 
 244   0.0000       3.588109        97.6374 
 245   0.0000       3.601720        98.0078 
 246   0.0000       3.619099        98.4807 
 247   0.0000       3.673132        99.9510 
 248   0.0000       3.676187       100.0341 
 249   0.0000       3.679423       100.1222 
 250   0.0000       3.689134       100.3864 
 251   0.0000       3.694342       100.5282 
 252   0.0000       3.715171       101.0949 
 253   0.0000       3.744954       101.9054 
 254   0.0000       3.772973       102.6678 
 255   0.0000       3.774795       102.7174 
 256   0.0000       3.829342       104.2017 
 257   0.0000       3.831156       104.2510 
 258   0.0000       3.867761       105.2471 
 259   0.0000       3.929002       106.9136 
 260   0.0000       3.950774       107.5060 
 261   0.0000       4.003338       108.9364 
 262   0.0000       4.036529       109.8395 
 263   0.0000       4.055776       110.3633 
 264   0.0000       4.064220       110.5931 
 265   0.0000       4.094972       111.4299 
 266   0.0000       4.099062       111.5411 
 267   0.0000       4.138419       112.6121 
 268   0.0000       4.158290       113.1528 
 269   0.0000       4.194174       114.1293 
 270   0.0000       4.270685       116.2112 
 271   0.0000       4.280629       116.4818 
 272   0.0000       4.320446       117.5653 
 273   0.0000       4.331417       117.8639 
 274   0.0000       4.367144       118.8360 
 275   0.0000       4.392232       119.5187 
 276   0.0000       4.425477       120.4234 
 277   0.0000       4.440105       120.8214 
 278   0.0000       4.449080       121.0656 
 279   0.0000       4.514178       122.8370 
 280   0.0000       4.531847       123.3178 
 281   0.0000       4.585412       124.7754 
 282   0.0000       4.586922       124.8165 
 283   0.0000       4.637013       126.1796 
 284   0.0000       4.746269       129.1525 
 285   0.0000       4.755453       129.4024 
 286   0.0000       4.855099       132.1140 
 287   0.0000       4.901592       133.3791 
 288   0.0000       4.975429       135.3883 
 289   0.0000       5.000237       136.0634 
 290   0.0000       5.077266       138.1594 
 291   0.0000       5.079485       138.2198 
 292   0.0000       5.187514       141.1594 
 293   0.0000       5.191858       141.2776 
 294   0.0000       5.270340       143.4132 
 295   0.0000       5.280875       143.6999 
 296   0.0000       5.293960       144.0560 
 297   0.0000       5.340468       145.3215 
 298   0.0000       5.342675       145.3816 
 299   0.0000       5.403440       147.0351 
 300   0.0000       5.404729       147.0702 
 301   0.0000       5.423781       147.5886 
 302   0.0000       5.507738       149.8732 
 303   0.0000       5.533289       150.5685 
 304   0.0000       5.698784       155.0718 
 305   0.0000       5.718161       155.5991 
 306   0.0000       5.832725       158.7165 
 307   0.0000       5.841247       158.9484 
 308   0.0000       5.967641       162.3878 
 309   0.0000       6.005347       163.4138 
 310   0.0000       6.046341       164.5293 
 311   0.0000       6.168744       167.8601 
 312   0.0000      22.433735       610.4530 
 313   0.0000      22.456416       611.0702 
 314   0.0000      22.516286       612.6993 
 315   0.0000      22.582340       614.4967 
 316   0.0000      22.607707       615.1870 
 317   0.0000      22.818761       620.9301 
 318   0.0000      32.869441       894.4230 
 319   0.0000      32.899597       895.2436 

                    ********************************
                    * MULLIKEN POPULATION ANALYSIS *
                    ********************************

-----------------------
MULLIKEN ATOMIC CHARGES
-----------------------
   0 C :   -0.163098
   1 C :   -0.210702
   2 C :   -0.163124
   3 C :   -0.191668
   4 H :    0.110276
   5 H :    0.118036
   6 H :    0.110165
   7 N :   -0.087785
   8 N :   -0.087786
   9 H :    0.110285
  10 H :    0.115253
  11 H :    0.118036
  12 C :   -0.249980
  13 H :    0.147160
  14 H :    0.107596
  15 H :    0.106277
  16 C :   -0.249971
  17 H :    0.107589
  18 H :    0.147164
  19 H :    0.106280
Sum of atomic charges:   -0.0000000

--------------------------------
MULLIKEN REDUCED ORBITAL CHARGES
--------------------------------
  0 C s       :     3.246106  s :     3.246106
      pz      :     0.996845  p :     2.801835
      px      :     1.029463
      py      :     0.775527
      dz2     :     0.019019  d :     0.107654
      dxz     :     0.013117
      dyz     :     0.022454
      dx2y2   :     0.021455
      dxy     :     0.031608
      f0      :     0.001179  f :     0.007503
      f+1     :     0.000866
      f-1     :     0.000819
      f+2     :     0.001480
      f-2     :     0.000191
      f+3     :     0.001959
      f-3     :     0.001010
  1 C s       :     3.656837  s :     3.656837
      pz      :     0.640918  p :     2.421197
      px      :     0.573667
      py      :     1.206612
      dz2     :     0.010244  d :     0.118558
      dxz     :     0.047344
      dyz     :     0.032646
      dx2y2   :     0.009630
      dxy     :     0.018695
      f0      :     0.002996  f :     0.014111
      f+1     :     0.002234
      f-1     :     0.002607
      f+2     :     0.001686
      f-2     :     0.003793
      f+3     :     0.000515
      f-3     :     0.000281
  2 C s       :     3.246122  s :     3.246122
      pz      :     0.996852  p :     2.801844
      px      :     1.029456
      py      :     0.775536
      dz2     :     0.019019  d :     0.107655
      dxz     :     0.013117
      dyz     :     0.022455
      dx2y2   :     0.021455
      dxy     :     0.031610
      f0      :     0.001179  f :     0.007503
      f+1     :     0.000866
      f-1     :     0.000819
      f+2     :     0.001479
      f-2     :     0.000191
      f+3     :     0.001960
      f-3     :     0.001010
  3 C s       :     3.202693  s :     3.202693
      pz      :     0.893721  p :     2.895392
      px      :     0.992523
      py      :     1.009147
      dz2     :     0.032571  d :     0.088225
      dxz     :     0.018570
      dyz     :     0.012126
      dx2y2   :     0.021320
      dxy     :     0.003638
      f0      :     0.001274  f :     0.005359
      f+1     :     0.000825
      f-1     :     0.000898
      f+2     :     0.001054
      f-2     :     0.000590
      f+3     :     0.000321
      f-3     :     0.000398
  4 H s       :     0.868110  s :     0.868110
      pz      :     0.004109  p :     0.021613
      px      :     0.012951
      py      :     0.004554
  5 H s       :     0.859890  s :     0.859890
      pz      :     0.011370  p :     0.022075
      px      :     0.006393
      py      :     0.004311
  6 H s       :     0.867695  s :     0.867695
      pz      :     0.003792  p :     0.022140
      px      :     0.014314
      py      :     0.004034
  7 N s       :     3.407376  s :     3.407376
      pz      :     1.035539  p :     3.584516
      px      :     1.552454
      py      :     0.996524
      dz2     :     0.026782  d :     0.090737
      dxz     :     0.012127
      dyz     :     0.029574
      dx2y2   :     0.012606
      dxy     :     0.009648
      f0      :     0.001316  f :     0.005156
      f+1     :     0.000660
      f-1     :     0.000712
      f+2     :     0.000898
      f-2     :     0.000305
      f+3     :     0.000582
      f-3     :     0.000682
  8 N s       :     3.407379  s :     3.407379
      pz      :     1.035533  p :     3.584516
      px      :     1.552452
      py      :     0.996532
      dz2     :     0.026781  d :     0.090735
      dxz     :     0.012127
      dyz     :     0.029573
      dx2y2   :     0.012607
      dxy     :     0.009648
      f0      :     0.001316  f :     0.005156
      f+1     :     0.000660
      f-1     :     0.000712
      f+2     :     0.000898
      f-2     :     0.000305
      f+3     :     0.000582
      f-3     :     0.000682
  9 H s       :     0.868101  s :     0.868101
      pz      :     0.004109  p :     0.021614
      px      :     0.012951
      py      :     0.004554
 10 H s       :     0.862346  s :     0.862346
      pz      :     0.003996  p :     0.022402
      px      :     0.003918
      py      :     0.014488
 11 H s       :     0.859889  s :     0.859889
      pz      :     0.011370  p :     0.022075
      px      :     0.006393
      py      :     0.004312
 12 C s       :     3.279658  s :     3.279658
      pz      :     0.825547  p :     2.892999
      px      :     1.031659
      py      :     1.035792
      dz2     :     0.012565  d :     0.071896
      dxz     :     0.034184
      dyz     :     0.010824
      dx2y2   :     0.009188
      dxy     :     0.005135
      f0      :     0.001158  f :     0.005428
      f+1     :     0.000926
      f-1     :     0.001017
      f+2     :     0.001080
      f-2     :     0.000932
      f+3     :     0.000036
      f-3     :     0.000280
 13 H s       :     0.830497  s :     0.830497
      pz      :     0.003903  p :     0.022343
      px      :     0.003904
      py      :     0.014536
 14 H s       :     0.871384  s :     0.871384
      pz      :     0.007041  p :     0.021020
      px      :     0.010050
      py      :     0.003929
 15 H s       :     0.872765  s :     0.872765
      pz      :     0.006177  p :     0.020958
      px      :     0.010717
      py      :     0.004064
 16 C s       :     3.279649  s :     3.279649
      pz      :     0.825547  p :     2.892999
      px      :     1.031661
      py      :     1.035791
      dz2     :     0.012566  d :     0.071896
      dxz     :     0.034183
      dyz     :     0.010823
      dx2y2   :     0.009189
      dxy     :     0.005135
      f0      :     0.001158  f :     0.005428
      f+1     :     0.000926
      f-1     :     0.001017
      f+2     :     0.001080
      f-2     :     0.000932
      f+3     :     0.000036
      f-3     :     0.000280
 17 H s       :     0.871391  s :     0.871391
      pz      :     0.007040  p :     0.021020
      px      :     0.010050
      py      :     0.003929
 18 H s       :     0.830493  s :     0.830493
      pz      :     0.003903  p :     0.022343
      px      :     0.003904
      py      :     0.014536
 19 H s       :     0.872762  s :     0.872762
      pz      :     0.006177  p :     0.020958
      px      :     0.010717
      py      :     0.004064


                     *******************************
                     * LOEWDIN POPULATION ANALYSIS *
                     *******************************

----------------------
LOEWDIN ATOMIC CHARGES
----------------------
   0 C :   -0.263603
   1 C :   -0.358102
   2 C :   -0.263604
   3 C :   -0.258548
   4 H :    0.131085
   5 H :    0.135416
   6 H :    0.143432
   7 N :    0.118328
   8 N :    0.118328
   9 H :    0.131085
  10 H :    0.140583
  11 H :    0.135416
  12 C :   -0.299037
  13 H :    0.126580
  14 H :    0.108417
  15 H :    0.109131
  16 C :   -0.299036
  17 H :    0.108416
  18 H :    0.126580
  19 H :    0.109132

-------------------------------
LOEWDIN REDUCED ORBITAL CHARGES
-------------------------------
  0 C s       :     2.777174  s :     2.777174
      pz      :     1.030096  p :     2.965728
      px      :     1.043655
      py      :     0.891976
      dz2     :     0.095683  d :     0.466926
      dxz     :     0.062013
      dyz     :     0.092065
      dx2y2   :     0.102752
      dxy     :     0.114413
      f0      :     0.007411  f :     0.053776
      f+1     :     0.005611
      f-1     :     0.007624
      f+2     :     0.009130
      f-2     :     0.004200
      f+3     :     0.011976
      f-3     :     0.007825
  1 C s       :     2.998010  s :     2.998010
      pz      :     0.857545  p :     2.769438
      px      :     0.604209
      py      :     1.307684
      dz2     :     0.145213  d :     0.505671
      dxz     :     0.159407
      dyz     :     0.142000
      dx2y2   :     0.027323
      dxy     :     0.031728
      f0      :     0.017758  f :     0.084983
      f+1     :     0.007901
      f-1     :     0.019097
      f+2     :     0.014149
      f-2     :     0.023031
      f+3     :     0.001532
      f-3     :     0.001516
  2 C s       :     2.777174  s :     2.777174
      pz      :     1.030096  p :     2.965728
      px      :     1.043655
      py      :     0.891977
      dz2     :     0.095683  d :     0.466926
      dxz     :     0.062013
      dyz     :     0.092066
      dx2y2   :     0.102752
      dxy     :     0.114413
      f0      :     0.007411  f :     0.053776
      f+1     :     0.005611
      f-1     :     0.007624
      f+2     :     0.009130
      f-2     :     0.004200
      f+3     :     0.011976
      f-3     :     0.007825
  3 C s       :     2.773466  s :     2.773466
      pz      :     1.020968  p :     3.056204
      px      :     1.027057
      py      :     1.008179
      dz2     :     0.123979  d :     0.389481
      dxz     :     0.077975
      dyz     :     0.061212
      dx2y2   :     0.105077
      dxy     :     0.021237
      f0      :     0.007577  f :     0.039398
      f+1     :     0.006448
      f-1     :     0.007170
      f+2     :     0.005786
      f-2     :     0.007040
      f+3     :     0.002355
      f-3     :     0.003024
  4 H s       :     0.812246  s :     0.812246
      pz      :     0.012367  p :     0.056669
      px      :     0.031635
      py      :     0.012667
  5 H s       :     0.807680  s :     0.807680
      pz      :     0.026714  p :     0.056904
      px      :     0.018784
      py      :     0.011406
  6 H s       :     0.799560  s :     0.799560
      pz      :     0.011908  p :     0.057008
      px      :     0.032088
      py      :     0.013011
  7 N s       :     2.882331  s :     2.882331
      pz      :     1.169568  p :     3.657296
      px      :     1.347206
      py      :     1.140522
      dz2     :     0.089639  d :     0.321311
      dxz     :     0.036279
      dyz     :     0.117005
      dx2y2   :     0.045264
      dxy     :     0.033125
      f0      :     0.006389  f :     0.020734
      f+1     :     0.002007
      f-1     :     0.002502
      f+2     :     0.004531
      f-2     :     0.001640
      f+3     :     0.001984
      f-3     :     0.001680
  8 N s       :     2.882331  s :     2.882331
      pz      :     1.169568  p :     3.657296
      px      :     1.347206
      py      :     1.140522
      dz2     :     0.089639  d :     0.321311
      dxz     :     0.036279
      dyz     :     0.117005
      dx2y2   :     0.045264
      dxy     :     0.033125
      f0      :     0.006389  f :     0.020734
      f+1     :     0.002007
      f-1     :     0.002502
      f+2     :     0.004531
      f-2     :     0.001640
      f+3     :     0.001985
      f-3     :     0.001680
  9 H s       :     0.812245  s :     0.812245
      pz      :     0.012367  p :     0.056670
      px      :     0.031635
      py      :     0.012667
 10 H s       :     0.802302  s :     0.802302
      pz      :     0.012131  p :     0.057115
      px      :     0.012627
      py      :     0.032358
 11 H s       :     0.807680  s :     0.807680
      pz      :     0.026714  p :     0.056904
      px      :     0.018784
      py      :     0.011406
 12 C s       :     2.840134  s :     2.840134
      pz      :     0.950896  p :     3.086124
      px      :     1.079474
      py      :     1.055754
      dz2     :     0.064199  d :     0.332706
      dxz     :     0.134155
      dyz     :     0.058915
      dx2y2   :     0.060097
      dxy     :     0.015340
      f0      :     0.009165  f :     0.040073
      f+1     :     0.005023
      f-1     :     0.008844
      f+2     :     0.004373
      f-2     :     0.008239
      f+3     :     0.001921
      f-3     :     0.002509
 13 H s       :     0.812207  s :     0.812207
      pz      :     0.011144  p :     0.061213
      px      :     0.012397
      py      :     0.037672
 14 H s       :     0.833251  s :     0.833251
      pz      :     0.018105  p :     0.058332
      px      :     0.027282
      py      :     0.012944
 15 H s       :     0.832436  s :     0.832436
      pz      :     0.016220  p :     0.058433
      px      :     0.028757
      py      :     0.013456
 16 C s       :     2.840134  s :     2.840134
      pz      :     0.950896  p :     3.086123
      px      :     1.079474
      py      :     1.055754
      dz2     :     0.064199  d :     0.332706
      dxz     :     0.134156
      dyz     :     0.058914
      dx2y2   :     0.060097
      dxy     :     0.015340
      f0      :     0.009165  f :     0.040073
      f+1     :     0.005023
      f-1     :     0.008844
      f+2     :     0.004373
      f-2     :     0.008239
      f+3     :     0.001921
      f-3     :     0.002509
 17 H s       :     0.833252  s :     0.833252
      pz      :     0.018105  p :     0.058332
      px      :     0.027282
      py      :     0.012944
 18 H s       :     0.812207  s :     0.812207
      pz      :     0.011144  p :     0.061213
      px      :     0.012397
      py      :     0.037672
 19 H s       :     0.832436  s :     0.832436
      pz      :     0.016220  p :     0.058432
      px      :     0.028757
      py      :     0.013455


                      *****************************
                      * MAYER POPULATION ANALYSIS *
                      *****************************

  NA   - Mulliken gross atomic population
  ZA   - Total nuclear charge
  QA   - Mulliken gross atomic charge
  VA   - Mayer's total valence
  BVA  - Mayer's bonded valence
  FA   - Mayer's free valence

  ATOM       NA         ZA         QA         VA         BVA        FA
  0 C      6.1631     6.0000    -0.1631     3.8926     3.8926    -0.0000
  1 C      6.2107     6.0000    -0.2107     2.5832     2.5832     0.0000
  2 C      6.1631     6.0000    -0.1631     3.8926     3.8926     0.0000
  3 C      6.1917     6.0000    -0.1917     3.9530     3.9530     0.0000
  4 H      0.8897     1.0000     0.1103     0.9630     0.9630    -0.0000
  5 H      0.8820     1.0000     0.1180     0.9574     0.9574     0.0000
  6 H      0.8898     1.0000     0.1102     0.9776     0.9776    -0.0000
  7 N      7.0878     7.0000    -0.0878     3.0476     3.0476     0.0000
  8 N      7.0878     7.0000    -0.0878     3.0476     3.0476    -0.0000
  9 H      0.8897     1.0000     0.1103     0.9630     0.9630     0.0000
 10 H      0.8847     1.0000     0.1153     0.9710     0.9710     0.0000
 11 H      0.8820     1.0000     0.1180     0.9574     0.9574    -0.0000
 12 C      6.2500     6.0000    -0.2500     3.8322     3.8322    -0.0000
 13 H      0.8528     1.0000     0.1472     0.9937     0.9937    -0.0000
 14 H      0.8924     1.0000     0.1076     0.9598     0.9598    -0.0000
 15 H      0.8937     1.0000     0.1063     0.9559     0.9559    -0.0000
 16 C      6.2500     6.0000    -0.2500     3.8322     3.8322     0.0000
 17 H      0.8924     1.0000     0.1076     0.9598     0.9598     0.0000
 18 H      0.8528     1.0000     0.1472     0.9937     0.9937    -0.0000
 19 H      0.8937     1.0000     0.1063     0.9559     0.9559     0.0000

  Mayer bond orders larger than 0.100000
B(  0-C ,  3-C ) :   0.9835 B(  0-C ,  4-H ) :   0.9654 B(  0-C ,  7-N ) :   0.9195 
B(  0-C , 11-H ) :   0.9730 B(  1-C ,  7-N ) :   1.2202 B(  1-C ,  8-N ) :   1.2202 
B(  2-C ,  3-C ) :   0.9835 B(  2-C ,  5-H ) :   0.9730 B(  2-C ,  8-N ) :   0.9195 
B(  2-C ,  9-H ) :   0.9654 B(  3-C ,  6-H ) :   0.9810 B(  3-C , 10-H ) :   0.9834 
B(  7-N , 12-C ) :   0.9253 B(  8-N , 16-C ) :   0.9253 B( 12-C , 13-H ) :   0.9767 
B( 12-C , 14-H ) :   0.9735 B( 12-C , 15-H ) :   0.9694 B( 16-C , 17-H ) :   0.9735 
B( 16-C , 18-H ) :   0.9767 B( 16-C , 19-H ) :   0.9694 

-------
TIMINGS
-------

Total SCF time: 0 days 0 hours 2 min 2 sec 

Total time                  ....     122.600 sec
Sum of individual times     ....     121.878 sec  ( 99.4%)

Fock matrix formation       ....     119.221 sec  ( 97.2%)
  Split-RI-J                ....       5.437 sec  (  4.6% of F)
  Chain of spheres X        ....     102.135 sec  ( 85.7% of F)
  XC integration            ....      11.362 sec  (  9.5% of F)
    Basis function eval.    ....       2.533 sec  ( 22.3% of XC)
    Density eval.           ....       2.814 sec  ( 24.8% of XC)
    XC-Functional eval.     ....       0.787 sec  (  6.9% of XC)
    XC-Potential eval.      ....       3.941 sec  ( 34.7% of XC)
Diagonalization             ....       0.265 sec  (  0.2%)
Density matrix formation    ....       0.017 sec  (  0.0%)
Population analysis         ....       0.063 sec  (  0.1%)
Initial guess               ....       0.399 sec  (  0.3%)
Orbital Transformation      ....       0.000 sec  (  0.0%)
Orbital Orthonormalization  ....       0.000 sec  (  0.0%)
DIIS solution               ....       0.162 sec  (  0.1%)
SOSCF solution              ....       0.112 sec  (  0.1%)
Grid generation             ....       1.639 sec  (  1.3%)

Maximum memory used throughout the entire SCF-calculation: 83.7 MB


-------------------------------------------------------------------------------
                          DFT DISPERSION CORRECTION                            
                                                                               
                                 DFTD4 V2.5                                    
-------------------------------------------------------------------------------
The WB97X functional is recognized
Active option DFTDOPT                   ...         5   

Starting D4
-------------------------   ----------------
Dispersion correction           -0.002581476
-------------------------   ----------------


-------------------------   --------------------
FINAL SINGLE POINT ENERGY      -345.351320358584
-------------------------   --------------------



           ************************************************************
           *        Program running with 4 parallel MPI-processes     *
           *              working on a common directory               *
           ************************************************************
------------------------------------------------------------------------------
                         ORCA SCF GRADIENT CALCULATION
------------------------------------------------------------------------------

 ... reading COSX grid (gridx3)
Gradient of the Kohn-Sham DFT energy:
Kohn-Sham wavefunction type      ... RKS
Hartree-Fock exchange scaling    ...    0.158
[...]
     28      -0.213701   0.187729   0.045202  -0.105558   0.023303   0.012706
     29       0.065750  -0.059826  -0.012726   0.032232  -0.013387  -0.004736
     30       0.000001   0.005648   0.000000  -0.003896  -0.063109   0.000001
     31      -0.000006  -0.047615  -0.000003   0.029616   0.431567  -0.000008
     32      -0.006193   0.000001   0.002069  -0.000000  -0.000000  -0.000921
     33       0.116805   0.110557  -0.012919  -0.042380  -0.182587   0.083463
     34       0.048460   0.045826  -0.006054  -0.018579  -0.093105   0.043749
     35       0.160020   0.156575  -0.014790  -0.056051  -0.286630   0.133711
     36       0.000468  -0.001352  -0.005211  -0.005200   0.005919  -0.063756
     37       0.000400   0.001109   0.002487   0.001952  -0.000686   0.002601
     38       0.007141   0.017511   0.036358   0.032939   0.001312  -0.004756
     39       0.000647   0.001564   0.003227   0.002867   0.001028  -0.014209
     40       0.040033   0.096179   0.195704   0.176254   0.010534  -0.021766
     41       0.008873   0.020298   0.039436   0.035285   0.001752  -0.004519
     42      -0.079082  -0.179244  -0.357023  -0.318444  -0.048251   0.401354
     43      -0.020733  -0.046360  -0.091043  -0.080703  -0.012319   0.115944
     44      -0.053468  -0.121135  -0.242025  -0.216879  -0.035591   0.292314
     45       0.074841   0.195816   0.416469   0.377454  -0.025045   0.371885
     46      -0.023895  -0.060474  -0.125440  -0.112871   0.009058  -0.124756
     47      -0.040926  -0.110438  -0.239006  -0.218147   0.016473  -0.230932
     48      -0.000468  -0.001353   0.005212  -0.005201   0.005919   0.063769
     49      -0.000400   0.001109  -0.002487   0.001952  -0.000686  -0.002602
     50       0.007138  -0.017515   0.036357  -0.032938  -0.001312  -0.004757
     51       0.079050  -0.179286   0.357012  -0.318430  -0.048253  -0.401436
     52       0.020725  -0.046371   0.091039  -0.080699  -0.012319  -0.115968
     53      -0.053447   0.121165  -0.242019   0.216871   0.035593   0.292376
     54      -0.000646   0.001565  -0.003227   0.002867   0.001028   0.014212
     55      -0.040017   0.096202  -0.195701   0.176250   0.010534   0.021773
     56       0.008869  -0.020302   0.039435  -0.035284  -0.001752  -0.004521
     57      -0.074809   0.195865  -0.416466   0.377447  -0.025049  -0.371956
     58       0.023885  -0.060490   0.125440  -0.112870   0.009059   0.124781
     59      -0.040907   0.110464  -0.239002   0.218141  -0.016475  -0.230975
                 54         55         56         57         58         59    
      0      -0.000194   0.042848   0.038146   0.009287   0.000409   0.000461
      1      -0.000431   0.008959   0.006908  -0.002072  -0.000216  -0.000206
      2      -0.001127   0.042989   0.038236   0.001467   0.000254   0.000373
      3      -0.000605  -0.000000   0.000491   0.000232  -0.000012  -0.000000
      4       0.000104   0.000000  -0.000541   0.000198   0.000078   0.000000
      5       0.000000  -0.000874  -0.000000  -0.000000  -0.000004   0.000765
      6      -0.000191  -0.042849   0.038146   0.009287   0.000414  -0.000457
      7      -0.000431  -0.008959   0.006907  -0.002073  -0.000219   0.000204
      8       0.001124   0.042989  -0.038235  -0.001466  -0.000258   0.000371
      9      -0.007869  -0.000001   0.028771   0.051404  -0.000235  -0.000001
     10      -0.003792  -0.000000   0.023354  -0.077010  -0.000026  -0.000000
     11       0.000000  -0.000485   0.000000   0.000000  -0.000000   0.000071
     12      -0.003758  -0.174314  -0.168702  -0.084047  -0.002153  -0.002509
     13      -0.000481   0.063960   0.060109   0.027706   0.000009   0.000452
     14       0.001117   0.029846   0.028432   0.012585   0.000426   0.000529
     15       0.006624   0.337566  -0.291493  -0.021225  -0.002397   0.002835
     16       0.005143   0.168827  -0.143727  -0.010144  -0.002598   0.002547
     17      -0.011751  -0.539237   0.468678   0.034264   0.002760  -0.004004
     18       0.103649   0.000009  -0.373295  -0.528825   0.001963   0.000011
     19      -0.021724  -0.000002   0.078377   0.097345  -0.000290  -0.000002
     20       0.000000   0.002590  -0.000001  -0.000001   0.000000  -0.000070
     21       0.000284   0.000023  -0.000138  -0.000149  -0.000040  -0.000039
     22      -0.000031   0.000160  -0.000017   0.000379   0.000379   0.000712
     23      -0.000083   0.000414   0.000282  -0.000095   0.000586   0.000521
     24       0.000284  -0.000023  -0.000138  -0.000149  -0.000040   0.000039
     25      -0.000031  -0.000160  -0.000017   0.000379   0.000386  -0.000708
     26       0.000083   0.000414  -0.000282   0.000095  -0.000591   0.000515
     27      -0.003768   0.174318  -0.168701  -0.084047  -0.002179   0.002485
     28      -0.000477  -0.063961   0.060109   0.027707   0.000014  -0.000451
     29      -0.001119   0.029848  -0.028433  -0.012585  -0.000432   0.000524
     30      -0.009329  -0.000001   0.045103  -0.092509   0.000204   0.000001
     31       0.066075   0.000006  -0.348839   0.821019   0.000473   0.000002
     32      -0.000000   0.001957   0.000000  -0.000000   0.000002  -0.000387
     33       0.006649  -0.337560  -0.291497  -0.021225  -0.002367  -0.002861
     34       0.005156  -0.168826  -0.143731  -0.010144  -0.002571  -0.002575
     35       0.011792  -0.539233  -0.468689  -0.034264  -0.002717  -0.004034
     36      -0.065152  -0.015681  -0.005456  -0.000226   0.001770   0.001778
     37       0.002528  -0.000018  -0.000138   0.000048   0.059975   0.060615
     38      -0.004761  -0.000288   0.000847  -0.000294   0.020833   0.020999
     39      -0.014804  -0.004349  -0.001910  -0.000172  -0.014288  -0.014448
     40      -0.020235   0.006476   0.008449  -0.001164  -0.662257  -0.669564
     41      -0.004480  -0.000006   0.000504  -0.000227  -0.126536  -0.128054
     42       0.408501   0.086932   0.020290   0.003502  -0.115413  -0.116088
     43       0.118670   0.028132   0.008353   0.001019  -0.025242  -0.025327
     44       0.297237   0.061871   0.013497   0.002345  -0.075425  -0.075924
     45       0.381426   0.101405   0.043963  -0.000940   0.109196   0.110088
     46      -0.127860  -0.033541  -0.014288  -0.000114  -0.027693  -0.027902
     47      -0.236496  -0.061218  -0.025712   0.001000  -0.058627  -0.059193
     48      -0.065140   0.015679  -0.005455  -0.000226   0.001789  -0.001760
     49       0.002528   0.000018  -0.000138   0.000048   0.060622  -0.059968
     50       0.004760  -0.000288  -0.000847   0.000294  -0.021057   0.020774
     51       0.408427  -0.086922   0.020289   0.003503  -0.116652   0.114843
     52       0.118649  -0.028129   0.008352   0.001019  -0.025512   0.025055
     53      -0.297185   0.061864  -0.013496  -0.002345   0.076237  -0.075112
     54      -0.014801   0.004349  -0.001910  -0.000172  -0.014443   0.014295
     55      -0.020233  -0.006475   0.008448  -0.001164  -0.669403   0.662420
     56       0.004480  -0.000006  -0.000504   0.000227   0.127902  -0.126688
     57       0.381353  -0.101396   0.043961  -0.000940   0.110371  -0.108910
     58      -0.127837   0.033539  -0.014287  -0.000114  -0.027991   0.027604
     59       0.236449  -0.061212   0.025711  -0.001000   0.059258  -0.058560


-----------
IR SPECTRUM
-----------

 Mode   freq       eps      Int      T**2         TX        TY        TZ
       cm**-1   L/(mol*cm) km/mol    a.u.
----------------------------------------------------------------------------
  6:    126.01   0.000038    0.19  0.000094  (-0.000001  0.000000  0.009696)
  7:    154.48   0.001212    6.12  0.002448  (-0.049476 -0.000563  0.000000)
  8:    202.87   0.000073    0.37  0.000113  (-0.000001  0.000000 -0.010625)
  9:    237.80   0.000168    0.85  0.000220  ( 0.014576 -0.002770 -0.000000)
 10:    285.00   0.001112    5.62  0.001218  ( 0.034130 -0.007297 -0.000000)
 11:    294.70   0.000004    0.02  0.000004  (-0.000001  0.000000  0.002012)
 12:    329.63   0.000615    3.11  0.000582  (-0.020564 -0.012625  0.000000)
 13:    436.73   0.000073    0.37  0.000052  (-0.000000  0.000000  0.007208)
 14:    462.04   0.000235    1.19  0.000159  (-0.011142 -0.005889  0.000000)
 15:    481.21   0.003919   19.81  0.002541  ( 0.000000  0.000000  0.050413)
 16:    522.47   0.000452    2.28  0.000270  ( 0.000201  0.016424 -0.000000)
 17:    623.59   0.000107    0.54  0.000053  (-0.003401 -0.006471 -0.000000)
 18:    807.82   0.000518    2.62  0.000200  ( 0.001284  0.014087  0.000000)
 19:    888.14   0.001943    9.82  0.000683  (-0.000000 -0.000000 -0.026129)
 20:    922.33   0.000272    1.37  0.000092  (-0.000000  0.000000 -0.009587)
 21:    949.54   0.000083    0.42  0.000027  ( 0.005136  0.000919 -0.000000)
 22:   1041.60   0.002385   12.05  0.000715  ( 0.004498 -0.026351  0.000000)
 23:   1074.59   0.000252    1.27  0.000073  ( 0.000000 -0.000000  0.008555)
 24:   1094.68   0.000395    2.00  0.000113  ( 0.001717  0.010475 -0.000000)
 25:   1128.18   0.000708    3.58  0.000196  (-0.012193 -0.006866 -0.000001)
 26:   1132.74   0.002602   13.15  0.000717  (-0.000000 -0.000000  0.026776)
 27:   1160.04   0.000065    0.33  0.000018  (-0.000001 -0.000000  0.004191)
 28:   1174.23   0.001204    6.08  0.000320  ( 0.017678  0.002719  0.000000)
 29:   1221.97   0.001477    7.47  0.000377  (-0.000000 -0.000000  0.019424)
 30:   1248.30   0.012987   65.63  0.003247  ( 0.000000 -0.000000 -0.056979)
 31:   1276.79   0.000587    2.97  0.000143  (-0.000000 -0.000001 -0.011977)
 32:   1286.62   0.003305   16.70  0.000802  ( 0.010891  0.026133 -0.000000)
 33:   1338.02   0.000714    3.61  0.000166  ( 0.007123 -0.010756  0.000000)
 34:   1364.56   0.013647   68.97  0.003121  (-0.000000  0.000000  0.055866)
 35:   1398.35   0.003164   15.99  0.000706  (-0.000160 -0.026572  0.000001)
 36:   1402.76   0.002513   12.70  0.000559  (-0.000000  0.000000  0.023643)
 37:   1440.82   0.006449   32.59  0.001397  ( 0.000000  0.000000 -0.037372)
 38:   1451.87   0.000071    0.36  0.000015  ( 0.000628  0.003851  0.000001)
 39:   1461.39   0.001288    6.51  0.000275  (-0.004516  0.015958  0.000000)
 40:   1493.38   0.009147   46.22  0.001911  ( 0.000830  0.000839  0.043703)
 41:   1493.38   0.001918    9.70  0.000401  ( 0.013968  0.014108 -0.002600)
 42:   1499.27   0.003323   16.79  0.000692  (-0.026259 -0.001468 -0.000002)
 43:   1500.77   0.004688   23.69  0.000975  (-0.000001 -0.000000  0.031221)
 44:   1510.09   0.000493    2.49  0.000102  (-0.000000 -0.000001 -0.010091)
 45:   1517.68   0.001526    7.71  0.000314  ( 0.004476 -0.017140  0.000000)
 46:   1537.35   0.001825    9.22  0.000370  (-0.002425  0.019094  0.000000)
 47:   1583.85   0.041632  210.39  0.008203  (-0.000000 -0.000000  0.090568)
 48:   3026.82   0.001766    8.92  0.000182  ( 0.000003 -0.000003 -0.013493)
 49:   3030.14   0.010851   54.84  0.001117  ( 0.021588 -0.025523 -0.000000)
 50:   3033.08   0.036891  186.43  0.003796  ( 0.000001 -0.000001  0.061609)
 51:   3036.47   0.003721   18.81  0.000382  (-0.017879  0.007925  0.000000)
 52:   3078.30   0.000328    1.66  0.000033  (-0.001973 -0.005420 -0.000000)
 53:   3085.69   0.001338    6.76  0.000135  ( 0.000004  0.000000 -0.011631)
 54:   3086.33   0.017787   89.89  0.001798  (-0.042400 -0.000827 -0.000001)
 55:   3093.25   0.006470   32.70  0.000653  (-0.000001 -0.000000  0.025548)
 56:   3100.29   0.007333   37.06  0.000738  ( 0.022715  0.014903  0.000000)
 57:   3138.61   0.005435   27.46  0.000540  ( 0.013208 -0.019129  0.000000)
 58:   3190.57   0.001775    8.97  0.000174  ( 0.000937  0.013144 -0.000017)
 59:   3190.64   0.000106    0.54  0.000010  ( 0.000005  0.000070  0.003218)

* The epsilon (eps) is given for a Dirac delta lineshape.
** The dipole moment derivative (T) already includes vibrational overlap.

The first frequency considered to be a vibration is 6
The total number of vibrations considered is 54


--------------------------
THERMOCHEMISTRY AT 298.15K
--------------------------

Temperature         ... 298.15 K
Pressure            ... 1.00 atm
Total Mass          ... 112.18 AMU

Throughout the following assumptions are being made:
  (1) The electronic state is orbitally nondegenerate
  (2) There are no thermally accessible electronically excited states
  (3) Hindered rotations indicated by low frequency modes are not
      treated as such but are treated as vibrations and this may
      cause some error
  (4) All equations used are the standard statistical mechanics
      equations for an ideal gas
  (5) All vibrations are strictly harmonic

freq.     126.01  E(vib)   ...       0.43 
freq.     154.48  E(vib)   ...       0.40 
freq.     202.87  E(vib)   ...       0.35 
freq.     237.80  E(vib)   ...       0.32 
freq.     285.00  E(vib)   ...       0.28 
freq.     294.70  E(vib)   ...       0.27 
freq.     329.63  E(vib)   ...       0.24 
freq.     436.73  E(vib)   ...       0.17 
freq.     462.04  E(vib)   ...       0.16 
freq.     481.21  E(vib)   ...       0.15 
freq.     522.47  E(vib)   ...       0.13 
freq.     623.59  E(vib)   ...       0.09 
freq.     807.82  E(vib)   ...       0.05 
freq.     888.14  E(vib)   ...       0.04 
freq.     922.33  E(vib)   ...       0.03 
freq.     949.54  E(vib)   ...       0.03 
freq.    1041.60  E(vib)   ...       0.02 
freq.    1074.59  E(vib)   ...       0.02 
freq.    1094.68  E(vib)   ...       0.02 
freq.    1128.18  E(vib)   ...       0.01 
freq.    1132.74  E(vib)   ...       0.01 
freq.    1160.04  E(vib)   ...       0.01 
freq.    1174.23  E(vib)   ...       0.01 
freq.    1221.97  E(vib)   ...       0.01 
freq.    1248.30  E(vib)   ...       0.01 
freq.    1276.79  E(vib)   ...       0.01 
freq.    1286.62  E(vib)   ...       0.01 
freq.    1338.02  E(vib)   ...       0.01 
freq.    1364.56  E(vib)   ...       0.01 
freq.    1398.35  E(vib)   ...       0.00 
freq.    1402.76  E(vib)   ...       0.00 
freq.    1440.82  E(vib)   ...       0.00 
freq.    1451.87  E(vib)   ...       0.00 
freq.    1461.39  E(vib)   ...       0.00 
freq.    1493.38  E(vib)   ...       0.00 
freq.    1493.38  E(vib)   ...       0.00 
freq.    1499.27  E(vib)   ...       0.00 
freq.    1500.77  E(vib)   ...       0.00 
freq.    1510.09  E(vib)   ...       0.00 
freq.    1517.68  E(vib)   ...       0.00 
freq.    1537.35  E(vib)   ...       0.00 
freq.    1583.85  E(vib)   ...       0.00 
freq.    3026.82  E(vib)   ...       0.00 
freq.    3030.14  E(vib)   ...       0.00 
freq.    3033.08  E(vib)   ...       0.00 
freq.    3036.47  E(vib)   ...       0.00 
freq.    3078.30  E(vib)   ...       0.00 
freq.    3085.69  E(vib)   ...       0.00 
freq.    3086.33  E(vib)   ...       0.00 
freq.    3093.25  E(vib)   ...       0.00 
freq.    3100.29  E(vib)   ...       0.00 
freq.    3138.61  E(vib)   ...       0.00 
freq.    3190.57  E(vib)   ...       0.00 
freq.    3190.64  E(vib)   ...       0.00 

------------
INNER ENERGY
------------

The inner energy is: U= E(el) + E(ZPE) + E(vib) + E(rot) + E(trans)
    E(el)   - is the total energy from the electronic structure calculation
              = E(kin-el) + E(nuc-el) + E(el-el) + E(nuc-nuc)
    E(ZPE)  - the the zero temperature vibrational energy from the frequency calculation
    E(vib)  - the the finite temperature correction to E(ZPE) due to population
              of excited vibrational states
    E(rot)  - is the rotational thermal energy
    E(trans)- is the translational thermal energy

Summary of contributions to the inner energy U:
Electronic energy                ...   -345.35207717 Eh
Zero point energy                ...      0.18145112 Eh     113.86 kcal/mol
Thermal vibrational correction   ...      0.00529037 Eh       3.32 kcal/mol
Thermal rotational correction    ...      0.00141627 Eh       0.89 kcal/mol
Thermal translational correction ...      0.00141627 Eh       0.89 kcal/mol
-----------------------------------------------------------------------
Total thermal energy                   -345.16250313 Eh


Summary of corrections to the electronic energy:
(perhaps to be used in another calculation)
Total thermal correction                  0.00812291 Eh       5.10 kcal/mol
Non-thermal (ZPE) correction              0.18145112 Eh     113.86 kcal/mol
-----------------------------------------------------------------------
Total correction                          0.18957403 Eh     118.96 kcal/mol


--------
ENTHALPY
--------

The enthalpy is H = U + kB*T
                kB is Boltzmann's constant
Total free energy                 ...   -345.16250313 Eh 
Thermal Enthalpy correction       ...      0.00094421 Eh       0.59 kcal/mol
-----------------------------------------------------------------------
Total Enthalpy                    ...   -345.16155893 Eh


Note: Rotational entropy computed according to Herzberg 
Infrared and Raman Spectra, Chapter V,1, Van Nostrand Reinhold, 1945 
Point Group:  Cs, Symmetry Number:   1  
Rotational constants in cm-1:     0.111143     0.060077     0.041127 

Vibrational entropy computed according to the QRRHO of S. Grimme
Chem.Eur.J. 2012 18 9955


-------
ENTROPY
-------

The entropy contributions are T*S = T*(S(el)+S(vib)+S(rot)+S(trans))
     S(el)   - electronic entropy
     S(vib)  - vibrational entropy
     S(rot)  - rotational entropy
     S(trans)- translational entropy
The entropies will be listed as multiplied by the temperature to get
units of energy

Electronic entropy                ...      0.00000000 Eh      0.00 kcal/mol
Vibrational entropy               ...      0.00870352 Eh      5.46 kcal/mol
Rotational entropy                ...      0.01338202 Eh      8.40 kcal/mol
Translational entropy             ...      0.01903397 Eh     11.94 kcal/mol
-----------------------------------------------------------------------
Final entropy term                ...      0.04111950 Eh     25.80 kcal/mol

In case the symmetry of your molecule has not been determined correctly
or in case you have a reason to use a different symmetry number we print 
out the resulting rotational entropy values for sn=1,12 :
 --------------------------------------------------------
|  sn= 1 | S(rot)=       0.01338202 Eh      8.40 kcal/mol|
|  sn= 2 | S(rot)=       0.01272756 Eh      7.99 kcal/mol|
|  sn= 3 | S(rot)=       0.01234473 Eh      7.75 kcal/mol|
|  sn= 4 | S(rot)=       0.01207311 Eh      7.58 kcal/mol|
|  sn= 5 | S(rot)=       0.01186242 Eh      7.44 kcal/mol|
|  sn= 6 | S(rot)=       0.01169027 Eh      7.34 kcal/mol|
|  sn= 7 | S(rot)=       0.01154473 Eh      7.24 kcal/mol|
|  sn= 8 | S(rot)=       0.01141865 Eh      7.17 kcal/mol|
|  sn= 9 | S(rot)=       0.01130744 Eh      7.10 kcal/mol|
|  sn=10 | S(rot)=       0.01120796 Eh      7.03 kcal/mol|
|  sn=11 | S(rot)=       0.01111797 Eh      6.98 kcal/mol|
|  sn=12 | S(rot)=       0.01103582 Eh      6.93 kcal/mol|
 --------------------------------------------------------


-------------------
GIBBS FREE ENERGY
-------------------

The Gibbs free energy is G = H - T*S

Total enthalpy                    ...   -345.16155893 Eh 
Total entropy correction          ...     -0.04111950 Eh    -25.80 kcal/mol
-----------------------------------------------------------------------
Final Gibbs free energy         ...   -345.20267843 Eh

For completeness - the Gibbs free energy minus the electronic energy
G-E(el)                           ...      0.14939874 Eh     93.75 kcal/mol


Timings for individual modules:

Sum of individual times         ...     1301.381 sec (=  21.690 min)
GTO integral calculation        ...        3.365 sec (=   0.056 min)   0.3 %
SCF iterations                  ...      412.463 sec (=   6.874 min)  31.7 %
SCF Gradient evaluation         ...      106.509 sec (=   1.775 min)   8.2 %
Geometry relaxation             ...        0.221 sec (=   0.004 min)   0.0 %
Analytical frequency calculation...      778.823 sec (=  12.980 min)  59.8 %
                             ****ORCA TERMINATED NORMALLY****
TOTAL RUN TIME: 0 days 0 hours 21 minutes 43 seconds 580 msec
