
                                 *****************
                                 * O   R   C   A *
                                 *****************

                                            #,                                       
                                            ###                                      
                                            ####                                     
                                            #####                                    
                                            ######                                   
                                           ########,                                 
                                     ,,################,,,,,                         
                               ,,#################################,,                 
                          ,,##########################################,,             
                       ,#########################################, ''#####,          
                    ,#############################################,,   '####,        
                  ,##################################################,,,,####,       
                ,###########''''           ''''###############################       
              ,#####''   ,,,,##########,,,,          '''####'''          '####       
            ,##' ,,,,###########################,,,                        '##       
           ' ,,###''''                  '''############,,,                           
         ,,##''                                '''############,,,,        ,,,,,,###''
      ,#''                                            '''#######################'''  
     '                                                          ''''####''''         
             ,#######,   #######,   ,#######,      ##                                
            ,#'     '#,  ##    ##  ,#'     '#,    #''#        ######   ,####,        
            ##       ##  ##   ,#'  ##            #'  '#       #        #'  '#        
            ##       ##  #######   ##           ,######,      #####,   #    #        
            '#,     ,#'  ##    ##  '#,     ,#' ,#      #,         ##   #,  ,#        
             '#######'   ##     ##  '#######'  #'      '#     #####' # '####'        



                  #######################################################
                  #                        -***-                        #
                  #          Department of theory and spectroscopy      #
                  #    Directorship and core code : Frank Neese         #
                  #        Max Planck Institute fuer Kohlenforschung    #
                  #                Kaiser Wilhelm Platz 1               #
                  #                 D-45470 Muelheim/Ruhr               #
                  #                      Germany                        #
                  #                                                     #
                  #                  All rights reserved                #
                  #                        -***-                        #
                  #######################################################


                         Program Version 5.0.4 -  RELEASE  -


 With contributions from (in alphabetic order):
   Daniel Aravena         : Magnetic Suceptibility
   Michael Atanasov       : Ab Initio Ligand Field Theory (pilot matlab implementation)
   Alexander A. Auer      : GIAO ZORA, VPT2 properties, NMR spectrum
   Ute Becker             : Parallelization
   Giovanni Bistoni       : ED, misc. LED, open-shell LED, HFLD
   Martin Brehm           : Molecular dynamics
   Dmytro Bykov           : SCF Hessian
   Vijay G. Chilkuri      : MRCI spin determinant printing, contributions to CSF-ICE
   Dipayan Datta          : RHF DLPNO-CCSD density
   Achintya Kumar Dutta   : EOM-CC, STEOM-CC
   Dmitry Ganyushin       : Spin-Orbit,Spin-Spin,Magnetic field MRCI
   Miquel Garcia          : C-PCM and meta-GGA Hessian, CC/C-PCM, Gaussian charge scheme
   Yang Guo               : DLPNO-NEVPT2, F12-NEVPT2, CIM, IAO-localization
   Andreas Hansen         : Spin unrestricted coupled pair/coupled cluster methods
   Benjamin Helmich-Paris : MC-RPA, TRAH-SCF, COSX integrals
   Lee Huntington         : MR-EOM, pCC
   Robert Izsak           : Overlap fitted RIJCOSX, COSX-SCS-MP3, EOM
   Marcus Kettner         : VPT2
   Christian Kollmar      : KDIIS, OOCD, Brueckner-CCSD(T), CCSD density, CASPT2, CASPT2-K
   Simone Kossmann        : Meta GGA functionals, TD-DFT gradient, OOMP2, MP2 Hessian
   Martin Krupicka        : Initial AUTO-CI
   Lucas Lang             : DCDCAS
   Marvin Lechner         : AUTO-CI (C++ implementation), FIC-MRCC
   Dagmar Lenk            : GEPOL surface, SMD
   Dimitrios Liakos       : Extrapolation schemes; Compound Job, initial MDCI parallelization
   Dimitrios Manganas     : Further ROCIS development; embedding schemes
   Dimitrios Pantazis     : SARC Basis sets
   Anastasios Papadopoulos: AUTO-CI, single reference methods and gradients
   Taras Petrenko         : DFT Hessian,TD-DFT gradient, ASA, ECA, R-Raman, ABS, FL, XAS/XES, NRVS
   Peter Pinski           : DLPNO-MP2, DLPNO-MP2 Gradient
   Christoph Reimann      : Effective Core Potentials
   Marius Retegan         : Local ZFS, SOC
   Christoph Riplinger    : Optimizer, TS searches, QM/MM, DLPNO-CCSD(T), (RO)-DLPNO pert. Triples
   Tobias Risthaus        : Range-separated hybrids, TD-DFT gradient, RPA, STAB
   Michael Roemelt        : Original ROCIS implementation
   Masaaki Saitow         : Open-shell DLPNO-CCSD energy and density
   Barbara Sandhoefer     : DKH picture change effects
   Avijit Sen             : IP-ROCIS
   Kantharuban Sivalingam : CASSCF convergence, NEVPT2, FIC-MRCI
   Bernardo de Souza      : ESD, SOC TD-DFT
   Georgi Stoychev        : AutoAux, RI-MP2 NMR, DLPNO-MP2 response
   Willem Van den Heuvel  : Paramagnetic NMR
   Boris Wezisla          : Elementary symmetry handling
   Frank Wennmohs         : Technical directorship


 We gratefully acknowledge several colleagues who have allowed us to
 interface, adapt or use parts of their codes:
   Stefan Grimme, W. Hujo, H. Kruse, P. Pracht,  : VdW corrections, initial TS optimization,
                  C. Bannwarth, S. Ehlert          DFT functionals, gCP, sTDA/sTD-DF
   Ed Valeev, F. Pavosevic, A. Kumar             : LibInt (2-el integral package), F12 methods
   Garnet Chan, S. Sharma, J. Yang, R. Olivares  : DMRG
   Ulf Ekstrom                                   : XCFun DFT Library
   Mihaly Kallay                                 : mrcc  (arbitrary order and MRCC methods)
   Jiri Pittner, Ondrej Demel                    : Mk-CCSD
   Frank Weinhold                                : gennbo (NPA and NBO analysis)
   Christopher J. Cramer and Donald G. Truhlar   : smd solvation model
   Lars Goerigk                                  : TD-DFT with DH, B97 family of functionals
   V. Asgeirsson, H. Jonsson                     : NEB implementation
   FAccTs GmbH                                   : IRC, NEB, NEB-TS, DLPNO-Multilevel, CI-OPT
                                                   MM, QMMM, 2- and 3-layer-ONIOM, Crystal-QMMM,
                                                   LR-CPCM, SF, NACMEs, symmetry and pop. for TD-DFT,
                                                   nearIR, NL-DFT gradient (VV10), updates on ESD,
                                                   ML-optimized integration grids
   S Lehtola, MJT Oliveira, MAL Marques          : LibXC Library
   Liviu Ungur et al                             : ANISO software


 Your calculation uses the libint2 library for the computation of 2-el integrals
 For citations please refer to: http://libint.valeyev.net

 Your ORCA version has been built with support for libXC version: 5.1.0
 For citations please refer to: https://tddft.org/programs/libxc/

 This ORCA versions uses:
   CBLAS   interface :  Fast vector & matrix operations
   LAPACKE interface :  Fast linear algebra routines
   SCALAPACK package :  Parallel linear algebra routines
   Shared memory     :  Shared parallel matrices
   BLAS/LAPACK       :  OpenBLAS 0.3.15  USE64BITINT DYNAMIC_ARCH NO_AFFINITY SkylakeX SINGLE_THREADED
        Core in use  :  SkylakeX
   Copyright (c) 2011-2014, The OpenBLAS Project




***************************************
The coordinates will be read from file: 11_deprot.xyz
***************************************


Your calculation utilizes the atom-pairwise dispersion correction
based on tight binding partial charges (D4)
Cite in your paper:
E.Caldeweyher, C.Bannwarth, S.Grimme, J.Chem.Phys., (2017), 147, 034112.
E.Caldeweyher, S.Ehlert, A.Hansen, H.Neugebauer, S.Grimme, J.Chem.Phys., (2018), in progress.
   

XCFun DFT library Copyright 2009-2010 Ulf Ekstrom and contributors.
See http://admol.org/xcfun for more information.
This is free software; see the source code for copying conditions.
There is ABSOLUTELY NO WARRANTY; not even for MERCHANTABILITY or FITNESS FOR A PARTICULAR PURPOSE.
For details see the documentation.
Scientific users of this library should cite U. Ekstrom, L. Visscher, R. Bast, A. J. Thorvaldsen and K. Ruud;
J.Chem.Theor.Comp. 2010, DOI: 10.1021/ct100117s
XCFun Version 0.99 

================================================================================

----- Orbital basis set information -----
Your calculation utilizes the basis: def2-TZVP
   F. Weigend and R. Ahlrichs, Phys. Chem. Chem. Phys. 7, 3297 (2005).

----- AuxJ basis set information -----
Your calculation utilizes the auxiliary basis: def2/J
   F. Weigend, Phys. Chem. Chem. Phys. 8, 1057 (2006).

================================================================================
                                        WARNINGS
                       Please study these warnings very carefully!
================================================================================


WARNING: Geometry Optimization
  ===> : Switching off AutoStart
         For restart on a previous wavefunction, please use MOREAD

INFO   : the flag for use of the SHARK integral package has been found!

================================================================================
                                       INPUT FILE
================================================================================
NAME = 11_deprot.inp
|  1> # ORCA 5.0.4 - /users/bwb16179/postgrad/2024_06/pKa_Reviewer_Comments/Gas_Z=0/11_deprot.inp # write input file
|  2> # Basic Mode
|  3> #
|  4> ! Opt Freq wB97X Def2-TZVP D4 SlowConv TightSCF Defgrid2 Def2/J RIJCOSX 
|  5> 
|  6> %PAL NPROCS 4 END
|  7> 
|  8> %maxcore 4500
|  9> 
| 10> %geom
| 11> Maxiter 150
| 12> END
| 13> 
| 14> * xyzfile 0 1 11_deprot.xyz
| 15> 
| 16>                          ****END OF INPUT****
================================================================================

                       *****************************
                       * Geometry Optimization Run *
                       *****************************

Geometry optimization settings:
Update method            Update   .... BFGS
Choice of coordinates    CoordSys .... Z-matrix Internals
Initial Hessian          InHess   .... Almoef's Model

Convergence Tolerances:
Energy Change            TolE     ....  5.0000e-06 Eh
Max. Gradient            TolMAXG  ....  3.0000e-04 Eh/bohr
RMS Gradient             TolRMSG  ....  1.0000e-04 Eh/bohr
Max. Displacement        TolMAXD  ....  4.0000e-03 bohr
RMS Displacement         TolRMSD  ....  2.0000e-03 bohr
Strict Convergence                ....  False
------------------------------------------------------------------------------
                        ORCA OPTIMIZATION COORDINATE SETUP
------------------------------------------------------------------------------

The optimization will be done in new redundant internal coordinates
Making redundant internal coordinates   ...  (new redundants) done
Evaluating the initial hessian          ...  (Almloef) done
Evaluating the coordinates              ...  done
Calculating the B-matrix                .... done
Calculating the G-matrix                .... done
Diagonalizing the G-matrix              .... done
Small eigenvalue found = 1.060e-02
Small eigenvalue found = 2.827e-02
The first mode is                       ....   26
The number of degrees of freedom        ....   51

    -----------------------------------------------------------------
                    Redundant Internal Coordinates


    -----------------------------------------------------------------
         Definition                    Initial Value    Approx d2E/dq
    -----------------------------------------------------------------
      1. B(N   1,C   0)                  1.3485         0.651777   
      2. B(N   2,C   0)                  1.3485         0.651777   
      3. B(C   3,N   1)                  1.4584         0.435315   
      4. B(C   4,N   2)                  1.4584         0.435316   
      5. B(H   5,C   3)                  1.1019         0.344683   
      6. B(H   6,C   4)                  1.1019         0.344683   
      7. B(H   7,C   3)                  1.0962         0.351947   
      8. B(H   8,C   4)                  1.0962         0.351946   
      9. B(H   9,C   3)                  1.1043         0.341670   
     10. B(H  10,C   4)                  1.1043         0.341670   
     11. B(C  11,N   1)                  1.4521         0.445374   
     12. B(C  12,N   2)                  1.4521         0.445375   
     13. B(H  13,C  11)                  1.0957         0.352620   
     14. B(H  14,C  12)                  1.0957         0.352620   
     15. B(H  15,C  11)                  1.1056         0.340024   
     16. B(H  16,C  12)                  1.1056         0.340025   
     17. B(H  17,C  11)                  1.1042         0.341772   
     18. B(H  18,C  12)                  1.1042         0.341771   
     19. A(N   1,C   0,N   2)          118.8888         0.436178   
     20. A(C   3,N   1,C  11)          113.1581         0.379700   
     21. A(C   0,N   1,C   3)          129.4459         0.405866   
     22. A(C   0,N   1,C  11)          116.3639         0.407509   
     23. A(C   4,N   2,C  12)          113.1581         0.379701   
     24. A(C   0,N   2,C  12)          116.3639         0.407509   
     25. A(C   0,N   2,C   4)          129.4459         0.405866   
     26. A(H   5,C   3,H   7)          107.1454         0.287817   
     27. A(N   1,C   3,H   9)          113.5719         0.327748   
     28. A(H   5,C   3,H   9)          107.2896         0.286488   
     29. A(H   7,C   3,H   9)          108.9854         0.287422   
     30. A(N   1,C   3,H   7)          111.0098         0.329354   
     31. A(N   1,C   3,H   5)          108.5746         0.328222   
     32. A(H   6,C   4,H  10)          107.2896         0.286488   
     33. A(H   8,C   4,H  10)          108.9855         0.287422   
     34. A(N   2,C   4,H  10)          113.5719         0.327748   
     35. A(N   2,C   4,H   6)          108.5746         0.328222   
     36. A(H   6,C   4,H   8)          107.1454         0.287817   
     37. A(N   2,C   4,H   8)          111.0099         0.329354   
     38. A(H  15,C  11,H  17)          107.9097         0.285894   
     39. A(H  13,C  11,H  17)          109.0670         0.287522   
     40. A(N   1,C  11,H  17)          111.0413         0.329001   
     41. A(H  13,C  11,H  15)          109.2773         0.287291   
     42. A(N   1,C  11,H  15)          111.2596         0.328723   
     43. A(N   1,C  11,H  13)          108.2531         0.330705   
     44. A(H  14,C  12,H  18)          109.0670         0.287521   
     45. A(N   2,C  12,H  18)          111.0413         0.329001   
     46. A(H  14,C  12,H  16)          109.2772         0.287291   
     47. A(N   2,C  12,H  16)          111.2597         0.328723   
     48. A(H  16,C  12,H  18)          107.9096         0.285894   
     49. A(N   2,C  12,H  14)          108.2532         0.330705   
     50. D(C  11,N   1,C   0,N   2)    173.0282         0.031410   
     51. D(C   3,N   1,C   0,N   2)    -19.5088         0.031410   
     52. D(C   4,N   2,C   0,N   1)    -19.5088         0.031410   
     53. D(C  12,N   2,C   0,N   1)    173.0281         0.031410   
     54. D(H   5,C   3,N   1,C  11)     31.5132         0.016157   
     55. D(H   7,C   3,N   1,C   0)    -18.7446         0.016157   
     56. D(H   9,C   3,N   1,C  11)    -87.7416         0.016157   
     57. D(H   9,C   3,N   1,C   0)    104.4709         0.016157   
     58. D(H   5,C   3,N   1,C   0)   -136.2743         0.016157   
     59. D(H   7,C   3,N   1,C  11)    149.0428         0.016157   
     60. D(H   8,C   4,N   2,C  12)    149.0429         0.016157   
     61. D(H   8,C   4,N   2,C   0)    -18.7446         0.016157   
     62. D(H   6,C   4,N   2,C  12)     31.5133         0.016157   
     63. D(H  10,C   4,N   2,C   0)    104.4709         0.016157   
     64. D(H   6,C   4,N   2,C   0)   -136.2742         0.016157   
     65. D(H  10,C   4,N   2,C  12)    -87.7415         0.016157   
     66. D(H  17,C  11,N   1,C   3)     64.5860         0.016917   
     67. D(H  17,C  11,N   1,C   0)   -125.9188         0.016917   
     68. D(H  15,C  11,N   1,C   3)    -55.6272         0.016917   
     69. D(H  15,C  11,N   1,C   0)    113.8680         0.016917   
     70. D(H  13,C  11,N   1,C   3)   -175.7157         0.016917   
     71. D(H  13,C  11,N   1,C   0)     -6.2205         0.016917   
     72. D(H  18,C  12,N   2,C   4)     64.5860         0.016918   
     73. D(H  18,C  12,N   2,C   0)   -125.9188         0.016918   
     74. D(H  16,C  12,N   2,C   4)    -55.6272         0.016918   
     75. D(H  16,C  12,N   2,C   0)    113.8680         0.016918   
     76. D(H  14,C  12,N   2,C   4)   -175.7158         0.016918   
     77. D(H  14,C  12,N   2,C   0)     -6.2205         0.016918   
    -----------------------------------------------------------------

Number of atoms                         .... 19
Number of degrees of freedom            .... 77

         *************************************************************
         *                GEOMETRY OPTIMIZATION CYCLE   1            *
         *************************************************************
---------------------------------
CARTESIAN COORDINATES (ANGSTROEM)
---------------------------------
  C     -0.000001   -0.000000    0.824194
  N     -0.017587    1.161102    0.138655
  N      0.017586   -1.161102    0.138655
  C      0.354551    1.425016   -1.246513
  C     -0.354551   -1.425016   -1.246513
  H      0.951490    2.350648   -1.279330
  H     -0.951490   -2.350648   -1.279331
  H      0.983757    0.620417   -1.644570
  H     -0.983757   -0.620417   -1.644571
  H     -0.511289    1.568933   -1.916654
  H      0.511290   -1.568933   -1.916653
  C     -0.193852    2.370441    0.922976
  C      0.193852   -2.370440    0.922976
  H     -0.394486    2.080472    1.960402
  H      0.394486   -2.080471    1.960402
  H      0.710803    3.005174    0.889830
  H     -0.710801   -3.005175    0.889831
  H     -1.041982    2.968025    0.544994
  H      1.041983   -2.968024    0.544994

----------------------------
CARTESIAN COORDINATES (A.U.)
----------------------------
  NO LB      ZA    FRAG     MASS         X           Y           Z
   0 C     6.0000    0    12.011   -0.000002   -0.000000    1.557501
   1 N     7.0000    0    14.007   -0.033235    2.194165    0.262020
   2 N     7.0000    0    14.007    0.033233   -2.194165    0.262020
   3 C     6.0000    0    12.011    0.670004    2.692890   -2.355568
   4 C     6.0000    0    12.011   -0.670004   -2.692890   -2.355568
   5 H     1.0000    0     1.008    1.798056    4.442081   -2.417583
   6 H     1.0000    0     1.008   -1.798056   -4.442081   -2.417585
   7 H     1.0000    0     1.008    1.859031    1.172418   -3.107787
   8 H     1.0000    0     1.008   -1.859031   -1.172418   -3.107789
   9 H     1.0000    0     1.008   -0.966196    2.964854   -3.621951
  10 H     1.0000    0     1.008    0.966198   -2.964854   -3.621949
  11 C     6.0000    0    12.011   -0.366327    4.479484    1.744172
  12 C     6.0000    0    12.011    0.366327   -4.479482    1.744172
  13 H     1.0000    0     1.008   -0.745471    3.931522    3.704623
  14 H     1.0000    0     1.008    0.745471   -3.931520    3.704623
  15 H     1.0000    0     1.008    1.343223    5.678956    1.681535
  16 H     1.0000    0     1.008   -1.343219   -5.678958    1.681537
  17 H     1.0000    0     1.008   -1.969061    5.608754    1.029889
  18 H     1.0000    0     1.008    1.969063   -5.608753    1.029889

--------------------------------
INTERNAL COORDINATES (ANGSTROEM)
--------------------------------
 C      0   0   0     0.000000000000     0.00000000     0.00000000
 N      1   0   0     1.348492062387     0.00000000     0.00000000
 N      1   2   0     1.348492075429   118.88876508     0.00000000
 C      2   1   3     1.458364727585   129.44588449   340.49121974
 C      3   1   2     1.458364472410   129.44587890   340.49116274
 H      4   2   1     1.101910942243   108.57457852   223.72573757
 H      5   3   1     1.101910972025   108.57461102   223.72576321
 H      4   2   1     1.096234060995   111.00983711   341.25535095
 H      5   3   1     1.096234424109   111.00986269   341.25537741
 H      4   2   1     1.104300669370   113.57190398   104.47091019
 H      5   3   1     1.104300846586   113.57186974   104.47094174
 C      2   1   3     1.452146548454   116.36390606   173.02823300
 C      3   1   2     1.452145837043   116.36388811   173.02813487
 H     12   2   1     1.095713798577   108.25312459   353.77947415
 H     13   3   1     1.095713798577   108.25315245   353.77946100
 H     12   2   1     1.105615352476   111.25962493   113.86798159
 H     13   3   1     1.105614834225   111.25972351   113.86800463
 H     12   2   1     1.104219872254   111.04130189   234.08121038
 H     13   3   1     1.104220640335   111.04131369   234.08120183

---------------------------
INTERNAL COORDINATES (A.U.)
---------------------------
 C      0   0   0     0.000000000000     0.00000000     0.00000000
 N      1   0   0     2.548280691678     0.00000000     0.00000000
 N      1   2   0     2.548280716323   118.88876508     0.00000000
 C      2   1   3     2.755909938506   129.44588449   340.49121974
 C      3   1   2     2.755909456296   129.44587890   340.49116274
 H      4   2   1     2.082309904810   108.57457852   223.72573757
 H      5   3   1     2.082309961090   108.57461102   223.72576321
 H      4   2   1     2.071582153957   111.00983711   341.25535095
 H      5   3   1     2.071582840142   111.00986269   341.25537741
 H      4   2   1     2.086825834614   113.57190398   104.47091019
 H      5   3   1     2.086826169504   113.57186974   104.47094174
 C      2   1   3     2.744159282897   116.36390606   173.02823300
 C      3   1   2     2.744157938525   116.36388811   173.02813487
 H     12   2   1     2.070599000470   108.25312459   353.77947415
 H     13   3   1     2.070599000470   108.25315245   353.77946100
 H     12   2   1     2.089310225638   111.25962493   113.86798159
 H     13   3   1     2.089309246287   111.25972351   113.86800463
 H     12   2   1     2.086673150193   111.04130189   234.08121038
 H     13   3   1     2.086674601656   111.04131369   234.08120183

---------------------
BASIS SET INFORMATION
---------------------
There are 3 groups of distinct atoms

 Group   1 Type C   : 11s6p2d1f contracted to 5s3p2d1f pattern {62111/411/11/1}
 Group   2 Type N   : 11s6p2d1f contracted to 5s3p2d1f pattern {62111/411/11/1}
 Group   3 Type H   : 5s1p contracted to 3s1p pattern {311/1}

Atom   0C    basis set group =>   1
Atom   1N    basis set group =>   2
Atom   2N    basis set group =>   2
Atom   3C    basis set group =>   1
Atom   4C    basis set group =>   1
Atom   5H    basis set group =>   3
Atom   6H    basis set group =>   3
Atom   7H    basis set group =>   3
Atom   8H    basis set group =>   3
Atom   9H    basis set group =>   3
Atom  10H    basis set group =>   3
Atom  11C    basis set group =>   1
Atom  12C    basis set group =>   1
Atom  13H    basis set group =>   3
Atom  14H    basis set group =>   3
Atom  15H    basis set group =>   3
Atom  16H    basis set group =>   3
Atom  17H    basis set group =>   3
Atom  18H    basis set group =>   3
---------------------------------
AUXILIARY/J BASIS SET INFORMATION
---------------------------------
There are 3 groups of distinct atoms

 Group   1 Type C   : 12s5p4d2f1g contracted to 6s4p3d1f1g pattern {711111/2111/211/2/1}
 Group   2 Type N   : 12s5p4d2f1g contracted to 6s4p3d1f1g pattern {711111/2111/211/2/1}
 Group   3 Type H   : 5s2p1d contracted to 3s1p1d pattern {311/2/1}

Atom   0C    basis set group =>   1
Atom   1N    basis set group =>   2
Atom   2N    basis set group =>   2
Atom   3C    basis set group =>   1
Atom   4C    basis set group =>   1
Atom   5H    basis set group =>   3
Atom   6H    basis set group =>   3
Atom   7H    basis set group =>   3
Atom   8H    basis set group =>   3
Atom   9H    basis set group =>   3
Atom  10H    basis set group =>   3
Atom  11C    basis set group =>   1
Atom  12C    basis set group =>   1
Atom  13H    basis set group =>   3
Atom  14H    basis set group =>   3
Atom  15H    basis set group =>   3
Atom  16H    basis set group =>   3
Atom  17H    basis set group =>   3
Atom  18H    basis set group =>   3


           ************************************************************
           *        Program running with 4 parallel MPI-processes     *
           *              working on a common directory               *
           ************************************************************
------------------------------------------------------------------------------
                           ORCA GTO INTEGRAL CALCULATION
                           -- RI-GTO INTEGRALS CHOSEN --
------------------------------------------------------------------------------
------------------------------------------------------------------------------
                   ___                                                        
                  /   \      - P O W E R E D   B Y -                         
                 /     \                                                     
                 |  |  |   _    _      __       _____    __    __             
                 |  |  |  | |  | |    /  \     |  _  \  |  |  /  |          
                  \  \/   | |  | |   /    \    | | | |  |  | /  /          
                 / \  \   | |__| |  /  /\  \   | |_| |  |  |/  /          
                |  |  |   |  __  | /  /__\  \  |    /   |      \           
                |  |  |   | |  | | |   __   |  |    \   |  |\   \          
                \     /   | |  | | |  |  |  |  | |\  \  |  | \   \       
                 \___/    |_|  |_| |__|  |__|  |_| \__\ |__|  \__/        
                                                                              
                      - O R C A' S   B I G   F R I E N D -                    
                                      &                                       
                       - I N T E G R A L  F E E D E R -                       
                                                                              
 v1 FN, 2020, v2 2021                                                         
------------------------------------------------------------------------------


Reading SHARK input file 11_deprot.SHARKINP.tmp ... ok
----------------------
SHARK INTEGRAL PACKAGE
----------------------

Number of atoms                             ...     19
Number of basis functions                   ...    289
Number of shells                            ...    125
Maximum angular momentum                    ...      3
Integral batch strategy                     ... SHARK/LIBINT Hybrid
RI-J (if used) integral strategy            ... SPLIT-RIJ (Revised 2003 algorithm where possible)
Printlevel                                  ...      1
Contraction scheme used                     ... SEGMENTED contraction
Coulomb Range Separation                    ... NOT USED
Exchange Range Separation                   ... Long Range
   Mu parameter                             ...  0.300000
   Scaling (regular/separated)              ...  0.157706  0.842294
Finite Nucleus Model                        ... NOT USED
Auxiliary Coulomb fitting basis             ... AVAILABLE
   # of basis functions in Aux-J            ...    475
   # of shells in Aux-J                     ...    165
   Maximum angular momentum in Aux-J        ...      4
Auxiliary J/K fitting basis                 ... NOT available
Auxiliary Correlation fitting basis         ... NOT available
Auxiliary 'external' fitting basis          ... NOT available
Integral threshold                          ...     2.500000e-11
Primitive cut-off                           ...     2.500000e-12
Primitive pair pre-selection threshold      ...     2.500000e-12

Calculating pre-screening integrals         ... done (  0.1 sec) Dimension = 125
Organizing shell pair data                  ... done (  0.1 sec)
Shell pair information
Total number of shell pairs                 ...      7875
Shell pairs after pre-screening             ...      7200
Total number of primitive shell pairs       ...     22768
Primitive shell pairs kept                  ...     15898
          la=0 lb=0:   2258 shell pairs
          la=1 lb=0:   2149 shell pairs
          la=1 lb=1:    517 shell pairs
          la=2 lb=0:    936 shell pairs
          la=2 lb=1:    436 shell pairs
          la=2 lb=2:    102 shell pairs
          la=3 lb=0:    457 shell pairs
          la=3 lb=1:    221 shell pairs
          la=3 lb=2:     96 shell pairs
          la=3 lb=3:     28 shell pairs

Calculating one electron integrals          ... done (  0.0 sec)
Calculating RI/J V-Matrix + Cholesky decomp.... done (  0.0 sec)
Calculating Nuclear repulsion               ... done (  0.0 sec) ENN=    321.113754191319 Eh

SHARK setup successfully completed in   0.3 seconds

Maximum memory used throughout the entire GTOINT-calculation: 20.4 MB


           ************************************************************
           *        Program running with 4 parallel MPI-processes     *
           *              working on a common directory               *
           ************************************************************
-------------------------------------------------------------------------------
                                 ORCA SCF
-------------------------------------------------------------------------------

------------
SCF SETTINGS
------------
Hamiltonian:
 Density Functional     Method          .... DFT(GTOs)
 Exchange Functional    Exchange        .... WB97X
 Correlation Functional Correlation     .... WB97X
 Gradients option       PostSCFGGA      .... off
 Hybrid DFT is turned on
   Fraction HF Exchange ScalHFX         ....  0.157706
   Scaling of DF-GGA-X  ScalDFX         ....  0.000000
   Scaling of DF-GGA-C  ScalDFC         ....  1.000000
   Scaling of DF-LDA-C  ScalLDAC        ....  1.000000
   Perturbative correction              ....  0.000000
   Density functional embedding theory  .... OFF
 Long-range corrected/Screened/Range-Separated Hybrid DFT is turned on
   Amount of maximum screened exact exchange              ....  0.842294
   Range separation parameter mu (erf(mu*r12)/r12)        ....  0.300000
 RI-approximation to the Coulomb term is turned on
   Number of AuxJ basis functions       .... 475
   RIJ-COSX (HFX calculated with COS-X)).... on


General Settings:
 Integral files         IntName         .... 11_deprot
 Hartree-Fock type      HFTyp           .... RHF
 Total Charge           Charge          ....    0
 Multiplicity           Mult            ....    1
 Number of Electrons    NEL             ....   56
 Basis Dimension        Dim             ....  289
 Nuclear Repulsion      ENuc            ....    321.1137541913 Eh

Convergence Acceleration:
 DIIS                   CNVDIIS         .... on
   Start iteration      DIISMaxIt       ....     0
   Startup error        DIISStart       ....  0.200000
   # of expansion vecs  DIISMaxEq       ....     5
   Bias factor          DIISBfac        ....   1.050
   Max. coefficient     DIISMaxC        ....  10.000
 Trust-Rad. Augm. Hess. CNVTRAH         .... auto
   Auto Start mean grad. ratio tolernc. ....  1.125000
   Auto Start start iteration           ....    20
   Auto Start num. interpolation iter.  ....    10
   Max. Number of Micro iterations      ....    16
   Max. Number of Macro iterations      .... Maxiter - #DIIS iter
   Number of Davidson start vectors     ....     2
   Converg. threshold I  (grad. norm)   ....   1.000e-05
   Converg. threshold II (energy diff.) ....   1.000e-08
   Grad. Scal. Fac. for Micro threshold ....   0.100
   Minimum threshold for Micro iter.    ....   0.010
   NR start threshold (gradient norm)   ....   0.001
   Initial trust radius                 ....   0.400
   Minimum AH scaling param. (alpha)    ....   1.000
   Maximum AH scaling param. (alpha)    .... 1000.000
   Orbital update algorithm             .... Taylor
   White noise on init. David. guess    .... on
   Maximum white noise                  ....   0.010
   Quad. conv. algorithm                .... NR
 SOSCF                  CNVSOSCF        .... on
   Start iteration      SOSCFMaxIt      ....   150
   Startup grad/error   SOSCFStart      ....  0.001000
 Level Shifting         CNVShift        .... on
   Level shift para.    LevelShift      ....    0.2500
   Turn off err/grad.   ShiftErr        ....    0.0000
 Zerner damping         CNVZerner       .... off
 Static damping         CNVDamp         .... on
   Fraction old density DampFac         ....    0.8500
   Max. Damping (<1)    DampMax         ....    0.9800
   Min. Damping (>=0)   DampMin         ....    0.0000
   Turn off err/grad.   DampErr         ....    0.0300
 Fernandez-Rico         CNVRico         .... off

SCF Procedure:
 Maximum # iterations   MaxIter         ....   125
 SCF integral mode      SCFMode         .... Direct
   Integral package                     .... SHARK and LIBINT hybrid scheme
 Reset frequency        DirectResetFreq ....    20
 Integral Threshold     Thresh          ....  2.500e-11 Eh
 Primitive CutOff       TCut            ....  2.500e-12 Eh

Convergence Tolerance:
 Convergence Check Mode ConvCheckMode   .... Total+1el-Energy
 Convergence forced     ConvForced      .... 0
 Energy Change          TolE            ....  1.000e-08 Eh
 1-El. energy change                    ....  1.000e-05 Eh
 Orbital Gradient       TolG            ....  1.000e-05
 Orbital Rotation angle TolX            ....  1.000e-05
 DIIS Error             TolErr          ....  5.000e-07


Diagonalization of the overlap matrix:
Smallest eigenvalue                        ... 4.020e-04
Time for diagonalization                   ...    0.014 sec
Threshold for overlap eigenvalues          ... 1.000e-08
Number of eigenvalues below threshold      ... 0
Time for construction of square roots      ...    0.009 sec
Total time needed                          ...    0.024 sec

Time for model grid setup =    0.111 sec

------------------------------
INITIAL GUESS: MODEL POTENTIAL
------------------------------
Loading Hartree-Fock densities                     ... done
Calculating cut-offs                               ... done
Initializing the effective Hamiltonian             ... done
Setting up the integral package (SHARK)            ... done
Starting the Coulomb interaction                   ... done (   0.2 sec)
Reading the grid                                   ... done
Mapping shells                                     ... done
Starting the XC term evaluation                    ... done (   0.1 sec)
  promolecular density results
     # of electrons  =     55.989760541
     EX              =    -42.168433750
     EC              =     -1.830744984
     EX+EC           =    -43.999178734
Transforming the Hamiltonian                       ... done (   0.0 sec)
Diagonalizing the Hamiltonian                      ... done (   0.0 sec)
Back transforming the eigenvectors                 ... done (   0.0 sec)
Now organizing SCF variables                       ... done
                      ------------------
                      INITIAL GUESS DONE (   0.5 sec)
                      ------------------
-------------------
DFT GRID GENERATION
-------------------

General Integration Accuracy     IntAcc      ... 4.388
Radial Grid Type                 RadialGrid  ... OptM3 with GC (2021)
Angular Grid (max. ang.)         AngularGrid ... 4 (Lebedev-302)
Angular grid pruning method      GridPruning ... 4 (adaptive)
Weight generation scheme         WeightScheme... Becke
Basis function cutoff            BFCut       ... 1.0000e-11
Integration weight cutoff        WCut        ... 1.0000e-14
Angular grids for H and He will be reduced by one unit
Partially contracted basis set               ... off
Rotationally invariant grid construction     ... off

Total number of grid points                  ...    80736
Total number of batches                      ...     1271
Average number of points per batch           ...       63
Average number of grid points per atom       ...     4249
Time for grid setup =    0.514 sec

--------------------
COSX GRID GENERATION
--------------------

GRIDX 1
-------
General Integration Accuracy     IntAcc      ... 3.816
Radial Grid Type                 RadialGrid  ... OptM3 with GC (2021)
Angular Grid (max. ang.)         AngularGrid ... 1 (Lebedev-50)
Angular grid pruning method      GridPruning ... 4 (adaptive)
Weight generation scheme         WeightScheme... Becke
Basis function cutoff            BFCut       ... 1.0000e-11
Integration weight cutoff        WCut        ... 1.0000e-14
Angular grids for H and He will be reduced by one unit
Partially contracted basis set               ... on
Rotationally invariant grid construction     ... off

Total number of grid points                  ...    10388
Total number of batches                      ...      174
Average number of points per batch           ...       59
Average number of grid points per atom       ...      547
UseSFitting                                  ... on

GRIDX 2
-------
General Integration Accuracy     IntAcc      ... 4.020
Radial Grid Type                 RadialGrid  ... OptM3 with GC (2021)
Angular Grid (max. ang.)         AngularGrid ... 2 (Lebedev-110)
Angular grid pruning method      GridPruning ... 4 (adaptive)
Weight generation scheme         WeightScheme... Becke
Basis function cutoff            BFCut       ... 1.0000e-11
Integration weight cutoff        WCut        ... 1.0000e-14
Angular grids for H and He will be reduced by one unit
Partially contracted basis set               ... on
Rotationally invariant grid construction     ... off

Total number of grid points                  ...    21674
Total number of batches                      ...      347
Average number of points per batch           ...       62
Average number of grid points per atom       ...     1141
UseSFitting                                  ... on

GRIDX 3
-------
General Integration Accuracy     IntAcc      ... 4.338
Radial Grid Type                 RadialGrid  ... OptM3 with GC (2021)
Angular Grid (max. ang.)         AngularGrid ... 3 (Lebedev-194)
Angular grid pruning method      GridPruning ... 4 (adaptive)
Weight generation scheme         WeightScheme... Becke
Basis function cutoff            BFCut       ... 1.0000e-11
Integration weight cutoff        WCut        ... 1.0000e-14
Angular grids for H and He will be reduced by one unit
Partially contracted basis set               ... on
Rotationally invariant grid construction     ... off

Total number of grid points                  ...    47355
Total number of batches                      ...      752
Average number of points per batch           ...       62
Average number of grid points per atom       ...     2492
UseSFitting                                  ... on

Time for X-Grid setup             =    0.627 sec

--------------
SCF ITERATIONS
--------------
ITER       Energy         Delta-E        Max-DP      RMS-DP      [F,P]     Damp
               ***  Starting incremental Fock matrix formation  ***
  0   -307.0249161111   0.000000000000 0.02929475  0.00038521  0.1495950 0.8500
  1   -307.0640952239  -0.039179112780 0.03888817  0.00041433  0.1211655 0.8500
                               ***Turning on DIIS***
  2   -307.0938129663  -0.029717742433 0.03723490  0.00035945  0.0936086 0.8500
  3   -307.1157483700  -0.021935403620 0.03095559  0.00026897  0.0714308 0.8500
  4   -307.1326158468  -0.016867476826 0.02585761  0.00021013  0.0570855 0.8500
  5   -307.1458811615  -0.013265314713 0.02224443  0.00017409  0.0472905 0.8500
  6   -307.1566593497  -0.010778188176 0.01950054  0.00014875  0.0398576 0.8500
  7   -307.1655810195  -0.008921669835 0.01745011  0.00013003  0.0338409 0.8500
  8   -307.1730481532  -0.007467133682 0.10414691  0.00075878  0.0287107 0.0000
  9   -307.2133569117  -0.040308758463 0.00509876  0.00004019  0.0016934 0.0000
                      *** Initiating the SOSCF procedure ***
                           *** Shutting down DIIS ***
                      *** Re-Reading the Fockian *** 
                      *** Removing any level shift *** 
ITER      Energy       Delta-E        Grad      Rot      Max-DP    RMS-DP
 10   -307.21337786  -0.0000209435  0.000350  0.000350  0.003352  0.000024
               *** Restarting incremental Fock matrix formation ***
 11   -307.21341033  -0.0000324795  0.000360  0.000683  0.003680  0.000024
 12   -307.21341164  -0.0000013055  0.000072  0.000293  0.002147  0.000016
 13   -307.21341195  -0.0000003115  0.000036  0.000056  0.000534  0.000004
 14   -307.21341199  -0.0000000412  0.000005  0.000009  0.000054  0.000001
                  ***Gradient check signals convergence***
              ***Rediagonalizing the Fockian in SOSCF/NRSCF***

               *****************************************************
               *                     SUCCESS                       *
               *           SCF CONVERGED AFTER  15 CYCLES          *
               *****************************************************

Old exchange energy                            =    -14.193586647 Eh
New exchange energy                            =    -14.193588471 Eh
Exchange energy change after final integration =     -0.000001824 Eh
Total energy after final integration           =   -307.213413816 Eh
Final COS-X integration done in                =    13.419 sec

----------------
TOTAL SCF ENERGY
----------------

Total Energy       :         -307.21341382 Eh           -8359.70199 eV

Components:
Nuclear Repulsion  :          321.11375419 Eh            8737.94948 eV
Electronic Energy  :         -628.32716801 Eh          -17097.65147 eV
One Electron Energy:        -1049.79520386 Eh          -28566.37978 eV
Two Electron Energy:          421.46803585 Eh           11468.72831 eV
Max COSX asymmetry :            0.00000302 Eh               0.00008 eV

Virial components:
Potential Energy   :         -612.86616164 Eh          -16676.93610 eV
Kinetic Energy     :          305.65274782 Eh            8317.23411 eV
Virial Ratio       :            2.00510601


DFT components:
N(Alpha)           :       28.000067105858 electrons
N(Beta)            :       28.000067105858 electrons
N(Total)           :       56.000134211716 electrons
E(XC)              :      -31.180912119592 Eh       
DFET-embed. en.    :        0.000000000000 Eh       

---------------
SCF CONVERGENCE
---------------

  Last Energy change         ...    4.7214e-10  Tolerance :   1.0000e-08
  Last MAX-Density change    ...    6.6613e-16  Tolerance :   1.0000e-07
  Last RMS-Density change    ...    1.2573e-17  Tolerance :   5.0000e-09
  Last Orbital Gradient      ...    1.9148e-06  Tolerance :   1.0000e-05
  Last Orbital Rotation      ...    5.0635e-06  Tolerance :   1.0000e-05

             **** THE GBW FILE WAS UPDATED (11_deprot.gbw) ****
             **** DENSITY 11_deprot.scfp WAS UPDATED ****
             **** ENERGY FILE WAS UPDATED (11_deprot.en.tmp) ****
             **** THE GBW FILE WAS UPDATED (11_deprot.gbw) ****
             **** DENSITY 11_deprot.scfp WAS UPDATED ****
----------------
ORBITAL ENERGIES
----------------

  NO   OCC          E(Eh)            E(eV) 
   0   2.0000     -14.411576      -392.1589 
   1   2.0000     -14.411558      -392.1584 
   2   2.0000     -10.286261      -279.9034 
   3   2.0000     -10.286259      -279.9033 
   4   2.0000     -10.270313      -279.4694 
   5   2.0000     -10.270311      -279.4694 
   6   2.0000     -10.262027      -279.2440 
   7   2.0000      -1.093209       -29.7477 
   8   2.0000      -1.039210       -28.2783 
   9   2.0000      -0.853774       -23.2324 
  10   2.0000      -0.838883       -22.8272 
  11   2.0000      -0.833274       -22.6745 
  12   2.0000      -0.757785       -20.6204 
  13   2.0000      -0.662038       -18.0150 
  14   2.0000      -0.610702       -16.6180 
  15   2.0000      -0.588364       -16.0102 
  16   2.0000      -0.585305       -15.9269 
  17   2.0000      -0.565415       -15.3857 
  18   2.0000      -0.541023       -14.7220 
  19   2.0000      -0.527733       -14.3603 
  20   2.0000      -0.508958       -13.8494 
  21   2.0000      -0.498175       -13.5560 
  22   2.0000      -0.479936       -13.0597 
  23   2.0000      -0.477488       -12.9931 
  24   2.0000      -0.460300       -12.5254 
  25   2.0000      -0.409567       -11.1449 
  26   2.0000      -0.327486        -8.9114 
  27   2.0000      -0.278451        -7.5770 
  28   0.0000       0.109154         2.9702 
  29   0.0000       0.117270         3.1911 
  30   0.0000       0.136593         3.7169 
  31   0.0000       0.157822         4.2945 
  32   0.0000       0.168361         4.5813 
  33   0.0000       0.179855         4.8941 
  34   0.0000       0.182799         4.9742 
  35   0.0000       0.187589         5.1045 
  36   0.0000       0.197638         5.3780 
  37   0.0000       0.203524         5.5382 
  38   0.0000       0.210726         5.7341 
  39   0.0000       0.216418         5.8890 
  40   0.0000       0.228361         6.2140 
  41   0.0000       0.234378         6.3777 
  42   0.0000       0.240249         6.5375 
  43   0.0000       0.263130         7.1601 
  44   0.0000       0.266681         7.2568 
  45   0.0000       0.272615         7.4182 
  46   0.0000       0.291543         7.9333 
  47   0.0000       0.312234         8.4963 
  48   0.0000       0.315040         8.5727 
  49   0.0000       0.334377         9.0989 
  50   0.0000       0.354440         9.6448 
  51   0.0000       0.380394        10.3510 
  52   0.0000       0.391099        10.6423 
  53   0.0000       0.392577        10.6826 
  54   0.0000       0.412142        11.2150 
  55   0.0000       0.417989        11.3741 
  56   0.0000       0.423517        11.5245 
  57   0.0000       0.450239        12.2516 
  58   0.0000       0.457813        12.4577 
  59   0.0000       0.463706        12.6181 
  60   0.0000       0.476207        12.9582 
  61   0.0000       0.502858        13.6835 
  62   0.0000       0.508916        13.8483 
  63   0.0000       0.511100        13.9077 
  64   0.0000       0.515546        14.0287 
  65   0.0000       0.527565        14.3558 
  66   0.0000       0.540083        14.6964 
  67   0.0000       0.546765        14.8782 
  68   0.0000       0.567964        15.4551 
  69   0.0000       0.570020        15.5110 
  70   0.0000       0.578201        15.7337 
  71   0.0000       0.585880        15.9426 
  72   0.0000       0.586765        15.9667 
  73   0.0000       0.605559        16.4781 
  74   0.0000       0.612474        16.6663 
  75   0.0000       0.627660        17.0795 
  76   0.0000       0.631773        17.1914 
  77   0.0000       0.653786        17.7904 
  78   0.0000       0.673012        18.3136 
  79   0.0000       0.684998        18.6397 
  80   0.0000       0.685234        18.6462 
  81   0.0000       0.715179        19.4610 
  82   0.0000       0.716454        19.4957 
  83   0.0000       0.747444        20.3390 
  84   0.0000       0.763318        20.7710 
  85   0.0000       0.766961        20.8701 
  86   0.0000       0.816999        22.2317 
  87   0.0000       0.834372        22.7044 
  88   0.0000       0.844025        22.9671 
  89   0.0000       0.870503        23.6876 
  90   0.0000       0.954515        25.9737 
  91   0.0000       0.974527        26.5182 
  92   0.0000       0.980557        26.6823 
  93   0.0000       0.988900        26.9093 
  94   0.0000       0.993469        27.0337 
  95   0.0000       1.017853        27.6972 
  96   0.0000       1.023294        27.8452 
  97   0.0000       1.068537        29.0764 
  98   0.0000       1.076235        29.2859 
  99   0.0000       1.082759        29.4634 
 100   0.0000       1.119175        30.4543 
 101   0.0000       1.142150        31.0795 
 102   0.0000       1.163506        31.6606 
 103   0.0000       1.165321        31.7100 
 104   0.0000       1.180238        32.1159 
 105   0.0000       1.183917        32.2160 
 106   0.0000       1.195735        32.5376 
 107   0.0000       1.226539        33.3758 
 108   0.0000       1.255011        34.1506 
 109   0.0000       1.270003        34.5585 
 110   0.0000       1.343116        36.5480 
 111   0.0000       1.394543        37.9474 
 112   0.0000       1.493065        40.6284 
 113   0.0000       1.510368        41.0992 
 114   0.0000       1.514260        41.2051 
 115   0.0000       1.518462        41.3194 
 116   0.0000       1.557404        42.3791 
 117   0.0000       1.559328        42.4315 
 118   0.0000       1.597740        43.4767 
 119   0.0000       1.616080        43.9758 
 120   0.0000       1.617110        44.0038 
 121   0.0000       1.637417        44.5564 
 122   0.0000       1.638462        44.5848 
 123   0.0000       1.645546        44.7776 
 124   0.0000       1.649863        44.8950 
 125   0.0000       1.654029        45.0084 
 126   0.0000       1.655884        45.0589 
 127   0.0000       1.661631        45.2153 
 128   0.0000       1.678999        45.6879 
 129   0.0000       1.694127        46.0995 
 130   0.0000       1.703049        46.3423 
 131   0.0000       1.717398        46.7328 
 132   0.0000       1.745259        47.4909 
 133   0.0000       1.750020        47.6205 
 134   0.0000       1.775020        48.3007 
 135   0.0000       1.786025        48.6002 
 136   0.0000       1.794509        48.8311 
 137   0.0000       1.794923        48.8423 
 138   0.0000       1.806324        49.1526 
 139   0.0000       1.825787        49.6822 
 140   0.0000       1.893774        51.5322 
 141   0.0000       1.912405        52.0392 
 142   0.0000       1.972628        53.6779 
 143   0.0000       1.994352        54.2691 
 144   0.0000       2.021478        55.0072 
 145   0.0000       2.032370        55.3036 
 146   0.0000       2.041388        55.5490 
 147   0.0000       2.097053        57.0637 
 148   0.0000       2.101934        57.1965 
 149   0.0000       2.115093        57.5546 
 150   0.0000       2.125974        57.8507 
 151   0.0000       2.149330        58.4862 
 152   0.0000       2.206152        60.0324 
 153   0.0000       2.206666        60.0464 
 154   0.0000       2.231252        60.7154 
 155   0.0000       2.233648        60.7806 
 156   0.0000       2.293222        62.4017 
 157   0.0000       2.328896        63.3725 
 158   0.0000       2.344049        63.7848 
 159   0.0000       2.367642        64.4268 
 160   0.0000       2.373827        64.5951 
 161   0.0000       2.389787        65.0294 
 162   0.0000       2.410469        65.5922 
 163   0.0000       2.426566        66.0302 
 164   0.0000       2.438530        66.3558 
 165   0.0000       2.451411        66.7063 
 166   0.0000       2.456121        66.8344 
 167   0.0000       2.472850        67.2897 
 168   0.0000       2.494059        67.8668 
 169   0.0000       2.495013        67.8927 
 170   0.0000       2.509172        68.2780 
 171   0.0000       2.525837        68.7315 
 172   0.0000       2.553145        69.4746 
 173   0.0000       2.572075        69.9897 
 174   0.0000       2.602081        70.8062 
 175   0.0000       2.624539        71.4173 
 176   0.0000       2.633716        71.6671 
 177   0.0000       2.646338        72.0105 
 178   0.0000       2.647857        72.0518 
 179   0.0000       2.664799        72.5129 
 180   0.0000       2.665052        72.5197 
 181   0.0000       2.690392        73.2093 
 182   0.0000       2.706145        73.6379 
 183   0.0000       2.760501        75.1171 
 184   0.0000       2.767049        75.2952 
 185   0.0000       2.785944        75.8094 
 186   0.0000       2.795855        76.0791 
 187   0.0000       2.803261        76.2806 
 188   0.0000       2.842678        77.3532 
 189   0.0000       2.863521        77.9204 
 190   0.0000       2.896359        78.8139 
 191   0.0000       2.916422        79.3599 
 192   0.0000       2.970043        80.8190 
 193   0.0000       2.982211        81.1501 
 194   0.0000       3.077415        83.7407 
 195   0.0000       3.118374        84.8553 
 196   0.0000       3.122435        84.9658 
 197   0.0000       3.131582        85.2147 
 198   0.0000       3.152436        85.7822 
 199   0.0000       3.185457        86.6807 
 200   0.0000       3.215245        87.4913 
 201   0.0000       3.218227        87.5724 
 202   0.0000       3.221886        87.6720 
 203   0.0000       3.229005        87.8657 
 204   0.0000       3.280108        89.2563 
 205   0.0000       3.284210        89.3679 
 206   0.0000       3.296130        89.6922 
 207   0.0000       3.311676        90.1153 
 208   0.0000       3.338080        90.8338 
 209   0.0000       3.346478        91.0623 
 210   0.0000       3.352809        91.2346 
 211   0.0000       3.372356        91.7665 
 212   0.0000       3.410781        92.8121 
 213   0.0000       3.412632        92.8624 
 214   0.0000       3.422334        93.1264 
 215   0.0000       3.429955        93.3338 
 216   0.0000       3.445208        93.7489 
 217   0.0000       3.468077        94.3712 
 218   0.0000       3.468962        94.3953 
 219   0.0000       3.507931        95.4556 
 220   0.0000       3.511155        95.5434 
 221   0.0000       3.524412        95.9041 
 222   0.0000       3.549649        96.5909 
 223   0.0000       3.566647        97.0534 
 224   0.0000       3.607129        98.1550 
 225   0.0000       3.607392        98.1621 
 226   0.0000       3.645509        99.1993 
 227   0.0000       3.672499        99.9338 
 228   0.0000       3.686555       100.3163 
 229   0.0000       3.700461       100.6946 
 230   0.0000       3.715462       101.1029 
 231   0.0000       3.748998       102.0154 
 232   0.0000       3.766922       102.5032 
 233   0.0000       3.777630       102.7945 
 234   0.0000       3.812788       103.7512 
 235   0.0000       3.832886       104.2981 
 236   0.0000       3.875473       105.4570 
 237   0.0000       3.937450       107.1435 
 238   0.0000       3.960538       107.7717 
 239   0.0000       4.033180       109.7484 
 240   0.0000       4.064771       110.6080 
 241   0.0000       4.149176       112.9048 
 242   0.0000       4.199185       114.2656 
 243   0.0000       4.199827       114.2831 
 244   0.0000       4.216072       114.7251 
 245   0.0000       4.242955       115.4567 
 246   0.0000       4.280794       116.4863 
 247   0.0000       4.316031       117.4452 
 248   0.0000       4.345836       118.2562 
 249   0.0000       4.351192       118.4019 
 250   0.0000       4.380757       119.2064 
 251   0.0000       4.434123       120.6586 
 252   0.0000       4.447030       121.0098 
 253   0.0000       4.483162       121.9930 
 254   0.0000       4.509710       122.7155 
 255   0.0000       4.531414       123.3060 
 256   0.0000       4.546804       123.7248 
 257   0.0000       4.721922       128.4900 
 258   0.0000       4.925726       134.0358 
 259   0.0000       4.932433       134.2183 
 260   0.0000       5.014677       136.4563 
 261   0.0000       5.063998       137.7984 
 262   0.0000       5.177937       140.8988 
 263   0.0000       5.179657       140.9456 
 264   0.0000       5.211539       141.8132 
 265   0.0000       5.242497       142.6556 
 266   0.0000       5.260450       143.1441 
 267   0.0000       5.264308       143.2491 
 268   0.0000       5.283906       143.7824 
 269   0.0000       5.319836       144.7601 
 270   0.0000       5.398929       146.9123 
 271   0.0000       5.439844       148.0257 
 272   0.0000       5.459007       148.5471 
 273   0.0000       5.466180       148.7423 
 274   0.0000       5.661982       154.0704 
 275   0.0000       5.672392       154.3536 
 276   0.0000       5.792203       157.6139 
 277   0.0000       5.798832       157.7943 
 278   0.0000       5.926185       161.2597 
 279   0.0000       5.942756       161.7106 
 280   0.0000       6.000219       163.2742 
 281   0.0000       6.175159       168.0346 
 282   0.0000      22.400411       609.5462 
 283   0.0000      22.404095       609.6464 
 284   0.0000      22.495841       612.1430 
 285   0.0000      22.500682       612.2747 
 286   0.0000      22.804549       620.5433 
 287   0.0000      32.779106       891.9648 
 288   0.0000      32.792615       892.3324 

                    ********************************
                    * MULLIKEN POPULATION ANALYSIS *
                    ********************************

-----------------------
MULLIKEN ATOMIC CHARGES
-----------------------
   0 C :   -0.199122
   1 N :   -0.094583
   2 N :   -0.094585
   3 C :   -0.321527
   4 C :   -0.321530
   5 H :    0.125332
   6 H :    0.125336
   7 H :    0.137561
   8 H :    0.137561
   9 H :    0.133445
  10 H :    0.133446
  11 C :   -0.242209
  12 C :   -0.242216
  13 H :    0.146489
  14 H :    0.146491
  15 H :    0.104111
  16 H :    0.104113
  17 H :    0.110944
  18 H :    0.110945
Sum of atomic charges:    0.0000000

--------------------------------
MULLIKEN REDUCED ORBITAL CHARGES
--------------------------------
  0 C s       :     3.664595  s :     3.664595
      pz      :     1.203597  p :     2.408671
      px      :     0.572685
      py      :     0.632389
      dz2     :     0.012376  d :     0.111703
      dxz     :     0.017650
      dyz     :     0.031471
      dx2y2   :     0.003804
      dxy     :     0.046402
      f0      :     0.000933  f :     0.014154
      f+1     :     0.000066
      f-1     :     0.003455
      f+2     :     0.002025
      f-2     :     0.003499
      f+3     :     0.002817
      f-3     :     0.001358
  1 N s       :     3.401864  s :     3.401864
      pz      :     1.020051  p :     3.598498
      px      :     1.529222
      py      :     1.049225
      dz2     :     0.024479  d :     0.089074
      dxz     :     0.010731
      dyz     :     0.030071
      dx2y2   :     0.011543
      dxy     :     0.012250
      f0      :     0.000613  f :     0.005147
      f+1     :     0.000534
      f-1     :     0.001330
      f+2     :     0.000741
      f-2     :     0.000509
      f+3     :     0.000697
      f-3     :     0.000724
  2 N s       :     3.401865  s :     3.401865
      pz      :     1.020057  p :     3.598499
      px      :     1.529223
      py      :     1.049220
      dz2     :     0.024480  d :     0.089074
      dxz     :     0.010731
      dyz     :     0.030071
      dx2y2   :     0.011542
      dxy     :     0.012250
      f0      :     0.000613  f :     0.005147
      f+1     :     0.000534
      f-1     :     0.001330
      f+2     :     0.000741
      f-2     :     0.000509
      f+3     :     0.000697
      f-3     :     0.000724
  3 C s       :     3.294617  s :     3.294617
      pz      :     0.815656  p :     2.949134
      px      :     1.045633
      py      :     1.087845
      dz2     :     0.016466  d :     0.072674
      dxz     :     0.027048
      dyz     :     0.014055
      dx2y2   :     0.003093
      dxy     :     0.012014
      f0      :     0.001634  f :     0.005102
      f+1     :     0.001448
      f-1     :     0.001028
      f+2     :     0.000312
      f-2     :     0.000347
      f+3     :     0.000365
      f-3     :    -0.000032
  4 C s       :     3.294617  s :     3.294617
      pz      :     0.815655  p :     2.949136
      px      :     1.045635
      py      :     1.087846
      dz2     :     0.016466  d :     0.072675
      dxz     :     0.027048
      dyz     :     0.014055
      dx2y2   :     0.003093
      dxy     :     0.012013
      f0      :     0.001634  f :     0.005102
      f+1     :     0.001448
      f-1     :     0.001028
      f+2     :     0.000312
      f-2     :     0.000347
      f+3     :     0.000365
      f-3     :    -0.000032
  5 H s       :     0.852720  s :     0.852720
      pz      :     0.003488  p :     0.021948
      px      :     0.007138
      py      :     0.011322
  6 H s       :     0.852717  s :     0.852717
      pz      :     0.003488  p :     0.021948
      px      :     0.007138
      py      :     0.011322
  7 H s       :     0.840325  s :     0.840325
      pz      :     0.004985  p :     0.022114
      px      :     0.007429
      py      :     0.009700
  8 H s       :     0.840325  s :     0.840325
      pz      :     0.004985  p :     0.022114
      px      :     0.007429
      py      :     0.009700
  9 H s       :     0.845164  s :     0.845164
      pz      :     0.007484  p :     0.021390
      px      :     0.009760
      py      :     0.004146
 10 H s       :     0.845164  s :     0.845164
      pz      :     0.007484  p :     0.021390
      px      :     0.009760
      py      :     0.004146
 11 C s       :     3.274447  s :     3.274447
      pz      :     1.012163  p :     2.891673
      px      :     1.034786
      py      :     0.844724
      dz2     :     0.015309  d :     0.070768
      dxz     :     0.007157
      dyz     :     0.011358
      dx2y2   :     0.005666
      dxy     :     0.031279
      f0      :     0.000572  f :     0.005321
      f+1     :    -0.000010
      f-1     :     0.001334
      f+2     :     0.000587
      f-2     :     0.001113
      f+3     :     0.000816
      f-3     :     0.000908
 12 C s       :     3.274454  s :     3.274454
      pz      :     1.012163  p :     2.891670
      px      :     1.034787
      py      :     0.844721
      dz2     :     0.015311  d :     0.070770
      dxz     :     0.007157
      dyz     :     0.011358
      dx2y2   :     0.005666
      dxy     :     0.031279
      f0      :     0.000572  f :     0.005321
      f+1     :    -0.000010
      f-1     :     0.001334
      f+2     :     0.000587
      f-2     :     0.001114
      f+3     :     0.000816
      f-3     :     0.000909
 13 H s       :     0.831017  s :     0.831017
      pz      :     0.013793  p :     0.022495
      px      :     0.004259
      py      :     0.004442
 14 H s       :     0.831014  s :     0.831014
      pz      :     0.013793  p :     0.022495
      px      :     0.004259
      py      :     0.004442
 15 H s       :     0.874767  s :     0.874767
      pz      :     0.003623  p :     0.021123
      px      :     0.010421
      py      :     0.007079
 16 H s       :     0.874765  s :     0.874765
      pz      :     0.003623  p :     0.021122
      px      :     0.010421
      py      :     0.007079
 17 H s       :     0.868123  s :     0.868123
      pz      :     0.004497  p :     0.020932
      px      :     0.009912
      py      :     0.006524
 18 H s       :     0.868122  s :     0.868122
      pz      :     0.004497  p :     0.020932
      px      :     0.009912
      py      :     0.006523


                     *******************************
                     * LOEWDIN POPULATION ANALYSIS *
                     *******************************

----------------------
LOEWDIN ATOMIC CHARGES
----------------------
   0 C :   -0.363631
   1 N :    0.095621
   2 N :    0.095621
   3 C :   -0.306878
   4 C :   -0.306879
   5 H :    0.118985
   6 H :    0.118985
   7 H :    0.122138
   8 H :    0.122138
   9 H :    0.110944
  10 H :    0.110944
  11 C :   -0.300857
  12 C :   -0.300858
  13 H :    0.125242
  14 H :    0.125242
  15 H :    0.107201
  16 H :    0.107201
  17 H :    0.109420
  18 H :    0.109421

-------------------------------
LOEWDIN REDUCED ORBITAL CHARGES
-------------------------------
  0 C s       :     2.996513  s :     2.996513
      pz      :     1.309187  p :     2.769306
      px      :     0.600314
      py      :     0.859805
      dz2     :     0.069889  d :     0.515071
      dxz     :     0.029410
      dyz     :     0.143590
      dx2y2   :     0.114712
      dxy     :     0.157469
      f0      :     0.006528  f :     0.082741
      f+1     :     0.000144
      f-1     :     0.022821
      f+2     :     0.013245
      f-2     :     0.020972
      f+3     :     0.009785
      f-3     :     0.009247
  1 N s       :     2.892033  s :     2.892033
      pz      :     1.156768  p :     3.673283
      px      :     1.342192
      py      :     1.174324
      dz2     :     0.085882  d :     0.318212
      dxz     :     0.034778
      dyz     :     0.120285
      dx2y2   :     0.039474
      dxy     :     0.037794
      f0      :     0.002224  f :     0.020851
      f+1     :     0.001912
      f-1     :     0.007859
      f+2     :     0.002585
      f-2     :     0.002284
      f+3     :     0.001740
      f-3     :     0.002247
  2 N s       :     2.892032  s :     2.892032
      pz      :     1.156768  p :     3.673283
      px      :     1.342192
      py      :     1.174324
      dz2     :     0.085882  d :     0.318213
      dxz     :     0.034778
      dyz     :     0.120285
      dx2y2   :     0.039474
      dxy     :     0.037794
      f0      :     0.002224  f :     0.020851
      f+1     :     0.001912
      f-1     :     0.007859
      f+2     :     0.002585
      f-2     :     0.002284
      f+3     :     0.001740
      f-3     :     0.002247
  3 C s       :     2.837578  s :     2.837578
      pz      :     0.932509  p :     3.096280
      px      :     1.079922
      py      :     1.083849
      dz2     :     0.090044  d :     0.334213
      dxz     :     0.112838
      dyz     :     0.059507
      dx2y2   :     0.016790
      dxy     :     0.055035
      f0      :     0.010552  f :     0.038808
      f+1     :     0.007861
      f-1     :     0.008738
      f+2     :     0.005405
      f-2     :     0.002669
      f+3     :     0.002850
      f-3     :     0.000732
  4 C s       :     2.837578  s :     2.837578
      pz      :     0.932509  p :     3.096280
      px      :     1.079922
      py      :     1.083849
      dz2     :     0.090044  d :     0.334214
      dxz     :     0.112838
      dyz     :     0.059507
      dx2y2   :     0.016790
      dxy     :     0.055035
      f0      :     0.010552  f :     0.038808
      f+1     :     0.007861
      f-1     :     0.008738
      f+2     :     0.005405
      f-2     :     0.002669
      f+3     :     0.002850
      f-3     :     0.000732
  5 H s       :     0.821646  s :     0.821646
      pz      :     0.009738  p :     0.059369
      px      :     0.019899
      py      :     0.029731
  6 H s       :     0.821646  s :     0.821646
      pz      :     0.009738  p :     0.059369
      px      :     0.019899
      py      :     0.029731
  7 H s       :     0.816806  s :     0.816806
      pz      :     0.013335  p :     0.061056
      px      :     0.020947
      py      :     0.026773
  8 H s       :     0.816806  s :     0.816806
      pz      :     0.013335  p :     0.061056
      px      :     0.020947
      py      :     0.026773
  9 H s       :     0.829504  s :     0.829504
      pz      :     0.019476  p :     0.059552
      px      :     0.026747
      py      :     0.013329
 10 H s       :     0.829504  s :     0.829504
      pz      :     0.019476  p :     0.059552
      px      :     0.026747
      py      :     0.013329
 11 C s       :     2.843160  s :     2.843160
      pz      :     1.044387  p :     3.085586
      px      :     1.078929
      py      :     0.962270
      dz2     :     0.077796  d :     0.332462
      dxz     :     0.025109
      dyz     :     0.063232
      dx2y2   :     0.038457
      dxy     :     0.127867
      f0      :     0.003446  f :     0.039650
      f+1     :     0.002035
      f-1     :     0.008141
      f+2     :     0.007494
      f-2     :     0.007810
      f+3     :     0.004499
      f-3     :     0.006225
 12 C s       :     2.843160  s :     2.843160
      pz      :     1.044387  p :     3.085586
      px      :     1.078929
      py      :     0.962270
      dz2     :     0.077797  d :     0.332462
      dxz     :     0.025109
      dyz     :     0.063232
      dx2y2   :     0.038457
      dxy     :     0.127867
      f0      :     0.003446  f :     0.039650
      f+1     :     0.002035
      f-1     :     0.008141
      f+2     :     0.007494
      f-2     :     0.007810
      f+3     :     0.004499
      f-3     :     0.006225
 13 H s       :     0.813119  s :     0.813119
      pz      :     0.035846  p :     0.061639
      px      :     0.013192
      py      :     0.012601
 14 H s       :     0.813119  s :     0.813119
      pz      :     0.035846  p :     0.061639
      px      :     0.013192
      py      :     0.012601
 15 H s       :     0.834268  s :     0.834268
      pz      :     0.011778  p :     0.058531
      px      :     0.028276
      py      :     0.018477
 16 H s       :     0.834268  s :     0.834268
      pz      :     0.011778  p :     0.058531
      px      :     0.028276
      py      :     0.018477
 17 H s       :     0.832016  s :     0.832016
      pz      :     0.014556  p :     0.058564
      px      :     0.026745
      py      :     0.017263
 18 H s       :     0.832016  s :     0.832016
      pz      :     0.014556  p :     0.058564
      px      :     0.026745
      py      :     0.017263


                      *****************************
                      * MAYER POPULATION ANALYSIS *
                      *****************************

  NA   - Mulliken gross atomic population
  ZA   - Total nuclear charge
  QA   - Mulliken gross atomic charge
  VA   - Mayer's total valence
  BVA  - Mayer's bonded valence
  FA   - Mayer's free valence

  ATOM       NA         ZA         QA         VA         BVA        FA
  0 C      6.1991     6.0000    -0.1991     2.5351     2.5351     0.0000
  1 N      7.0946     7.0000    -0.0946     3.0056     3.0056     0.0000
  2 N      7.0946     7.0000    -0.0946     3.0056     3.0056     0.0000
  3 C      6.3215     6.0000    -0.3215     3.8868     3.8868    -0.0000
  4 C      6.3215     6.0000    -0.3215     3.8868     3.8868    -0.0000
  5 H      0.8747     1.0000     0.1253     0.9695     0.9695    -0.0000
  6 H      0.8747     1.0000     0.1253     0.9695     0.9695    -0.0000
  7 H      0.8624     1.0000     0.1376     0.9499     0.9499     0.0000
  8 H      0.8624     1.0000     0.1376     0.9499     0.9499     0.0000
  9 H      0.8666     1.0000     0.1334     0.9528     0.9528     0.0000
 10 H      0.8666     1.0000     0.1334     0.9528     0.9528    -0.0000
 11 C      6.2422     6.0000    -0.2422     3.8221     3.8221     0.0000
 12 C      6.2422     6.0000    -0.2422     3.8221     3.8221     0.0000
 13 H      0.8535     1.0000     0.1465     0.9959     0.9959     0.0000
 14 H      0.8535     1.0000     0.1465     0.9959     0.9959     0.0000
 15 H      0.8959     1.0000     0.1041     0.9637     0.9637     0.0000
 16 H      0.8959     1.0000     0.1041     0.9637     0.9637     0.0000
 17 H      0.8891     1.0000     0.1109     0.9556     0.9556    -0.0000
 18 H      0.8891     1.0000     0.1109     0.9556     0.9556    -0.0000

  Mayer bond orders larger than 0.100000
B(  0-C ,  1-N ) :   1.2123 B(  0-C ,  2-N ) :   1.2123 B(  1-N ,  3-C ) :   0.8943 
B(  1-N , 11-C ) :   0.9287 B(  2-N ,  4-C ) :   0.8943 B(  2-N , 12-C ) :   0.9287 
B(  3-C ,  5-H ) :   0.9747 B(  3-C ,  7-H ) :   0.9714 B(  3-C ,  9-H ) :   0.9738 
B(  4-C ,  6-H ) :   0.9747 B(  4-C ,  8-H ) :   0.9714 B(  4-C , 10-H ) :   0.9738 
B( 11-C , 13-H ) :   0.9782 B( 11-C , 15-H ) :   0.9749 B( 11-C , 17-H ) :   0.9700 
B( 12-C , 14-H ) :   0.9782 B( 12-C , 16-H ) :   0.9749 B( 12-C , 18-H ) :   0.9700 


-------
TIMINGS
-------

Total SCF time: 0 days 0 hours 1 min 31 sec 

Total time                  ....      91.297 sec
Sum of individual times     ....      90.789 sec  ( 99.4%)

Fock matrix formation       ....      88.689 sec  ( 97.1%)
  Split-RI-J                ....       4.098 sec  (  4.6% of F)
  Chain of spheres X        ....      74.974 sec  ( 84.5% of F)
  XC integration            ....       9.293 sec  ( 10.5% of F)
    Basis function eval.    ....       2.218 sec  ( 23.9% of XC)
    Density eval.           ....       2.199 sec  ( 23.7% of XC)
    XC-Functional eval.     ....       0.762 sec  (  8.2% of XC)
    XC-Potential eval.      ....       3.009 sec  ( 32.4% of XC)
Diagonalization             ....       0.214 sec  (  0.2%)
Density matrix formation    ....       0.034 sec  (  0.0%)
Population analysis         ....       0.022 sec  (  0.0%)
Initial guess               ....       0.346 sec  (  0.4%)
Orbital Transformation      ....       0.000 sec  (  0.0%)
Orbital Orthonormalization  ....       0.000 sec  (  0.0%)
DIIS solution               ....       0.139 sec  (  0.2%)
SOSCF solution              ....       0.093 sec  (  0.1%)
Grid generation             ....       1.253 sec  (  1.4%)

Maximum memory used throughout the entire SCF-calculation: 79.3 MB


-------------------------------------------------------------------------------
                          DFT DISPERSION CORRECTION                            
                                                                               
                                 DFTD4 V2.5                                    
-------------------------------------------------------------------------------
The WB97X functional is recognized
Active option DFTDOPT                   ...         5   

Starting D4
-------------------------   ----------------
Dispersion correction           -0.002178366
-------------------------   ----------------


-------------------------   --------------------
FINAL SINGLE POINT ENERGY      -307.215592182562
-------------------------   --------------------



           ************************************************************
           *        Program running with 4 parallel MPI-processes     *
           *              working on a common directory               *
           ************************************************************
------------------------------------------------------------------------------
                         ORCA SCF GRADIENT CALCULATION
------------------------------------------------------------------------------

 ... reading COSX grid (gridx3)
Gradient of the Kohn-Sham DFT energy:
Kohn-Sham wavefunction type      ... RKS
Hartree-Fock exchange scaling    ...    0.158
Number of operators              ...    1
Number of atoms                  ...   19
Basis set dimensions             ...  289
Integral neglect threshold       ... 2.5e-11
Integral primitive cutoff        ... 2.5e-12
SHARK Integral package           ... ON

Nuc. rep. gradient       (SHARK) ... done (  0.0 sec)
HCore & Overlap gradient (SHARK) ... done (  0.2 sec)
RI-J gradient            (SHARK) ... done (  1.0 sec)
COSX-gradient                    ... done ( 15.2 sec)
Exchange-correlation gradient    ... done
Dispersion correction            ... Starting D4
Starting D4
Starting D4
Starting D4


------------------- 
Dispersion Gradient 
------------------- 
   1  :   -0.000000000   -0.000000000    0.000009788
   2  :   -0.000000492    0.000017944   -0.000000216
   3  :    0.000000492   -0.000017944   -0.000000216
   4  :    0.000008277    0.000025484   -0.000032635
   5  :   -0.000008277   -0.000025484   -0.000032635
   6  :    0.000000000    0.000005832   -0.000000861
   7  :   -0.000000000   -0.000005832   -0.000000861
   8  :   -0.000001172    0.000006560    0.000000681
   9  :    0.000001172   -0.000006560    0.000000681
  10  :    0.000002047    0.000006657   -0.000000680
  11  :   -0.000002047   -0.000006657   -0.000000680
  12  :   -0.000003267    0.000046014    0.000019303
  13  :    0.000003267   -0.000046014    0.000019303
  14  :   -0.000000431    0.000009335    0.000002513
  15  :    0.000000431   -0.000009335    0.000002513
  16  :   -0.000001538    0.000006701    0.000003232
  17  :    0.000001538   -0.000006701    0.000003232
  18  :    0.000000547    0.000007111    0.000003769
  19  :   -0.000000547   -0.000007111    0.000003769

  |G| =    0.000083432

done

------------------
CARTESIAN GRADIENT
------------------

   1   C   :    0.000000009   -0.000000076    0.005108857
   2   N   :    0.000677232    0.003152536   -0.001787929
   3   N   :   -0.000677088   -0.003152905   -0.001787868
   4   C   :   -0.002976677   -0.001108010    0.006373179
   5   C   :    0.002976668    0.001108019    0.006373533
   6   H   :    0.003374161    0.004879996   -0.000724660
   7   H   :   -0.003374178   -0.004880005   -0.000724683
   8   H   :    0.003826760   -0.004290211   -0.002476201
   9   H   :   -0.003826885    0.004290302   -0.002476266
  10   H   :   -0.004476365    0.000949379   -0.004382449
  11   H   :    0.004476501   -0.000949359   -0.004382425
  12   C   :    0.000742615   -0.004549944   -0.004197850
  13   C   :   -0.000743396    0.004550552   -0.004198118
  14   H   :   -0.001106777   -0.001774960    0.006066492
  15   H   :    0.001106769    0.001774908    0.006066542
  16   H   :    0.004646417    0.003842115    0.000228308
  17   H   :   -0.004645993   -0.003842068    0.000228452
  18   H   :   -0.004567987    0.003627581   -0.001595320
  19   H   :    0.004568251   -0.003627898   -0.001595514

Difference to translation invariance:
           :    0.0000000364   -0.0000000498    0.0001160799

Difference to rotation invariance:
           :    0.0000002459    0.0000003157    0.0012557324

Norm of the cartesian gradient     ...    0.0262845226
RMS gradient                       ...    0.0034814701
MAX gradient                       ...    0.0063735334

-------
TIMINGS
-------

Total SCF gradient time            ...       19.993 sec

One electron gradient       ....       0.210 sec  (  1.1%)
RI-J Coulomb gradient       ....       0.973 sec  (  4.9%)
COSX gradient               ....      15.218 sec  ( 76.1%)
XC gradient                 ....       2.829 sec  ( 14.1%)

Maximum memory used throughout the entire SCFGRAD-calculation: 51.3 MB
------------------------------------------------------------------------------
                         ORCA GEOMETRY RELAXATION STEP
------------------------------------------------------------------------------

Reading the OPT-File                    .... done
Getting information on internals        .... done
Copying old internal coords+grads       .... done
Making the new internal coordinates     .... (new redundants).... done
Validating the new internal coordinates .... (new redundants).... done
Calculating the B-matrix                .... done
Calculating the G,G- and P matrices     .... done
Transforming gradient to internals      .... done
Projecting the internal gradient        .... done
Number of atoms                         ....  19
Number of internal coordinates          ....  77
Current Energy                          ....  -307.215592183 Eh
Current gradient norm                   ....     0.026284523 Eh/bohr
Maximum allowed component of the step   ....  0.300
[...]
     51      -0.024596   0.134044   0.155433  -0.296537  -0.291709  -0.030025
     52      -0.062645   0.185218   0.287048   0.199146   0.196479   0.020613
     53      -0.057555  -0.010320   0.117240  -0.142392  -0.139905  -0.013242
     54      -0.024652  -0.134044   0.155436  -0.296484   0.291771  -0.030029
     55      -0.062720  -0.185221   0.287055   0.199107  -0.196518   0.020616
     56       0.057557  -0.010322  -0.117239   0.142365  -0.139932   0.013244
                 48         49         50         51         52         53    
      0       0.000000  -0.000000  -0.000553  -0.000000   0.000550  -0.000177
      1       0.000000  -0.000000  -0.000353  -0.000000   0.000233  -0.000366
      2      -0.000992  -0.000160   0.000000   0.000401   0.000000   0.000000
      3      -0.000746   0.000224   0.000249  -0.000213  -0.000214  -0.000207
      4      -0.000745  -0.000096  -0.000164   0.000063   0.000117   0.000010
      5       0.001027   0.000080   0.000011  -0.000020   0.000208   0.000167
      6       0.000746  -0.000224   0.000249   0.000213  -0.000214  -0.000207
      7       0.000745   0.000096  -0.000164  -0.000063   0.000117   0.000010
      8       0.001027   0.000080  -0.000011  -0.000020  -0.000208  -0.000167
      9       0.011136  -0.005486  -0.003705   0.054938   0.052726   0.034717
     10      -0.018097  -0.003302  -0.002431   0.029841   0.033860  -0.053009
     11       0.032774  -0.001511  -0.001134   0.016022   0.017143  -0.011072
     12      -0.011136   0.005486  -0.003706  -0.054943   0.052720   0.034722
     13       0.018096   0.003301  -0.002431  -0.029844   0.033857  -0.053017
     14       0.032773  -0.001511   0.001134   0.016024  -0.017141   0.011074
     15       0.199636   0.032833   0.023291  -0.308683  -0.317173   0.089292
     16       0.290257   0.051996   0.037031  -0.488300  -0.497926   0.117959
     17       0.003175  -0.001955  -0.002022   0.001793   0.002299   0.000117
     18      -0.199624  -0.032830   0.023298   0.308716  -0.317139   0.089308
     19      -0.290242  -0.051991   0.037041   0.488354  -0.497875   0.117981
     20       0.003174  -0.001955   0.002023   0.001794  -0.002299  -0.000117
     21       0.115781   0.004087   0.001204  -0.040043  -0.011928  -0.370842
     22      -0.147031  -0.006513  -0.002053   0.078577   0.035967   0.505649
     23      -0.062483  -0.003084  -0.001018   0.037347   0.018962   0.229461
     24      -0.115774  -0.004087   0.001205   0.040045  -0.011924  -0.370900
     25       0.147022   0.006513  -0.002054  -0.078581   0.035959   0.505726
     26      -0.062479  -0.003084   0.001018   0.037350  -0.018958  -0.229495
     27      -0.444522   0.028257   0.020309  -0.299967  -0.295672  -0.130590
     28       0.067126  -0.004941  -0.003482   0.058956   0.058362   0.007536
     29      -0.338382   0.024329   0.017957  -0.232452  -0.227776  -0.101841
     30       0.444499  -0.028255   0.020315   0.299998  -0.295640  -0.130602
     31      -0.067121   0.004940  -0.003483  -0.058961   0.058355   0.007536
     32      -0.338364   0.024327  -0.017962  -0.232476   0.227751   0.101851
     33      -0.001511  -0.063208  -0.063368  -0.006735  -0.005027   0.000586
     34      -0.007435   0.006252   0.006309   0.000671   0.000217   0.000832
     35      -0.000940  -0.013502  -0.013536  -0.000481   0.000079  -0.001823
     36       0.001511   0.063196  -0.063380   0.006736  -0.005027   0.000586
     37       0.007434  -0.006250   0.006310  -0.000671   0.000217   0.000832
     38      -0.000940  -0.013500   0.013538  -0.000481  -0.000079   0.001823
     39      -0.008479  -0.003728  -0.003877   0.000435   0.000820  -0.004883
     40      -0.009436   0.012880   0.012730   0.002732   0.003035  -0.006106
     41       0.036659  -0.046786  -0.046829  -0.014310  -0.014284   0.022072
     42       0.008479   0.003728  -0.003878  -0.000435   0.000820  -0.004883
     43       0.009436  -0.012877   0.012732  -0.002732   0.003035  -0.006107
     44       0.036659  -0.046776   0.046836  -0.014311   0.014282  -0.022072
     45       0.089405   0.332093   0.332862   0.031462   0.023074  -0.001194
     46       0.058922   0.226849   0.227299   0.019461   0.013729  -0.000281
     47      -0.000105  -0.014349  -0.014522  -0.003814  -0.003376   0.000571
     48      -0.089403  -0.332031   0.332925  -0.031465   0.023073  -0.001194
     49      -0.058921  -0.226810   0.227346  -0.019463   0.013728  -0.000281
     50      -0.000106  -0.014348   0.014526  -0.003814   0.003376  -0.000571
     51      -0.058810   0.424140   0.425272   0.045948   0.032222   0.001496
     52       0.040707  -0.312565  -0.313361  -0.032525  -0.022231  -0.000989
     53      -0.026550   0.220574   0.221089   0.024139   0.016996   0.001473
     54       0.058809  -0.424062   0.425353  -0.045953   0.032219   0.001496
     55      -0.040706   0.312501  -0.313415   0.032528  -0.022229  -0.000989
     56      -0.026549   0.220529  -0.221127   0.024141  -0.016994  -0.001473
                 54         55         56    
      0      -0.000000   0.000000   0.000145
      1      -0.000000  -0.000001  -0.001045
      2      -0.000456   0.000137  -0.000000
      3      -0.000284  -0.000087  -0.000140
      4      -0.000368  -0.000623  -0.000498
      5       0.000239   0.000190   0.000554
      6       0.000284   0.000087  -0.000140
      7       0.000368   0.000623  -0.000498
      8       0.000239   0.000190  -0.000555
      9       0.030781  -0.000413   0.000505
     10      -0.053764  -0.000509  -0.002276
     11      -0.013970  -0.000358  -0.000783
     12      -0.030776   0.000413   0.000505
     13       0.053756   0.000506  -0.002276
     14      -0.013968  -0.000357   0.000783
     15       0.104115   0.004739   0.008111
     16       0.143940   0.006187   0.010929
     17       0.002207  -0.001537  -0.001165
     18      -0.104101  -0.004728   0.008117
     19      -0.143923  -0.006173   0.010936
     20       0.002207  -0.001535   0.001167
     21      -0.375640   0.000085  -0.011526
     22       0.509484   0.000705   0.016154
     23       0.228936   0.000293   0.007264
     24       0.375586  -0.000100  -0.011525
     25      -0.509406  -0.000684   0.016154
     26       0.228901   0.000284  -0.007263
     27      -0.081709   0.002719  -0.000147
     28       0.003738  -0.000366  -0.000666
     29      -0.068446   0.001553  -0.000285
     30       0.081689  -0.002719  -0.000143
     31      -0.003737   0.000365  -0.000666
     32      -0.068430   0.001553   0.000283
     33       0.000396  -0.012061  -0.012026
     34       0.000226  -0.024721  -0.024611
     35       0.000001   0.057623   0.057502
     36      -0.000396   0.012045  -0.012041
     37      -0.000225   0.024689  -0.024643
     38       0.000002   0.057549  -0.057576
     39      -0.000289   0.146762   0.146519
     40      -0.000701   0.173429   0.173290
     41       0.002495  -0.640491  -0.639424
     42       0.000288  -0.146568   0.146704
     43       0.000700  -0.173206   0.173514
     44       0.002490  -0.639668   0.640250
     45      -0.000536   0.105417   0.104903
     46      -0.000087   0.063298   0.063117
     47       0.000771   0.002800   0.002891
     48       0.000536  -0.105282   0.105039
     49       0.000087  -0.063217   0.063199
     50       0.000771   0.002796  -0.002894
     51      -0.001752  -0.110101  -0.109506
     52       0.001012   0.071071   0.070694
     53      -0.000116  -0.048437  -0.048081
     54       0.001753   0.109960  -0.109648
     55      -0.001013  -0.070978   0.070784
     56      -0.000116  -0.048375   0.048142


-----------
IR SPECTRUM
-----------

 Mode   freq       eps      Int      T**2         TX        TY        TZ
       cm**-1   L/(mol*cm) km/mol    a.u.
----------------------------------------------------------------------------
  6:     73.96   0.000008    0.04  0.000035  (-0.000000  0.000000  0.005937)
  7:    158.07   0.001014    5.12  0.002002  ( 0.044742 -0.000009  0.000000)
  8:    186.09   0.000004    0.02  0.000007  ( 0.000000  0.000001 -0.002730)
  9:    205.15   0.000028    0.14  0.000043  ( 0.000001  0.000000 -0.006533)
 10:    218.91   0.000618    3.12  0.000881  (-0.028600 -0.007944  0.000000)
 11:    257.90   0.000994    5.03  0.001203  ( 0.029872 -0.017631 -0.000000)
 12:    281.77   0.000481    2.43  0.000532  (-0.000001  0.000000 -0.023075)
 13:    324.95   0.000008    0.04  0.000008  ( 0.000000  0.000000  0.002799)
 14:    355.13   0.003074   15.54  0.002702  (-0.017615  0.048900  0.000000)
 15:    429.14   0.002211   11.17  0.001607  ( 0.022685  0.033058 -0.000000)
 16:    431.60   0.000026    0.13  0.000019  (-0.000002 -0.000002 -0.004346)
 17:    498.13   0.000542    2.74  0.000339  ( 0.006884 -0.017085  0.000000)
 18:    620.64   0.000488    2.46  0.000245  (-0.000000  0.000000 -0.015658)
 19:    885.26   0.001597    8.07  0.000563  (-0.000000 -0.000000  0.023728)
 20:    910.94   0.005677   28.69  0.001945  ( 0.004744  0.043842  0.000000)
 21:   1072.78   0.000859    4.34  0.000250  (-0.000000  0.000000 -0.015803)
 22:   1075.74   0.001350    6.82  0.000392  (-0.002577  0.019622  0.000000)
 23:   1096.56   0.000232    1.17  0.000066  (-0.000000  0.000000 -0.008124)
 24:   1122.09   0.000329    1.66  0.000092  (-0.008998  0.003258 -0.000000)
 25:   1125.05   0.000404    2.04  0.000112  ( 0.000000  0.000000 -0.010581)
 26:   1170.21   0.008615   43.53  0.002297  (-0.011259 -0.046589  0.000000)
 27:   1174.25   0.000059    0.30  0.000016  ( 0.000001 -0.000005 -0.003961)
 28:   1179.91   0.011955   60.42  0.003162  ( 0.012645 -0.054790  0.000000)
 29:   1256.71   0.000200    1.01  0.000050  (-0.001432  0.006906 -0.000000)
 30:   1319.40   0.004009   20.26  0.000948  (-0.000000  0.000000 -0.030793)
 31:   1407.89   0.000027    0.14  0.000006  ( 0.000000 -0.000000  0.002462)
 32:   1428.45   0.032276  163.11  0.007051  ( 0.000865 -0.083967 -0.000000)
 33:   1438.51   0.000645    3.26  0.000140  ( 0.009089  0.007563  0.000000)
 34:   1443.93   0.000241    1.22  0.000052  (-0.000000  0.000000  0.007215)
 35:   1470.79   0.000259    1.31  0.000055  (-0.000000 -0.000000  0.007409)
 36:   1483.44   0.001035    5.23  0.000218  (-0.007387  0.012770 -0.000000)
 37:   1499.08   0.008904   45.00  0.001854  (-0.014676  0.040474  0.000001)
 38:   1500.08   0.000007    0.03  0.000001  (-0.000000 -0.000001  0.001199)
 39:   1504.45   0.005080   25.67  0.001054  ( 0.027896  0.016597  0.000003)
 40:   1504.95   0.002105   10.64  0.000437  ( 0.000003  0.000004 -0.020894)
 41:   1519.00   0.001141    5.77  0.000234  ( 0.000003  0.000003 -0.015312)
 42:   1520.08   0.003158   15.96  0.000648  (-0.022550 -0.011826 -0.000002)
 43:   1538.89   0.000763    3.86  0.000155  ( 0.000000  0.000000 -0.012443)
 44:   1576.87   0.050627  255.85  0.010019  ( 0.007171  0.099838  0.000000)
 45:   3033.20   0.030089  152.06  0.003096  (-0.006692 -0.055234 -0.000001)
 46:   3034.77   0.002245   11.35  0.000231  ( 0.000000  0.000005 -0.015195)
 47:   3050.65   0.007979   40.32  0.000816  ( 0.000539 -0.028564 -0.000001)
 48:   3055.29   0.013046   65.93  0.001333  (-0.000000 -0.000001  0.036504)
 49:   3091.31   0.000611    3.09  0.000062  (-0.000004  0.000001 -0.007852)
 50:   3091.58   0.016626   84.02  0.001678  (-0.040781  0.003890  0.000001)
 51:   3111.53   0.000422    2.13  0.000042  (-0.000001 -0.000001  0.006505)
 52:   3114.23   0.009476   47.89  0.000950  ( 0.023642  0.019763  0.000000)
 53:   3186.82   0.005067   25.61  0.000496  ( 0.014054 -0.017282  0.000001)
 54:   3191.06   0.000426    2.15  0.000042  ( 0.000001 -0.000001 -0.006457)
 55:   3196.71   0.001461    7.38  0.000143  (-0.000003 -0.000004  0.011942)
 56:   3196.75   0.000428    2.16  0.000042  (-0.003761 -0.005254 -0.000008)

* The epsilon (eps) is given for a Dirac delta lineshape.
** The dipole moment derivative (T) already includes vibrational overlap.

The first frequency considered to be a vibration is 6
The total number of vibrations considered is 51


--------------------------
THERMOCHEMISTRY AT 298.15K
--------------------------

Temperature         ... 298.15 K
Pressure            ... 1.00 atm
Total Mass          ... 100.16 AMU

Throughout the following assumptions are being made:
  (1) The electronic state is orbitally nondegenerate
  (2) There are no thermally accessible electronically excited states
  (3) Hindered rotations indicated by low frequency modes are not
      treated as such but are treated as vibrations and this may
      cause some error
  (4) All equations used are the standard statistical mechanics
      equations for an ideal gas
  (5) All vibrations are strictly harmonic

freq.      73.96  E(vib)   ...       0.49 
freq.     158.07  E(vib)   ...       0.39 
freq.     186.09  E(vib)   ...       0.37 
freq.     205.15  E(vib)   ...       0.35 
freq.     218.91  E(vib)   ...       0.33 
freq.     257.90  E(vib)   ...       0.30 
freq.     281.77  E(vib)   ...       0.28 
freq.     324.95  E(vib)   ...       0.24 
freq.     355.13  E(vib)   ...       0.22 
freq.     429.14  E(vib)   ...       0.18 
freq.     431.60  E(vib)   ...       0.18 
freq.     498.13  E(vib)   ...       0.14 
freq.     620.64  E(vib)   ...       0.09 
freq.     885.26  E(vib)   ...       0.04 
freq.     910.94  E(vib)   ...       0.03 
freq.    1072.78  E(vib)   ...       0.02 
freq.    1075.74  E(vib)   ...       0.02 
freq.    1096.56  E(vib)   ...       0.02 
freq.    1122.09  E(vib)   ...       0.01 
freq.    1125.05  E(vib)   ...       0.01 
freq.    1170.21  E(vib)   ...       0.01 
freq.    1174.25  E(vib)   ...       0.01 
freq.    1179.91  E(vib)   ...       0.01 
freq.    1256.71  E(vib)   ...       0.01 
freq.    1319.40  E(vib)   ...       0.01 
freq.    1407.89  E(vib)   ...       0.00 
freq.    1428.45  E(vib)   ...       0.00 
freq.    1438.51  E(vib)   ...       0.00 
freq.    1443.93  E(vib)   ...       0.00 
freq.    1470.79  E(vib)   ...       0.00 
freq.    1483.44  E(vib)   ...       0.00 
freq.    1499.08  E(vib)   ...       0.00 
freq.    1500.08  E(vib)   ...       0.00 
freq.    1504.45  E(vib)   ...       0.00 
freq.    1504.95  E(vib)   ...       0.00 
freq.    1519.00  E(vib)   ...       0.00 
freq.    1520.08  E(vib)   ...       0.00 
freq.    1538.89  E(vib)   ...       0.00 
freq.    1576.87  E(vib)   ...       0.00 
freq.    3033.20  E(vib)   ...       0.00 
freq.    3034.77  E(vib)   ...       0.00 
freq.    3050.65  E(vib)   ...       0.00 
freq.    3055.29  E(vib)   ...       0.00 
freq.    3091.31  E(vib)   ...       0.00 
freq.    3091.58  E(vib)   ...       0.00 
freq.    3111.53  E(vib)   ...       0.00 
freq.    3114.23  E(vib)   ...       0.00 
freq.    3186.82  E(vib)   ...       0.00 
freq.    3191.06  E(vib)   ...       0.00 
freq.    3196.71  E(vib)   ...       0.00 
freq.    3196.75  E(vib)   ...       0.00 

------------
INNER ENERGY
------------

The inner energy is: U= E(el) + E(ZPE) + E(vib) + E(rot) + E(trans)
    E(el)   - is the total energy from the electronic structure calculation
              = E(kin-el) + E(nuc-el) + E(el-el) + E(nuc-nuc)
    E(ZPE)  - the the zero temperature vibrational energy from the frequency calculation
    E(vib)  - the the finite temperature correction to E(ZPE) due to population
              of excited vibrational states
    E(rot)  - is the rotational thermal energy
    E(trans)- is the translational thermal energy

Summary of contributions to the inner energy U:
Electronic energy                ...   -307.21642944 Eh
Zero point energy                ...      0.17227652 Eh     108.10 kcal/mol
Thermal vibrational correction   ...      0.00607104 Eh       3.81 kcal/mol
Thermal rotational correction    ...      0.00141627 Eh       0.89 kcal/mol
Thermal translational correction ...      0.00141627 Eh       0.89 kcal/mol
-----------------------------------------------------------------------
Total thermal energy                   -307.03524934 Eh


Summary of corrections to the electronic energy:
(perhaps to be used in another calculation)
Total thermal correction                  0.00890359 Eh       5.59 kcal/mol
Non-thermal (ZPE) correction              0.17227652 Eh     108.10 kcal/mol
-----------------------------------------------------------------------
Total correction                          0.18118010 Eh     113.69 kcal/mol


--------
ENTHALPY
--------

The enthalpy is H = U + kB*T
                kB is Boltzmann's constant
Total free energy                 ...   -307.03524934 Eh 
Thermal Enthalpy correction       ...      0.00094421 Eh       0.59 kcal/mol
-----------------------------------------------------------------------
Total Enthalpy                    ...   -307.03430513 Eh


Note: Rotational entropy computed according to Herzberg 
Infrared and Raman Spectra, Chapter V,1, Van Nostrand Reinhold, 1945 
Point Group:  C2, Symmetry Number:   2  
Rotational constants in cm-1:     0.162941     0.057443     0.045288 

Vibrational entropy computed according to the QRRHO of S. Grimme
Chem.Eur.J. 2012 18 9955


-------
ENTROPY
-------

The entropy contributions are T*S = T*(S(el)+S(vib)+S(rot)+S(trans))
     S(el)   - electronic entropy
     S(vib)  - vibrational entropy
     S(rot)  - rotational entropy
     S(trans)- translational entropy
The entropies will be listed as multiplied by the temperature to get
units of energy

Electronic entropy                ...      0.00000000 Eh      0.00 kcal/mol
Vibrational entropy               ...      0.01028467 Eh      6.45 kcal/mol
Rotational entropy                ...      0.01252263 Eh      7.86 kcal/mol
Translational entropy             ...      0.01887358 Eh     11.84 kcal/mol
-----------------------------------------------------------------------
Final entropy term                ...      0.04168088 Eh     26.16 kcal/mol

In case the symmetry of your molecule has not been determined correctly
or in case you have a reason to use a different symmetry number we print 
out the resulting rotational entropy values for sn=1,12 :
 --------------------------------------------------------
|  sn= 1 | S(rot)=       0.01317709 Eh      8.27 kcal/mol|
|  sn= 2 | S(rot)=       0.01252263 Eh      7.86 kcal/mol|
|  sn= 3 | S(rot)=       0.01213980 Eh      7.62 kcal/mol|
|  sn= 4 | S(rot)=       0.01186818 Eh      7.45 kcal/mol|
|  sn= 5 | S(rot)=       0.01165749 Eh      7.32 kcal/mol|
|  sn= 6 | S(rot)=       0.01148535 Eh      7.21 kcal/mol|
|  sn= 7 | S(rot)=       0.01133980 Eh      7.12 kcal/mol|
|  sn= 8 | S(rot)=       0.01121372 Eh      7.04 kcal/mol|
|  sn= 9 | S(rot)=       0.01110251 Eh      6.97 kcal/mol|
|  sn=10 | S(rot)=       0.01100303 Eh      6.90 kcal/mol|
|  sn=11 | S(rot)=       0.01091304 Eh      6.85 kcal/mol|
|  sn=12 | S(rot)=       0.01083089 Eh      6.80 kcal/mol|
 --------------------------------------------------------


-------------------
GIBBS FREE ENERGY
-------------------

The Gibbs free energy is G = H - T*S

Total enthalpy                    ...   -307.03430513 Eh 
Total entropy correction          ...     -0.04168088 Eh    -26.16 kcal/mol
-----------------------------------------------------------------------
Final Gibbs free energy         ...   -307.07598601 Eh

For completeness - the Gibbs free energy minus the electronic energy
G-E(el)                           ...      0.14044343 Eh     88.13 kcal/mol


Timings for individual modules:

Sum of individual times         ...     1266.629 sec (=  21.110 min)
GTO integral calculation        ...        5.840 sec (=   0.097 min)   0.5 %
SCF iterations                  ...      542.866 sec (=   9.048 min)  42.9 %
SCF Gradient evaluation         ...      160.071 sec (=   2.668 min)  12.6 %
Geometry relaxation             ...        0.413 sec (=   0.007 min)   0.0 %
Analytical frequency calculation...      557.439 sec (=   9.291 min)  44.0 %
                             ****ORCA TERMINATED NORMALLY****
TOTAL RUN TIME: 0 days 0 hours 21 minutes 10 seconds 345 msec
