
                                 *****************
                                 * O   R   C   A *
                                 *****************

                                            #,                                       
                                            ###                                      
                                            ####                                     
                                            #####                                    
                                            ######                                   
                                           ########,                                 
                                     ,,################,,,,,                         
                               ,,#################################,,                 
                          ,,##########################################,,             
                       ,#########################################, ''#####,          
                    ,#############################################,,   '####,        
                  ,##################################################,,,,####,       
                ,###########''''           ''''###############################       
              ,#####''   ,,,,##########,,,,          '''####'''          '####       
            ,##' ,,,,###########################,,,                        '##       
           ' ,,###''''                  '''############,,,                           
         ,,##''                                '''############,,,,        ,,,,,,###''
      ,#''                                            '''#######################'''  
     '                                                          ''''####''''         
             ,#######,   #######,   ,#######,      ##                                
            ,#'     '#,  ##    ##  ,#'     '#,    #''#        ######   ,####,        
            ##       ##  ##   ,#'  ##            #'  '#       #        #'  '#        
            ##       ##  #######   ##           ,######,      #####,   #    #        
            '#,     ,#'  ##    ##  '#,     ,#' ,#      #,         ##   #,  ,#        
             '#######'   ##     ##  '#######'  #'      '#     #####' # '####'        



                  #######################################################
                  #                        -***-                        #
                  #          Department of theory and spectroscopy      #
                  #    Directorship and core code : Frank Neese         #
                  #        Max Planck Institute fuer Kohlenforschung    #
                  #                Kaiser Wilhelm Platz 1               #
                  #                 D-45470 Muelheim/Ruhr               #
                  #                      Germany                        #
                  #                                                     #
                  #                  All rights reserved                #
                  #                        -***-                        #
                  #######################################################


                         Program Version 5.0.4 -  RELEASE  -


 With contributions from (in alphabetic order):
   Daniel Aravena         : Magnetic Suceptibility
   Michael Atanasov       : Ab Initio Ligand Field Theory (pilot matlab implementation)
   Alexander A. Auer      : GIAO ZORA, VPT2 properties, NMR spectrum
   Ute Becker             : Parallelization
   Giovanni Bistoni       : ED, misc. LED, open-shell LED, HFLD
   Martin Brehm           : Molecular dynamics
   Dmytro Bykov           : SCF Hessian
   Vijay G. Chilkuri      : MRCI spin determinant printing, contributions to CSF-ICE
   Dipayan Datta          : RHF DLPNO-CCSD density
   Achintya Kumar Dutta   : EOM-CC, STEOM-CC
   Dmitry Ganyushin       : Spin-Orbit,Spin-Spin,Magnetic field MRCI
   Miquel Garcia          : C-PCM and meta-GGA Hessian, CC/C-PCM, Gaussian charge scheme
   Yang Guo               : DLPNO-NEVPT2, F12-NEVPT2, CIM, IAO-localization
   Andreas Hansen         : Spin unrestricted coupled pair/coupled cluster methods
   Benjamin Helmich-Paris : MC-RPA, TRAH-SCF, COSX integrals
   Lee Huntington         : MR-EOM, pCC
   Robert Izsak           : Overlap fitted RIJCOSX, COSX-SCS-MP3, EOM
   Marcus Kettner         : VPT2
   Christian Kollmar      : KDIIS, OOCD, Brueckner-CCSD(T), CCSD density, CASPT2, CASPT2-K
   Simone Kossmann        : Meta GGA functionals, TD-DFT gradient, OOMP2, MP2 Hessian
   Martin Krupicka        : Initial AUTO-CI
   Lucas Lang             : DCDCAS
   Marvin Lechner         : AUTO-CI (C++ implementation), FIC-MRCC
   Dagmar Lenk            : GEPOL surface, SMD
   Dimitrios Liakos       : Extrapolation schemes; Compound Job, initial MDCI parallelization
   Dimitrios Manganas     : Further ROCIS development; embedding schemes
   Dimitrios Pantazis     : SARC Basis sets
   Anastasios Papadopoulos: AUTO-CI, single reference methods and gradients
   Taras Petrenko         : DFT Hessian,TD-DFT gradient, ASA, ECA, R-Raman, ABS, FL, XAS/XES, NRVS
   Peter Pinski           : DLPNO-MP2, DLPNO-MP2 Gradient
   Christoph Reimann      : Effective Core Potentials
   Marius Retegan         : Local ZFS, SOC
   Christoph Riplinger    : Optimizer, TS searches, QM/MM, DLPNO-CCSD(T), (RO)-DLPNO pert. Triples
   Tobias Risthaus        : Range-separated hybrids, TD-DFT gradient, RPA, STAB
   Michael Roemelt        : Original ROCIS implementation
   Masaaki Saitow         : Open-shell DLPNO-CCSD energy and density
   Barbara Sandhoefer     : DKH picture change effects
   Avijit Sen             : IP-ROCIS
   Kantharuban Sivalingam : CASSCF convergence, NEVPT2, FIC-MRCI
   Bernardo de Souza      : ESD, SOC TD-DFT
   Georgi Stoychev        : AutoAux, RI-MP2 NMR, DLPNO-MP2 response
   Willem Van den Heuvel  : Paramagnetic NMR
   Boris Wezisla          : Elementary symmetry handling
   Frank Wennmohs         : Technical directorship


 We gratefully acknowledge several colleagues who have allowed us to
 interface, adapt or use parts of their codes:
   Stefan Grimme, W. Hujo, H. Kruse, P. Pracht,  : VdW corrections, initial TS optimization,
                  C. Bannwarth, S. Ehlert          DFT functionals, gCP, sTDA/sTD-DF
   Ed Valeev, F. Pavosevic, A. Kumar             : LibInt (2-el integral package), F12 methods
   Garnet Chan, S. Sharma, J. Yang, R. Olivares  : DMRG
   Ulf Ekstrom                                   : XCFun DFT Library
   Mihaly Kallay                                 : mrcc  (arbitrary order and MRCC methods)
   Jiri Pittner, Ondrej Demel                    : Mk-CCSD
   Frank Weinhold                                : gennbo (NPA and NBO analysis)
   Christopher J. Cramer and Donald G. Truhlar   : smd solvation model
   Lars Goerigk                                  : TD-DFT with DH, B97 family of functionals
   V. Asgeirsson, H. Jonsson                     : NEB implementation
   FAccTs GmbH                                   : IRC, NEB, NEB-TS, DLPNO-Multilevel, CI-OPT
                                                   MM, QMMM, 2- and 3-layer-ONIOM, Crystal-QMMM,
                                                   LR-CPCM, SF, NACMEs, symmetry and pop. for TD-DFT,
                                                   nearIR, NL-DFT gradient (VV10), updates on ESD,
                                                   ML-optimized integration grids
   S Lehtola, MJT Oliveira, MAL Marques          : LibXC Library
   Liviu Ungur et al                             : ANISO software


 Your calculation uses the libint2 library for the computation of 2-el integrals
 For citations please refer to: http://libint.valeyev.net

 Your ORCA version has been built with support for libXC version: 5.1.0
 For citations please refer to: https://tddft.org/programs/libxc/

 This ORCA versions uses:
   CBLAS   interface :  Fast vector & matrix operations
   LAPACKE interface :  Fast linear algebra routines
   SCALAPACK package :  Parallel linear algebra routines
   Shared memory     :  Shared parallel matrices
   BLAS/LAPACK       :  OpenBLAS 0.3.15  USE64BITINT DYNAMIC_ARCH NO_AFFINITY SkylakeX SINGLE_THREADED
        Core in use  :  SkylakeX
   Copyright (c) 2011-2014, The OpenBLAS Project




***************************************
The coordinates will be read from file: 2_deprot.xyz
***************************************


Your calculation utilizes the atom-pairwise dispersion correction
based on tight binding partial charges (D4)
Cite in your paper:
E.Caldeweyher, C.Bannwarth, S.Grimme, J.Chem.Phys., (2017), 147, 034112.
E.Caldeweyher, S.Ehlert, A.Hansen, H.Neugebauer, S.Grimme, J.Chem.Phys., (2018), in progress.
   

XCFun DFT library Copyright 2009-2010 Ulf Ekstrom and contributors.
See http://admol.org/xcfun for more information.
This is free software; see the source code for copying conditions.
There is ABSOLUTELY NO WARRANTY; not even for MERCHANTABILITY or FITNESS FOR A PARTICULAR PURPOSE.
For details see the documentation.
Scientific users of this library should cite U. Ekstrom, L. Visscher, R. Bast, A. J. Thorvaldsen and K. Ruud;
J.Chem.Theor.Comp. 2010, DOI: 10.1021/ct100117s
XCFun Version 0.99 

================================================================================

----- Orbital basis set information -----
Your calculation utilizes the basis: def2-TZVP
   F. Weigend and R. Ahlrichs, Phys. Chem. Chem. Phys. 7, 3297 (2005).

----- AuxJ basis set information -----
Your calculation utilizes the auxiliary basis: def2/J
   F. Weigend, Phys. Chem. Chem. Phys. 8, 1057 (2006).

================================================================================
                                        WARNINGS
                       Please study these warnings very carefully!
================================================================================


WARNING: Geometry Optimization
  ===> : Switching off AutoStart
         For restart on a previous wavefunction, please use MOREAD

INFO   : the flag for use of the SHARK integral package has been found!

================================================================================
                                       INPUT FILE
================================================================================
NAME = 2_deprot.inp
|  1> # ORCA 5.0.4 - /users/bwb16179/postgrad/2024_06/pKa_Reviewer_Comments/Gas_Z=0/2_deprot.inp # write input file
|  2> # Basic Mode
|  3> #
|  4> ! Opt Freq wB97X Def2-TZVP D4 SlowConv TightSCF Defgrid2 Def2/J RIJCOSX 
|  5> 
|  6> %PAL NPROCS 4 END
|  7> 
|  8> %maxcore 4500
|  9> 
| 10> %geom
| 11> Maxiter 150
| 12> END
| 13> 
| 14> * xyzfile 0 1 2_deprot.xyz
| 15> 
| 16>                          ****END OF INPUT****
================================================================================

                       *****************************
                       * Geometry Optimization Run *
                       *****************************

Geometry optimization settings:
Update method            Update   .... BFGS
Choice of coordinates    CoordSys .... Z-matrix Internals
Initial Hessian          InHess   .... Almoef's Model

Convergence Tolerances:
Energy Change            TolE     ....  5.0000e-06 Eh
Max. Gradient            TolMAXG  ....  3.0000e-04 Eh/bohr
RMS Gradient             TolRMSG  ....  1.0000e-04 Eh/bohr
Max. Displacement        TolMAXD  ....  4.0000e-03 bohr
RMS Displacement         TolRMSD  ....  2.0000e-03 bohr
Strict Convergence                ....  False
------------------------------------------------------------------------------
                        ORCA OPTIMIZATION COORDINATE SETUP
------------------------------------------------------------------------------

The optimization will be done in new redundant internal coordinates
Making redundant internal coordinates   ...  (new redundants) done
Evaluating the initial hessian          ...  (Almloef) done
Evaluating the coordinates              ...  done
Calculating the B-matrix                .... done
Calculating the G-matrix                .... done
Diagonalizing the G-matrix              .... done
The first mode is                       ....   41
The number of degrees of freedom        ....   57

    -----------------------------------------------------------------
                    Redundant Internal Coordinates


    -----------------------------------------------------------------
         Definition                    Initial Value    Approx d2E/dq
    -----------------------------------------------------------------
      1. B(C   1,C   0)                  1.3600         0.697554   
      2. B(N   2,C   0)                  1.3939         0.551604   
      3. B(N   3,C   1)                  1.3940         0.551490   
      4. B(C   4,N   3)                  1.3592         0.626609   
      5. B(C   4,N   2)                  1.3593         0.626445   
      6. B(C   5,N   2)                  1.4446         0.457892   
      7. B(C   6,N   3)                  1.4447         0.457777   
      8. B(H   7,C   5)                  1.1018         0.344864   
      9. B(H   8,C   6)                  1.1017         0.344896   
     10. B(H   9,C   6)                  1.1018         0.344883   
     11. B(H  10,C   5)                  1.1017         0.344946   
     12. B(H  11,C   5)                  1.0964         0.351697   
     13. B(H  12,C   6)                  1.0964         0.351741   
     14. B(C  13,C   0)                  1.4916         0.430126   
     15. B(C  14,C   1)                  1.4915         0.430258   
     16. B(H  15,C  13)                  1.1022         0.344265   
     17. B(H  16,C  14)                  1.1023         0.344162   
     18. B(H  17,C  14)                  1.1022         0.344299   
     19. B(H  18,C  13)                  1.1023         0.344238   
     20. B(H  19,C  13)                  1.0989         0.348474   
     21. B(H  20,C  14)                  1.0989         0.348474   
     22. A(C   1,C   0,N   2)          105.7172         0.431302   
     23. A(C   1,C   0,C  13)          131.1719         0.415247   
     24. A(N   2,C   0,C  13)          123.1108         0.395819   
     25. A(N   3,C   1,C  14)          123.1153         0.395826   
     26. A(C   0,C   1,N   3)          105.7144         0.431286   
     27. A(C   0,C   1,C  14)          131.1698         0.415269   
     28. A(C   4,N   2,C   5)          122.8420         0.406650   
     29. A(C   0,N   2,C   4)          113.2000         0.420323   
     30. A(C   0,N   2,C   5)          123.9580         0.397633   
     31. A(C   1,N   3,C   4)          113.2013         0.420328   
     32. A(C   1,N   3,C   6)          123.9701         0.397602   
     33. A(C   4,N   3,C   6)          122.8286         0.406651   
     34. A(N   2,C   4,N   3)          102.1671         0.430023   
     35. A(N   2,C   5,H  10)          111.2577         0.331018   
     36. A(N   2,C   5,H   7)          111.3640         0.331005   
     37. A(H  10,C   5,H  11)          109.0573         0.287819   
     38. A(H   7,C   5,H  11)          109.0451         0.287809   
     39. A(N   2,C   5,H  11)          107.4867         0.332082   
     40. A(H   7,C   5,H  10)          108.5811         0.286939   
     41. A(H   8,C   6,H   9)          108.5812         0.286935   
     42. A(N   3,C   6,H   9)          111.2834         0.330994   
     43. A(N   3,C   6,H   8)          111.3407         0.330996   
     44. A(H   9,C   6,H  12)          109.0511         0.287817   
     45. A(H   8,C   6,H  12)          109.0392         0.287819   
     46. A(N   3,C   6,H  12)          107.4960         0.332075   
     47. A(H  15,C  13,H  18)          107.5076         0.286769   
     48. A(C   0,C  13,H  18)          111.7980         0.329483   
     49. A(C   0,C  13,H  15)          111.8085         0.329487   
     50. A(H  18,C  13,H  19)          107.6350         0.287313   
     51. A(H  15,C  13,H  19)          107.5694         0.287317   
     52. A(C   0,C  13,H  19)          110.3220         0.330150   
     53. A(H  16,C  14,H  17)          107.5058         0.286763   
     54. A(C   1,C  14,H  17)          111.8383         0.329509   
     55. A(C   1,C  14,H  16)          111.7758         0.329488   
     56. A(H  17,C  14,H  20)          107.5878         0.287321   
     57. A(H  16,C  14,H  20)          107.5797         0.287303   
     58. A(C   1,C  14,H  20)          110.3507         0.330166   
     59. D(N   3,C   1,C   0,N   2)      0.0106         0.034250   
     60. D(C  14,C   1,C   0,N   2)   -179.7284         0.034250   
     61. D(C  14,C   1,C   0,C  13)      0.2087         0.034250   
     62. D(N   3,C   1,C   0,C  13)    179.9477         0.034250   
     63. D(C   5,N   2,C   0,C   1)    179.9018         0.024259   
     64. D(C   4,N   2,C   0,C  13)   -179.9579         0.024259   
     65. D(C   5,N   2,C   0,C  13)     -0.0417         0.024259   
     66. D(C   4,N   2,C   0,C   1)     -0.0144         0.024259   
     67. D(C   6,N   3,C   1,C  14)     -0.1672         0.024248   
     68. D(C   4,N   3,C   1,C  14)    179.7612         0.024248   
     69. D(C   6,N   3,C   1,C   0)   -179.9326         0.024248   
     70. D(C   4,N   3,C   1,C   0)     -0.0043         0.024248   
     71. D(N   2,C   4,N   3,C   1)     -0.0042         0.028852   
     72. D(N   3,C   4,N   2,C   5)   -179.9059         0.028836   
     73. D(N   3,C   4,N   2,C   0)      0.0114         0.028836   
     74. D(N   2,C   4,N   3,C   6)    179.9251         0.028852   
     75. D(H  11,C   5,N   2,C   4)      0.8750         0.017895   
     76. D(H  11,C   5,N   2,C   0)   -179.0334         0.017895   
     77. D(H  10,C   5,N   2,C   4)    120.2084         0.017895   
     78. D(H  10,C   5,N   2,C   0)    -59.7000         0.017895   
     79. D(H   7,C   5,N   2,C   4)   -118.5051         0.017895   
     80. D(H   7,C   5,N   2,C   0)     61.5865         0.017895   
     81. D(H  12,C   6,N   3,C   4)     -0.2452         0.017886   
     82. D(H  12,C   6,N   3,C   1)    179.6765         0.017886   
     83. D(H   9,C   6,N   3,C   4)   -119.5917         0.017886   
     84. D(H   9,C   6,N   3,C   1)     60.3300         0.017886   
     85. D(H   8,C   6,N   3,C   4)    119.1201         0.017886   
     86. D(H   8,C   6,N   3,C   1)    -60.9583         0.017886   
     87. D(H  18,C  13,C   0,C   1)    119.5185         0.013663   
     88. D(H  15,C  13,C   0,N   2)     60.0436         0.013663   
     89. D(H  15,C  13,C   0,C   1)   -119.8841         0.013663   
     90. D(H  19,C  13,C   0,N   2)    179.7070         0.013663   
     91. D(H  19,C  13,C   0,C   1)     -0.2207         0.013663   
     92. D(H  18,C  13,C   0,N   2)    -60.5538         0.013663   
     93. D(H  20,C  14,C   1,N   3)    179.6219         0.013672   
     94. D(H  20,C  14,C   1,C   0)     -0.6780         0.013672   
     95. D(H  17,C  14,C   1,N   3)     59.8966         0.013672   
     96. D(H  17,C  14,C   1,C   0)   -120.4034         0.013672   
     97. D(H  16,C  14,C   1,N   3)    -60.7040         0.013672   
     98. D(H  16,C  14,C   1,C   0)    118.9961         0.013672   
    -----------------------------------------------------------------

Number of atoms                         .... 21
Number of degrees of freedom            .... 98

         *************************************************************
         *                GEOMETRY OPTIMIZATION CYCLE   1            *
         *************************************************************
---------------------------------
CARTESIAN COORDINATES (ANGSTROEM)
---------------------------------
  C     -0.020483    0.672482   -0.641209
  C     -0.030506   -0.687496   -0.640564
  N      0.011053    1.050494    0.700102
  N     -0.004783   -1.064606    0.701183
  C      0.021242   -0.006801    1.554311
  C      0.032907    2.422592    1.151479
  C     -0.003872   -2.436391    1.154256
  H     -0.871586    2.964627    0.832131
  H     -0.911450   -2.967700    0.825851
  H      0.877088   -2.981043    0.778592
  H      0.916352    2.955960    0.765741
  H      0.073396    2.408402    2.247067
  H      0.025061   -2.421547    2.250167
  C     -0.036074    1.654061   -1.764248
  C     -0.056480   -1.669737   -1.762721
  H      0.856376    2.300889   -1.755171
  H      0.834299   -2.319052   -1.758530
  H     -0.943078   -2.322874   -1.715477
  H     -0.921200    2.309652   -1.722595
  H     -0.055604    1.129270   -2.729581
  H     -0.080929   -1.146034   -2.728533

----------------------------
CARTESIAN COORDINATES (A.U.)
----------------------------
  NO LB      ZA    FRAG     MASS         X           Y           Z
   0 C     6.0000    0    12.011   -0.038707    1.270807   -1.211709
   1 C     6.0000    0    12.011   -0.057648   -1.299179   -1.210491
   2 N     7.0000    0    14.007    0.020887    1.985146    1.323001
   3 N     7.0000    0    14.007   -0.009039   -2.011814    1.325044
   4 C     6.0000    0    12.011    0.040142   -0.012852    2.937222
   5 C     6.0000    0    12.011    0.062185    4.578035    2.175980
   6 C     6.0000    0    12.011   -0.007317   -4.604112    2.181228
   7 H     1.0000    0     1.008   -1.647059    5.602333    1.572500
   8 H     1.0000    0     1.008   -1.722391   -5.608140    1.560632
   9 H     1.0000    0     1.008    1.657456   -5.633355    1.471326
  10 H     1.0000    0     1.008    1.731654    5.585955    1.447041
  11 H     1.0000    0     1.008    0.138698    4.551220    4.246341
  12 H     1.0000    0     1.008    0.047358   -4.576061    4.252199
  13 C     6.0000    0    12.011   -0.068170    3.125722   -3.333946
  14 C     6.0000    0    12.011   -0.106732   -3.155346   -3.331060
  15 H     1.0000    0     1.008    1.618316    4.348050   -3.316793
  16 H     1.0000    0     1.008    1.576597   -4.382373   -3.323140
  17 H     1.0000    0     1.008   -1.782159   -4.389596   -3.241782
  18 H     1.0000    0     1.008   -1.740816    4.364610   -3.255233
  19 H     1.0000    0     1.008   -0.105076    2.134011   -5.158161
  20 H     1.0000    0     1.008   -0.152934   -2.165690   -5.156180

--------------------------------
INTERNAL COORDINATES (ANGSTROEM)
--------------------------------
 C      0   0   0     0.000000000000     0.00000000     0.00000000
 C      1   0   0     1.360015087063     0.00000000     0.00000000
 N      1   2   0     1.393916349772   105.71723284     0.00000000
 N      2   1   3     1.393972251100   105.71438746     0.00000000
 C      4   2   1     1.359211574051   113.20130051     0.00000000
 C      3   1   2     1.444600884345   123.95797644   179.90180479
 C      4   2   1     1.444669532964   123.97006575   180.06736768
 H      6   3   1     1.101767976199   111.36399441    61.58647923
 H      7   4   2     1.101742675760   111.34069693   299.04169922
 H      7   4   2     1.101753041112   111.28335021    60.32998250
 H      6   3   1     1.101703361206   111.25767643   300.29998607
 H      6   3   1     1.096427736317   107.48672299   180.96662768
 H      7   4   2     1.096393352199   107.49603687   179.67647502
 C      1   2   3     1.491628978011   131.17191042   179.93708955
 C      2   1   3     1.491545629006   131.16978606   180.27164259
 H     14   1   2     1.102241287565   111.80847871   240.11590473
 H     15   2   1     1.102322439465   111.77575841   118.99607455
 H     15   2   1     1.102214112552   111.83834970   239.59659833
 H     14   1   2     1.102262476711   111.79796591   119.51847988
 H     14   1   2     1.098933490012   110.32198960   359.77928102
 H     15   2   1     1.098933758310   110.35067860   359.32195839

---------------------------
INTERNAL COORDINATES (A.U.)
---------------------------
 C      0   0   0     0.000000000000     0.00000000     0.00000000
 C      1   0   0     2.570056052549     0.00000000     0.00000000
 N      1   2   0     2.634120154664   105.71723284     0.00000000
 N      2   1   3     2.634225792866   105.71438746     0.00000000
 C      4   2   1     2.568537633012   113.20130051     0.00000000
 C      3   1   2     2.729900044232   123.95797644   179.90180479
 C      4   2   1     2.730029771322   123.97006575   180.06736768
 H      6   3   1     2.082039738141   111.36399441    61.58647923
 H      7   4   2     2.081991927239   111.34069693   299.04169922
 H      7   4   2     2.082011514917   111.28335021    60.32998250
 H      6   3   1     2.081917633500   111.25767643   300.29998607
 H      6   3   1     2.071948147274   107.48672299   180.96662768
 H      7   4   2     2.071883170708   107.49603687   179.67647502
 C      1   2   3     2.818770261862   131.17191042   179.93708955
 C      2   1   3     2.818612755068   131.16978606   180.27164259
 H     14   1   2     2.082934166999   111.80847871   240.11590473
 H     15   2   1     2.083087521864   111.77575841   118.99607455
 H     15   2   1     2.082882813667   111.83834970   239.59659833
 H     14   1   2     2.082974208682   111.79796591   119.51847988
 H     14   1   2     2.076683335517   110.32198960   359.77928102
 H     15   2   1     2.076683842527   110.35067860   359.32195839

---------------------
BASIS SET INFORMATION
---------------------
There are 3 groups of distinct atoms

 Group   1 Type C   : 11s6p2d1f contracted to 5s3p2d1f pattern {62111/411/11/1}
 Group   2 Type N   : 11s6p2d1f contracted to 5s3p2d1f pattern {62111/411/11/1}
 Group   3 Type H   : 5s1p contracted to 3s1p pattern {311/1}

Atom   0C    basis set group =>   1
Atom   1C    basis set group =>   1
Atom   2N    basis set group =>   2
Atom   3N    basis set group =>   2
Atom   4C    basis set group =>   1
Atom   5C    basis set group =>   1
Atom   6C    basis set group =>   1
Atom   7H    basis set group =>   3
Atom   8H    basis set group =>   3
Atom   9H    basis set group =>   3
Atom  10H    basis set group =>   3
Atom  11H    basis set group =>   3
Atom  12H    basis set group =>   3
Atom  13C    basis set group =>   1
Atom  14C    basis set group =>   1
Atom  15H    basis set group =>   3
Atom  16H    basis set group =>   3
Atom  17H    basis set group =>   3
Atom  18H    basis set group =>   3
Atom  19H    basis set group =>   3
Atom  20H    basis set group =>   3
---------------------------------
AUXILIARY/J BASIS SET INFORMATION
---------------------------------
There are 3 groups of distinct atoms

 Group   1 Type C   : 12s5p4d2f1g contracted to 6s4p3d1f1g pattern {711111/2111/211/2/1}
 Group   2 Type N   : 12s5p4d2f1g contracted to 6s4p3d1f1g pattern {711111/2111/211/2/1}
 Group   3 Type H   : 5s2p1d contracted to 3s1p1d pattern {311/2/1}

Atom   0C    basis set group =>   1
Atom   1C    basis set group =>   1
Atom   2N    basis set group =>   2
Atom   3N    basis set group =>   2
Atom   4C    basis set group =>   1
Atom   5C    basis set group =>   1
Atom   6C    basis set group =>   1
Atom   7H    basis set group =>   3
Atom   8H    basis set group =>   3
Atom   9H    basis set group =>   3
Atom  10H    basis set group =>   3
Atom  11H    basis set group =>   3
Atom  12H    basis set group =>   3
Atom  13C    basis set group =>   1
Atom  14C    basis set group =>   1
Atom  15H    basis set group =>   3
Atom  16H    basis set group =>   3
Atom  17H    basis set group =>   3
Atom  18H    basis set group =>   3
Atom  19H    basis set group =>   3
Atom  20H    basis set group =>   3


           ************************************************************
           *        Program running with 4 parallel MPI-processes     *
           *              working on a common directory               *
           ************************************************************
------------------------------------------------------------------------------
                           ORCA GTO INTEGRAL CALCULATION
                           -- RI-GTO INTEGRALS CHOSEN --
------------------------------------------------------------------------------
------------------------------------------------------------------------------
                   ___                                                        
                  /   \      - P O W E R E D   B Y -                         
                 /     \                                                     
                 |  |  |   _    _      __       _____    __    __             
                 |  |  |  | |  | |    /  \     |  _  \  |  |  /  |          
                  \  \/   | |  | |   /    \    | | | |  |  | /  /          
                 / \  \   | |__| |  /  /\  \   | |_| |  |  |/  /          
                |  |  |   |  __  | /  /__\  \  |    /   |      \           
                |  |  |   | |  | | |   __   |  |    \   |  |\   \          
                \     /   | |  | | |  |  |  |  | |\  \  |  | \   \       
                 \___/    |_|  |_| |__|  |__|  |_| \__\ |__|  \__/        
                                                                              
                      - O R C A' S   B I G   F R I E N D -                    
                                      &                                       
                       - I N T E G R A L  F E E D E R -                       
                                                                              
 v1 FN, 2020, v2 2021                                                         
------------------------------------------------------------------------------


Reading SHARK input file 2_deprot.SHARKINP.tmp ... ok
----------------------
SHARK INTEGRAL PACKAGE
----------------------

Number of atoms                             ...     21
Number of basis functions                   ...    351
Number of shells                            ...    147
Maximum angular momentum                    ...      3
Integral batch strategy                     ... SHARK/LIBINT Hybrid
RI-J (if used) integral strategy            ... SPLIT-RIJ (Revised 2003 algorithm where possible)
Printlevel                                  ...      1
Contraction scheme used                     ... SEGMENTED contraction
Coulomb Range Separation                    ... NOT USED
Exchange Range Separation                   ... Long Range
   Mu parameter                             ...  0.300000
   Scaling (regular/separated)              ...  0.157706  0.842294
Finite Nucleus Model                        ... NOT USED
Auxiliary Coulomb fitting basis             ... AVAILABLE
   # of basis functions in Aux-J            ...    573
   # of shells in Aux-J                     ...    195
   Maximum angular momentum in Aux-J        ...      4
Auxiliary J/K fitting basis                 ... NOT available
Auxiliary Correlation fitting basis         ... NOT available
Auxiliary 'external' fitting basis          ... NOT available
Integral threshold                          ...     2.500000e-11
Primitive cut-off                           ...     2.500000e-12
Primitive pair pre-selection threshold      ...     2.500000e-12

Calculating pre-screening integrals         ... done (  0.1 sec) Dimension = 147
Organizing shell pair data                  ... done (  0.1 sec)
Shell pair information
Total number of shell pairs                 ...     10878
Shell pairs after pre-screening             ...      9792
Total number of primitive shell pairs       ...     32112
Primitive shell pairs kept                  ...     21503
          la=0 lb=0:   2857 shell pairs
          la=1 lb=0:   2834 shell pairs
          la=1 lb=1:    724 shell pairs
          la=2 lb=0:   1346 shell pairs
          la=2 lb=1:    666 shell pairs
          la=2 lb=2:    168 shell pairs
          la=3 lb=0:    667 shell pairs
          la=3 lb=1:    329 shell pairs
          la=3 lb=2:    156 shell pairs
          la=3 lb=3:     45 shell pairs

Calculating one electron integrals          ... done (  0.0 sec)
Calculating RI/J V-Matrix + Cholesky decomp.... done (  0.0 sec)
Calculating Nuclear repulsion               ... done (  0.0 sec) ENN=    460.010985900768 Eh

SHARK setup successfully completed in   0.4 seconds

Maximum memory used throughout the entire GTOINT-calculation: 22.8 MB


           ************************************************************
           *        Program running with 4 parallel MPI-processes     *
           *              working on a common directory               *
           ************************************************************
-------------------------------------------------------------------------------
                                 ORCA SCF
-------------------------------------------------------------------------------

------------
SCF SETTINGS
------------
Hamiltonian:
 Density Functional     Method          .... DFT(GTOs)
 Exchange Functional    Exchange        .... WB97X
 Correlation Functional Correlation     .... WB97X
 Gradients option       PostSCFGGA      .... off
 Hybrid DFT is turned on
   Fraction HF Exchange ScalHFX         ....  0.157706
   Scaling of DF-GGA-X  ScalDFX         ....  0.000000
   Scaling of DF-GGA-C  ScalDFC         ....  1.000000
   Scaling of DF-LDA-C  ScalLDAC        ....  1.000000
   Perturbative correction              ....  0.000000
   Density functional embedding theory  .... OFF
 Long-range corrected/Screened/Range-Separated Hybrid DFT is turned on
   Amount of maximum screened exact exchange              ....  0.842294
   Range separation parameter mu (erf(mu*r12)/r12)        ....  0.300000
 RI-approximation to the Coulomb term is turned on
   Number of AuxJ basis functions       .... 573
   RIJ-COSX (HFX calculated with COS-X)).... on


General Settings:
 Integral files         IntName         .... 2_deprot
 Hartree-Fock type      HFTyp           .... RHF
 Total Charge           Charge          ....    0
 Multiplicity           Mult            ....    1
 Number of Electrons    NEL             ....   68
 Basis Dimension        Dim             ....  351
 Nuclear Repulsion      ENuc            ....    460.0109859008 Eh

Convergence Acceleration:
 DIIS                   CNVDIIS         .... on
   Start iteration      DIISMaxIt       ....     0
   Startup error        DIISStart       ....  0.200000
   # of expansion vecs  DIISMaxEq       ....     5
   Bias factor          DIISBfac        ....   1.050
   Max. coefficient     DIISMaxC        ....  10.000
 Trust-Rad. Augm. Hess. CNVTRAH         .... auto
   Auto Start mean grad. ratio tolernc. ....  1.125000
   Auto Start start iteration           ....    20
   Auto Start num. interpolation iter.  ....    10
   Max. Number of Micro iterations      ....    16
   Max. Number of Macro iterations      .... Maxiter - #DIIS iter
   Number of Davidson start vectors     ....     2
   Converg. threshold I  (grad. norm)   ....   1.000e-05
   Converg. threshold II (energy diff.) ....   1.000e-08
   Grad. Scal. Fac. for Micro threshold ....   0.100
   Minimum threshold for Micro iter.    ....   0.010
   NR start threshold (gradient norm)   ....   0.001
   Initial trust radius                 ....   0.400
   Minimum AH scaling param. (alpha)    ....   1.000
   Maximum AH scaling param. (alpha)    .... 1000.000
   Orbital update algorithm             .... Taylor
   White noise on init. David. guess    .... on
   Maximum white noise                  ....   0.010
   Quad. conv. algorithm                .... NR
 SOSCF                  CNVSOSCF        .... on
   Start iteration      SOSCFMaxIt      ....   150
   Startup grad/error   SOSCFStart      ....  0.001000
 Level Shifting         CNVShift        .... on
   Level shift para.    LevelShift      ....    0.2500
   Turn off err/grad.   ShiftErr        ....    0.0000
 Zerner damping         CNVZerner       .... off
 Static damping         CNVDamp         .... on
   Fraction old density DampFac         ....    0.8500
   Max. Damping (<1)    DampMax         ....    0.9800
   Min. Damping (>=0)   DampMin         ....    0.0000
   Turn off err/grad.   DampErr         ....    0.0300
 Fernandez-Rico         CNVRico         .... off

SCF Procedure:
 Maximum # iterations   MaxIter         ....   125
 SCF integral mode      SCFMode         .... Direct
   Integral package                     .... SHARK and LIBINT hybrid scheme
 Reset frequency        DirectResetFreq ....    20
 Integral Threshold     Thresh          ....  2.500e-11 Eh
 Primitive CutOff       TCut            ....  2.500e-12 Eh

Convergence Tolerance:
 Convergence Check Mode ConvCheckMode   .... Total+1el-Energy
 Convergence forced     ConvForced      .... 0
 Energy Change          TolE            ....  1.000e-08 Eh
 1-El. energy change                    ....  1.000e-05 Eh
 Orbital Gradient       TolG            ....  1.000e-05
 Orbital Rotation angle TolX            ....  1.000e-05
 DIIS Error             TolErr          ....  5.000e-07


Diagonalization of the overlap matrix:
Smallest eigenvalue                        ... 3.857e-05
Time for diagonalization                   ...    0.018 sec
Threshold for overlap eigenvalues          ... 1.000e-08
Number of eigenvalues below threshold      ... 0
Time for construction of square roots      ...    0.009 sec
Total time needed                          ...    0.028 sec

Time for model grid setup =    0.163 sec

------------------------------
INITIAL GUESS: MODEL POTENTIAL
------------------------------
Loading Hartree-Fock densities                     ... done
Calculating cut-offs                               ... done
Initializing the effective Hamiltonian             ... done
Setting up the integral package (SHARK)            ... done
Starting the Coulomb interaction                   ... done (   0.2 sec)
Reading the grid                                   ... done
Mapping shells                                     ... done
Starting the XC term evaluation                    ... done (   0.2 sec)
  promolecular density results
     # of electrons  =     67.999904202
     EX              =    -52.439853014
     EC              =     -2.247802239
     EX+EC           =    -54.687655253
Transforming the Hamiltonian                       ... done (   0.0 sec)
Diagonalizing the Hamiltonian                      ... done (   0.0 sec)
Back transforming the eigenvectors                 ... done (   0.0 sec)
Now organizing SCF variables                       ... done
                      ------------------
                      INITIAL GUESS DONE (   0.6 sec)
                      ------------------
-------------------
DFT GRID GENERATION
-------------------

General Integration Accuracy     IntAcc      ... 4.388
Radial Grid Type                 RadialGrid  ... OptM3 with GC (2021)
Angular Grid (max. ang.)         AngularGrid ... 4 (Lebedev-302)
Angular grid pruning method      GridPruning ... 4 (adaptive)
Weight generation scheme         WeightScheme... Becke
Basis function cutoff            BFCut       ... 1.0000e-11
Integration weight cutoff        WCut        ... 1.0000e-14
Angular grids for H and He will be reduced by one unit
Partially contracted basis set               ... off
Rotationally invariant grid construction     ... off

Total number of grid points                  ...    92570
Total number of batches                      ...     1455
Average number of points per batch           ...       63
Average number of grid points per atom       ...     4408
Time for grid setup =    0.636 sec

--------------------
COSX GRID GENERATION
--------------------

GRIDX 1
-------
General Integration Accuracy     IntAcc      ... 3.816
Radial Grid Type                 RadialGrid  ... OptM3 with GC (2021)
Angular Grid (max. ang.)         AngularGrid ... 1 (Lebedev-50)
Angular grid pruning method      GridPruning ... 4 (adaptive)
Weight generation scheme         WeightScheme... Becke
Basis function cutoff            BFCut       ... 1.0000e-11
Integration weight cutoff        WCut        ... 1.0000e-14
Angular grids for H and He will be reduced by one unit
Partially contracted basis set               ... on
Rotationally invariant grid construction     ... off

Total number of grid points                  ...    11840
Total number of batches                      ...      198
Average number of points per batch           ...       59
Average number of grid points per atom       ...      564
UseSFitting                                  ... on

GRIDX 2
-------
General Integration Accuracy     IntAcc      ... 4.020
Radial Grid Type                 RadialGrid  ... OptM3 with GC (2021)
Angular Grid (max. ang.)         AngularGrid ... 2 (Lebedev-110)
Angular grid pruning method      GridPruning ... 4 (adaptive)
Weight generation scheme         WeightScheme... Becke
Basis function cutoff            BFCut       ... 1.0000e-11
Integration weight cutoff        WCut        ... 1.0000e-14
Angular grids for H and He will be reduced by one unit
Partially contracted basis set               ... on
Rotationally invariant grid construction     ... off

Total number of grid points                  ...    25092
Total number of batches                      ...      402
Average number of points per batch           ...       62
Average number of grid points per atom       ...     1195
UseSFitting                                  ... on

GRIDX 3
-------
General Integration Accuracy     IntAcc      ... 4.338
Radial Grid Type                 RadialGrid  ... OptM3 with GC (2021)
Angular Grid (max. ang.)         AngularGrid ... 3 (Lebedev-194)
Angular grid pruning method      GridPruning ... 4 (adaptive)
Weight generation scheme         WeightScheme... Becke
Basis function cutoff            BFCut       ... 1.0000e-11
Integration weight cutoff        WCut        ... 1.0000e-14
Angular grids for H and He will be reduced by one unit
Partially contracted basis set               ... on
Rotationally invariant grid construction     ... off

Total number of grid points                  ...    54875
Total number of batches                      ...      869
Average number of points per batch           ...       63
Average number of grid points per atom       ...     2613
UseSFitting                                  ... on

Time for X-Grid setup             =    0.744 sec

--------------
SCF ITERATIONS
--------------
ITER       Energy         Delta-E        Max-DP      RMS-DP      [F,P]     Damp
               ***  Starting incremental Fock matrix formation  ***
  0   -383.2561110427   0.000000000000 0.02602865  0.00039121  0.1697617 0.8500
  1   -383.3003784367  -0.044267393992 0.03343134  0.00039508  0.1372818 0.8500
                               ***Turning on DIIS***
  2   -383.3343736154  -0.033995178701 0.03156283  0.00033116  0.1060254 0.8500
  3   -383.3597485968  -0.025374981484 0.02618922  0.00025304  0.0809112 0.8500
  4   -383.3793568018  -0.019608204990 0.02172994  0.00020165  0.0646657 0.8500
  5   -383.3948164998  -0.015459697943 0.01849287  0.00016822  0.0535769 0.8500
  6   -383.4073775042  -0.012561004446 0.01599970  0.00014322  0.0451305 0.8500
  7   -383.4177653362  -0.010387831985 0.01408038  0.00012348  0.0382757 0.8500
  8   -383.4264483247  -0.008682988485 0.01240394  0.00010641  0.0324230 0.8500
  9   -383.4337263927  -0.007278068012 0.07232806  0.00060833  0.0274083 0.0000
 10   -383.4732053434  -0.039478950659 0.00163247  0.00002098  0.0011015 0.0000
                      *** Initiating the SOSCF procedure ***
                           *** Shutting down DIIS ***
                      *** Re-Reading the Fockian *** 
                      *** Removing any level shift *** 
ITER      Energy       Delta-E        Grad      Rot      Max-DP    RMS-DP
 11   -383.47322157  -0.0000162284  0.000494  0.000494  0.001508  0.000012
               *** Restarting incremental Fock matrix formation ***
 12   -383.47321156   0.0000100132  0.000315  0.000726  0.000968  0.000016
 13   -383.47321262  -0.0000010652  0.000104  0.000623  0.000379  0.000010
 14   -383.47321288  -0.0000002526  0.000051  0.000074  0.000290  0.000006
 15   -383.47321295  -0.0000000777  0.000006  0.000010  0.000091  0.000001
 16   -383.47321295   0.0000000007  0.000003  0.000005  0.000032  0.000000
                  ***Gradient check signals convergence***
              ***Rediagonalizing the Fockian in SOSCF/NRSCF***

               *****************************************************
               *                     SUCCESS                       *
               *           SCF CONVERGED AFTER  17 CYCLES          *
               *****************************************************

Old exchange energy                            =    -17.419017123 Eh
New exchange energy                            =    -17.418986777 Eh
Exchange energy change after final integration =      0.000030346 Eh
Total energy after final integration           =   -383.473182612 Eh
Final COS-X integration done in                =    22.138 sec

----------------
TOTAL SCF ENERGY
----------------

Total Energy       :         -383.47318261 Eh          -10434.83580 eV

Components:
Nuclear Repulsion  :          460.01098590 Eh           12517.53531 eV
Electronic Energy  :         -843.48416851 Eh          -22952.37110 eV
One Electron Energy:        -1428.54376075 Eh          -38872.65198 eV
Two Electron Energy:          585.05959224 Eh           15920.28088 eV
Max COSX asymmetry :            0.00000180 Eh               0.00005 eV

Virial components:
Potential Energy   :         -765.04236421 Eh          -20817.86109 eV
Kinetic Energy     :          381.56918160 Eh           10383.02529 eV
Virial Ratio       :            2.00498992


DFT components:
N(Alpha)           :       34.000109382074 electrons
N(Beta)            :       34.000109382074 electrons
N(Total)           :       68.000218764147 electrons
E(XC)              :      -38.837160459334 Eh       
DFET-embed. en.    :        0.000000000000 Eh       

---------------
SCF CONVERGENCE
---------------

  Last Energy change         ...   -4.2865e-09  Tolerance :   1.0000e-08
  Last MAX-Density change    ...    2.8866e-15  Tolerance :   1.0000e-07
  Last RMS-Density change    ...    1.9026e-17  Tolerance :   5.0000e-09
  Last Orbital Gradient      ...    7.4287e-07  Tolerance :   1.0000e-05
  Last Orbital Rotation      ...    2.5371e-06  Tolerance :   1.0000e-05

             **** THE GBW FILE WAS UPDATED (2_deprot.gbw) ****
             **** DENSITY 2_deprot.scfp WAS UPDATED ****
             **** ENERGY FILE WAS UPDATED (2_deprot.en.tmp) ****
             **** THE GBW FILE WAS UPDATED (2_deprot.gbw) ****
             **** DENSITY 2_deprot.scfp WAS UPDATED ****
----------------
ORBITAL ENERGIES
----------------

  NO   OCC          E(Eh)            E(eV) 
   0   2.0000     -14.426282      -392.5591 
   1   2.0000     -14.426247      -392.5581 
   2   2.0000     -10.283751      -279.8351 
   3   2.0000     -10.283743      -279.8349 
   4   2.0000     -10.280038      -279.7341 
   5   2.0000     -10.279344      -279.7152 
   6   2.0000     -10.267326      -279.3881 
   7   2.0000     -10.267314      -279.3878 
   8   2.0000     -10.249960      -278.9156 
   9   2.0000      -1.144834       -31.1525 
  10   2.0000      -1.037661       -28.2362 
  11   2.0000      -0.923622       -25.1330 
  12   2.0000      -0.874464       -23.7954 
  13   2.0000      -0.865353       -23.5474 
  14   2.0000      -0.791323       -21.5330 
  15   2.0000      -0.785434       -21.3728 
  16   2.0000      -0.683662       -18.6034 
  17   2.0000      -0.676814       -18.4170 
  18   2.0000      -0.613168       -16.6851 
  19   2.0000      -0.594162       -16.1680 
  20   2.0000      -0.555895       -15.1267 
  21   2.0000      -0.546599       -14.8737 
  22   2.0000      -0.539795       -14.6886 
  23   2.0000      -0.527884       -14.3645 
  24   2.0000      -0.524085       -14.2611 
  25   2.0000      -0.517522       -14.0825 
  26   2.0000      -0.509473       -13.8635 
  27   2.0000      -0.499665       -13.5966 
  28   2.0000      -0.475688       -12.9441 
  29   2.0000      -0.472897       -12.8682 
  30   2.0000      -0.470443       -12.8014 
  31   2.0000      -0.359394        -9.7796 
  32   2.0000      -0.307607        -8.3704 
  33   2.0000      -0.301712        -8.2100 
  34   0.0000       0.105763         2.8780 
  35   0.0000       0.123934         3.3724 
  36   0.0000       0.128571         3.4986 
  37   0.0000       0.132981         3.6186 
  38   0.0000       0.151083         4.1112 
  39   0.0000       0.166770         4.5381 
  40   0.0000       0.174554         4.7499 
  41   0.0000       0.174940         4.7604 
  42   0.0000       0.176703         4.8083 
  43   0.0000       0.192743         5.2448 
  44   0.0000       0.201078         5.4716 
  45   0.0000       0.205903         5.6029 
  46   0.0000       0.213401         5.8069 
  47   0.0000       0.237275         6.4566 
  48   0.0000       0.238618         6.4931 
  49   0.0000       0.238785         6.4977 
  50   0.0000       0.256012         6.9664 
  51   0.0000       0.263979         7.1832 
  52   0.0000       0.270615         7.3638 
  53   0.0000       0.279142         7.5958 
  54   0.0000       0.283312         7.7093 
  55   0.0000       0.283647         7.7184 
  56   0.0000       0.305279         8.3071 
  57   0.0000       0.311717         8.4823 
  58   0.0000       0.313044         8.5184 
  59   0.0000       0.361367         9.8333 
  60   0.0000       0.362883         9.8745 
  61   0.0000       0.370821        10.0905 
  62   0.0000       0.372735        10.1426 
  63   0.0000       0.392660        10.6848 
  64   0.0000       0.404919        11.0184 
  65   0.0000       0.412587        11.2271 
  66   0.0000       0.416900        11.3444 
  67   0.0000       0.434426        11.8213 
  68   0.0000       0.441670        12.0184 
  69   0.0000       0.453070        12.3286 
  70   0.0000       0.470748        12.8097 
  71   0.0000       0.471075        12.8186 
  72   0.0000       0.474885        12.9223 
  73   0.0000       0.477456        12.9922 
  74   0.0000       0.491613        13.3775 
  75   0.0000       0.499837        13.6013 
  76   0.0000       0.521203        14.1827 
  77   0.0000       0.524666        14.2769 
  78   0.0000       0.528612        14.3843 
  79   0.0000       0.536435        14.5971 
  80   0.0000       0.548352        14.9214 
  81   0.0000       0.556394        15.1403 
  82   0.0000       0.563907        15.3447 
  83   0.0000       0.571144        15.5416 
  84   0.0000       0.577968        15.7273 
  85   0.0000       0.585119        15.9219 
  86   0.0000       0.589534        16.0420 
  87   0.0000       0.621531        16.9127 
  88   0.0000       0.643529        17.5113 
  89   0.0000       0.645821        17.5737 
  90   0.0000       0.654615        17.8130 
  91   0.0000       0.657233        17.8842 
  92   0.0000       0.658454        17.9174 
  93   0.0000       0.671161        18.2632 
  94   0.0000       0.675536        18.3823 
  95   0.0000       0.678336        18.4585 
  96   0.0000       0.704667        19.1750 
  97   0.0000       0.711672        19.3656 
  98   0.0000       0.739790        20.1307 
  99   0.0000       0.748521        20.3683 
 100   0.0000       0.791238        21.5307 
 101   0.0000       0.796828        21.6828 
 102   0.0000       0.810200        22.0467 
 103   0.0000       0.820448        22.3255 
 104   0.0000       0.822534        22.3823 
 105   0.0000       0.866267        23.5723 
 106   0.0000       0.867589        23.6083 
 107   0.0000       0.877595        23.8806 
 108   0.0000       0.887213        24.1423 
 109   0.0000       0.902415        24.5560 
 110   0.0000       0.950148        25.8548 
 111   0.0000       0.981140        26.6982 
 112   0.0000       0.989847        26.9351 
 113   0.0000       0.993658        27.0388 
 114   0.0000       1.038397        28.2562 
 115   0.0000       1.047874        28.5141 
 116   0.0000       1.049868        28.5684 
 117   0.0000       1.089070        29.6351 
 118   0.0000       1.094316        29.7779 
 119   0.0000       1.104013        30.0417 
 120   0.0000       1.125532        30.6273 
 121   0.0000       1.133395        30.8412 
 122   0.0000       1.175891        31.9976 
 123   0.0000       1.183082        32.1933 
 124   0.0000       1.192886        32.4601 
 125   0.0000       1.203304        32.7436 
 126   0.0000       1.209524        32.9128 
 127   0.0000       1.220569        33.2134 
 128   0.0000       1.227982        33.4151 
 129   0.0000       1.231402        33.5081 
 130   0.0000       1.274671        34.6856 
 131   0.0000       1.289436        35.0873 
 132   0.0000       1.337586        36.3976 
 133   0.0000       1.371620        37.3237 
 134   0.0000       1.380145        37.5557 
 135   0.0000       1.404807        38.2267 
 136   0.0000       1.422598        38.7108 
 137   0.0000       1.478813        40.2405 
 138   0.0000       1.507790        41.0290 
 139   0.0000       1.522723        41.4354 
 140   0.0000       1.527898        41.5762 
 141   0.0000       1.572520        42.7904 
 142   0.0000       1.600263        43.5454 
 143   0.0000       1.604899        43.6715 
 144   0.0000       1.606266        43.7087 
 145   0.0000       1.618644        44.0455 
 146   0.0000       1.630737        44.3746 
 147   0.0000       1.633184        44.4412 
 148   0.0000       1.635701        44.5097 
 149   0.0000       1.638118        44.5754 
 150   0.0000       1.650233        44.9051 
 151   0.0000       1.651746        44.9463 
 152   0.0000       1.656382        45.0724 
 153   0.0000       1.661594        45.2143 
 154   0.0000       1.664583        45.2956 
 155   0.0000       1.681083        45.7446 
 156   0.0000       1.686422        45.8899 
 157   0.0000       1.727306        47.0024 
 158   0.0000       1.730783        47.0970 
 159   0.0000       1.735778        47.2329 
 160   0.0000       1.774170        48.2776 
 161   0.0000       1.778151        48.3860 
 162   0.0000       1.793464        48.8026 
 163   0.0000       1.795876        48.8683 
 164   0.0000       1.818756        49.4909 
 165   0.0000       1.830634        49.8141 
 166   0.0000       1.836644        49.9776 
 167   0.0000       1.870784        50.9066 
 168   0.0000       1.879211        51.1359 
 169   0.0000       1.888678        51.3936 
 170   0.0000       1.918050        52.1928 
 171   0.0000       1.965135        53.4740 
 172   0.0000       2.005738        54.5789 
 173   0.0000       2.034288        55.3558 
 174   0.0000       2.045457        55.6597 
 175   0.0000       2.059107        56.0311 
 176   0.0000       2.072151        56.3861 
 177   0.0000       2.114338        57.5341 
 178   0.0000       2.117681        57.6250 
 179   0.0000       2.119377        57.6712 
 180   0.0000       2.155967        58.6668 
 181   0.0000       2.168080        58.9965 
 182   0.0000       2.188841        59.5614 
 183   0.0000       2.208554        60.0978 
 184   0.0000       2.216205        60.3060 
 185   0.0000       2.216749        60.3208 
 186   0.0000       2.248921        61.1962 
 187   0.0000       2.303834        62.6905 
 188   0.0000       2.312790        62.9342 
 189   0.0000       2.327441        63.3329 
 190   0.0000       2.351414        63.9852 
 191   0.0000       2.378416        64.7200 
 192   0.0000       2.405284        65.4511 
 193   0.0000       2.408411        65.5362 
 194   0.0000       2.419679        65.8428 
 195   0.0000       2.423840        65.9560 
 196   0.0000       2.445250        66.5386 
 197   0.0000       2.447592        66.6024 
 198   0.0000       2.449397        66.6515 
 199   0.0000       2.464845        67.0718 
 200   0.0000       2.469365        67.1948 
 201   0.0000       2.489761        67.7498 
 202   0.0000       2.520180        68.5776 
 203   0.0000       2.547068        69.3093 
 204   0.0000       2.562704        69.7347 
 205   0.0000       2.572786        70.0091 
 206   0.0000       2.587507        70.4097 
 207   0.0000       2.593318        70.5678 
 208   0.0000       2.611603        71.0653 
 209   0.0000       2.620366        71.3038 
 210   0.0000       2.645652        71.9918 
 211   0.0000       2.651132        72.1410 
 212   0.0000       2.656172        72.2781 
 213   0.0000       2.665340        72.5276 
 214   0.0000       2.693989        73.3072 
 215   0.0000       2.695656        73.3525 
 216   0.0000       2.707681        73.6797 
 217   0.0000       2.710249        73.7496 
 218   0.0000       2.747357        74.7594 
 219   0.0000       2.757898        75.0462 
 220   0.0000       2.788559        75.8805 
 221   0.0000       2.797816        76.1324 
 222   0.0000       2.819200        76.7143 
 223   0.0000       2.867422        78.0265 
 224   0.0000       2.874892        78.2298 
 225   0.0000       2.921455        79.4968 
 226   0.0000       2.935099        79.8681 
 227   0.0000       2.942737        80.0760 
 228   0.0000       2.956751        80.4573 
 229   0.0000       3.000590        81.6502 
 230   0.0000       3.021949        82.2314 
 231   0.0000       3.030368        82.4605 
 232   0.0000       3.081383        83.8487 
 233   0.0000       3.110911        84.6522 
 234   0.0000       3.112235        84.6882 
 235   0.0000       3.136160        85.3393 
 236   0.0000       3.136387        85.3454 
 237   0.0000       3.149025        85.6893 
 238   0.0000       3.158334        85.9426 
 239   0.0000       3.190403        86.8153 
 240   0.0000       3.194914        86.9380 
 241   0.0000       3.201402        87.1146 
 242   0.0000       3.204429        87.1969 
 243   0.0000       3.215942        87.5102 
 244   0.0000       3.276709        89.1638 
 245   0.0000       3.278147        89.2029 
 246   0.0000       3.284567        89.3776 
 247   0.0000       3.288422        89.4825 
 248   0.0000       3.297882        89.7399 
 249   0.0000       3.307138        89.9918 
 250   0.0000       3.322683        90.4148 
 251   0.0000       3.335255        90.7569 
 252   0.0000       3.359611        91.4197 
 253   0.0000       3.360514        91.4442 
 254   0.0000       3.362792        91.5062 
 255   0.0000       3.374739        91.8313 
 256   0.0000       3.376990        91.8926 
 257   0.0000       3.397551        92.4521 
 258   0.0000       3.403730        92.6202 
 259   0.0000       3.409509        92.7775 
 260   0.0000       3.449288        93.8599 
 261   0.0000       3.452585        93.9496 
 262   0.0000       3.475127        94.5630 
 263   0.0000       3.492138        95.0259 
 264   0.0000       3.521063        95.8130 
 265   0.0000       3.535425        96.2038 
 266   0.0000       3.543375        96.4201 
 267   0.0000       3.552091        96.6573 
 268   0.0000       3.568806        97.1121 
 269   0.0000       3.595048        97.8262 
 270   0.0000       3.624056        98.6156 
 271   0.0000       3.648041        99.2682 
 272   0.0000       3.669395        99.8493 
 273   0.0000       3.683631       100.2367 
 274   0.0000       3.699108       100.6578 
 275   0.0000       3.722172       101.2855 
 276   0.0000       3.740179       101.7754 
 277   0.0000       3.754219       102.1575 
 278   0.0000       3.762575       102.3849 
 279   0.0000       3.788353       103.0863 
 280   0.0000       3.796830       103.3170 
 281   0.0000       3.863245       105.1242 
 282   0.0000       3.891705       105.8987 
 283   0.0000       3.896124       106.0189 
 284   0.0000       3.911506       106.4375 
 285   0.0000       3.928744       106.9066 
 286   0.0000       3.932854       107.0184 
 287   0.0000       4.007806       109.0580 
 288   0.0000       4.012258       109.1791 
 289   0.0000       4.014223       109.2325 
 290   0.0000       4.072418       110.8161 
 291   0.0000       4.095541       111.4453 
 292   0.0000       4.134667       112.5100 
 293   0.0000       4.166038       113.3637 
 294   0.0000       4.182908       113.8227 
 295   0.0000       4.211907       114.6118 
 296   0.0000       4.253081       115.7322 
 297   0.0000       4.267693       116.1298 
 298   0.0000       4.314921       117.4150 
 299   0.0000       4.317468       117.4843 
 300   0.0000       4.355810       118.5276 
 301   0.0000       4.397241       119.6550 
 302   0.0000       4.430705       120.5656 
 303   0.0000       4.449629       121.0806 
 304   0.0000       4.470668       121.6531 
 305   0.0000       4.483934       122.0140 
 306   0.0000       4.521299       123.0308 
 307   0.0000       4.522706       123.0691 
 308   0.0000       4.556973       124.0015 
 309   0.0000       4.614862       125.5768 
 310   0.0000       4.617075       125.6370 
 311   0.0000       4.657547       126.7383 
 312   0.0000       4.790938       130.3680 
 313   0.0000       4.857068       132.1675 
 314   0.0000       4.912253       133.6692 
 315   0.0000       4.924636       134.0062 
 316   0.0000       5.012221       136.3895 
 317   0.0000       5.056521       137.5949 
 318   0.0000       5.057541       137.6227 
 319   0.0000       5.074177       138.0754 
 320   0.0000       5.136858       139.7810 
 321   0.0000       5.159009       140.3838 
 322   0.0000       5.167409       140.6123 
 323   0.0000       5.234570       142.4399 
 324   0.0000       5.236591       142.4949 
 325   0.0000       5.285820       143.8345 
 326   0.0000       5.294631       144.0742 
 327   0.0000       5.328933       145.0076 
 328   0.0000       5.395263       146.8126 
 329   0.0000       5.484107       149.2301 
 330   0.0000       5.494309       149.5077 
 331   0.0000       5.531918       150.5311 
 332   0.0000       5.566081       151.4608 
 333   0.0000       5.657880       153.9588 
 334   0.0000       5.754280       156.5819 
 335   0.0000       5.871415       159.7693 
 336   0.0000       5.915275       160.9628 
 337   0.0000       5.941993       161.6899 
 338   0.0000       6.081018       165.4729 
 339   0.0000       6.126534       166.7115 
 340   0.0000       6.200743       168.7308 
 341   0.0000       6.309535       171.6912 
 342   0.0000      22.370964       608.7449 
 343   0.0000      22.431232       610.3848 
 344   0.0000      22.514757       612.6577 
 345   0.0000      22.556282       613.7876 
 346   0.0000      22.605247       615.1201 
 347   0.0000      22.989091       625.5650 
 348   0.0000      23.482144       638.9816 
 349   0.0000      32.807266       892.7311 
 350   0.0000      33.139950       901.7839 

                    ********************************
                    * MULLIKEN POPULATION ANALYSIS *
                    ********************************

-----------------------
MULLIKEN ATOMIC CHARGES
-----------------------
   0 C :   -0.008393
   1 C :   -0.008374
   2 N :   -0.047283
   3 N :   -0.047241
   4 C :   -0.235938
   5 C :   -0.290475
   6 C :   -0.290552
   7 H :    0.122572
   8 H :    0.122380
   9 H :    0.121543
  10 H :    0.121284
  11 H :    0.158643
  12 H :    0.158663
  13 C :   -0.313863
  14 C :   -0.314159
  15 H :    0.131254
  16 H :    0.131599
  17 H :    0.130990
  18 H :    0.131337
  19 H :    0.112982
  20 H :    0.113031
Sum of atomic charges:   -0.0000000

--------------------------------
MULLIKEN REDUCED ORBITAL CHARGES
--------------------------------
  0 C s       :     3.103718  s :     3.103718
      pz      :     0.755122  p :     2.731004
      px      :     1.037118
      py      :     0.938764
      dz2     :     0.036267  d :     0.159909
      dxz     :     0.027583
      dyz     :     0.051738
      dx2y2   :     0.009602
      dxy     :     0.034719
      f0      :     0.003069  f :     0.013762
      f+1     :     0.002378
      f-1     :     0.002286
      f+2     :     0.002060
      f-2     :     0.001034
      f+3     :     0.002151
      f-3     :     0.000783
  1 C s       :     3.103822  s :     3.103822
      pz      :     0.754827  p :     2.730882
      px      :     1.037285
      py      :     0.938770
      dz2     :     0.036280  d :     0.159908
      dxz     :     0.027597
      dyz     :     0.051712
      dx2y2   :     0.009600
      dxy     :     0.034719
      f0      :     0.003067  f :     0.013762
      f+1     :     0.002381
      f-1     :     0.002289
      f+2     :     0.002057
      f-2     :     0.001031
      f+3     :     0.002152
      f-3     :     0.000784
  2 N s       :     3.438640  s :     3.438640
      pz      :     1.039962  p :     3.499584
      px      :     1.458101
      py      :     1.001522
      dz2     :     0.028113  d :     0.103470
      dxz     :     0.016388
      dyz     :     0.029439
      dx2y2   :     0.015789
      dxy     :     0.013741
      f0      :     0.000760  f :     0.005589
      f+1     :     0.000633
      f-1     :     0.001288
      f+2     :     0.000792
      f-2     :     0.000477
      f+3     :     0.000811
      f-3     :     0.000826
  3 N s       :     3.438584  s :     3.438584
      pz      :     1.039880  p :     3.499601
      px      :     1.458121
      py      :     1.001600
      dz2     :     0.028108  d :     0.103468
      dxz     :     0.016385
      dyz     :     0.029453
      dx2y2   :     0.015789
      dxy     :     0.013732
      f0      :     0.000759  f :     0.005588
      f+1     :     0.000634
      f-1     :     0.001291
      f+2     :     0.000792
      f-2     :     0.000476
      f+3     :     0.000811
      f-3     :     0.000827
  4 C s       :     3.713067  s :     3.713067
      pz      :     1.105662  p :     2.400715
      px      :     0.670483
      py      :     0.624570
      dz2     :     0.014756  d :     0.108658
      dxz     :     0.021414
      dyz     :     0.032220
      dx2y2   :     0.008900
      dxy     :     0.031368
      f0      :     0.001356  f :     0.013498
      f+1     :     0.000460
      f-1     :     0.003362
      f+2     :     0.001931
      f-2     :     0.003681
      f+3     :     0.001801
      f-3     :     0.000907
  5 C s       :     3.303214  s :     3.303214
      pz      :     1.090872  p :     2.913177
      px      :     1.043515
      py      :     0.778789
      dz2     :     0.013083  d :     0.068780
      dxz     :     0.004202
      dyz     :     0.012783
      dx2y2   :     0.005807
      dxy     :     0.032905
      f0      :     0.001028  f :     0.005304
      f+1     :    -0.000039
      f-1     :     0.000787
      f+2     :     0.000605
      f-2     :     0.000344
      f+3     :     0.001424
      f-3     :     0.001154
  6 C s       :     3.303201  s :     3.303201
      pz      :     1.090738  p :     2.913266
      px      :     1.043565
      py      :     0.778964
      dz2     :     0.013121  d :     0.068782
      dxz     :     0.004184
      dyz     :     0.012769
      dx2y2   :     0.005803
      dxy     :     0.032906
      f0      :     0.001030  f :     0.005302
      f+1     :    -0.000043
      f-1     :     0.000790
      f+2     :     0.000604
      f-2     :     0.000346
      f+3     :     0.001423
      f-3     :     0.001152
  7 H s       :     0.856369  s :     0.856369
      pz      :     0.004524  p :     0.021058
      px      :     0.010639
      py      :     0.005896
  8 H s       :     0.856557  s :     0.856557
      pz      :     0.004567  p :     0.021063
      px      :     0.010701
      py      :     0.005795
  9 H s       :     0.857389  s :     0.857389
      pz      :     0.004803  p :     0.021068
      px      :     0.010331
      py      :     0.005933
 10 H s       :     0.857639  s :     0.857639
      pz      :     0.004862  p :     0.021077
      px      :     0.010386
      py      :     0.005828
 11 H s       :     0.819067  s :     0.819067
      pz      :     0.015016  p :     0.022290
      px      :     0.004005
      py      :     0.003269
 12 H s       :     0.819046  s :     0.819046
      pz      :     0.015023  p :     0.022292
      px      :     0.003999
      py      :     0.003270
 13 C s       :     3.320549  s :     3.320549
      pz      :     0.912008  p :     2.946026
      px      :     1.052267
      py      :     0.981751
      dz2     :     0.012521  d :     0.044696
      dxz     :     0.007208
      dyz     :     0.003712
      dx2y2   :     0.002949
      dxy     :     0.018306
      f0      :     0.000413  f :     0.002592
      f+1     :     0.000014
      f-1     :     0.001061
      f+2     :     0.000047
      f-2     :     0.000460
      f+3     :     0.000116
      f-3     :     0.000481
 14 C s       :     3.320813  s :     3.320813
      pz      :     0.912120  p :     2.946044
      px      :     1.052260
      py      :     0.981663
      dz2     :     0.012533  d :     0.044709
      dxz     :     0.007199
      dyz     :     0.003694
      dx2y2   :     0.002956
      dxy     :     0.018327
      f0      :     0.000413  f :     0.002593
      f+1     :     0.000013
      f-1     :     0.001061
      f+2     :     0.000048
      f-2     :     0.000461
      f+3     :     0.000116
      f-3     :     0.000481
 15 H s       :     0.846786  s :     0.846786
      pz      :     0.003902  p :     0.021960
      px      :     0.010449
      py      :     0.007608
 16 H s       :     0.846449  s :     0.846449
      pz      :     0.003901  p :     0.021952
      px      :     0.010417
      py      :     0.007633
 17 H s       :     0.847051  s :     0.847051
      pz      :     0.003897  p :     0.021960
      px      :     0.010385
      py      :     0.007678
 18 H s       :     0.846711  s :     0.846711
      pz      :     0.003892  p :     0.021952
      px      :     0.010358
      py      :     0.007702
 19 H s       :     0.864130  s :     0.864130
      pz      :     0.012589  p :     0.022888
      px      :     0.004152
      py      :     0.006146
 20 H s       :     0.864081  s :     0.864081
      pz      :     0.012596  p :     0.022888
      px      :     0.004156
      py      :     0.006136


                     *******************************
                     * LOEWDIN POPULATION ANALYSIS *
                     *******************************

----------------------
LOEWDIN ATOMIC CHARGES
----------------------
   0 C :   -0.225140
   1 C :   -0.225152
   2 N :    0.191458
   3 N :    0.191480
   4 C :   -0.350399
   5 C :   -0.278208
   6 C :   -0.278197
   7 H :    0.115151
   8 H :    0.115125
   9 H :    0.115160
  10 H :    0.115132
  11 H :    0.131660
  12 H :    0.131653
  13 C :   -0.263988
  14 C :   -0.264024
  15 H :    0.129195
  16 H :    0.129313
  17 H :    0.129221
  18 H :    0.129324
  19 H :    0.130621
  20 H :    0.130614

-------------------------------
LOEWDIN REDUCED ORBITAL CHARGES
-------------------------------
  0 C s       :     2.709565  s :     2.709565
      pz      :     0.893753  p :     2.852686
      px      :     0.932985
      py      :     1.025948
      dz2     :     0.159666  d :     0.583940
      dxz     :     0.090688
      dyz     :     0.170468
      dx2y2   :     0.063552
      dxy     :     0.099565
      f0      :     0.021121  f :     0.078950
      f+1     :     0.013893
      f-1     :     0.014175
      f+2     :     0.010595
      f-2     :     0.006701
      f+3     :     0.006908
      f-3     :     0.005557
  1 C s       :     2.709560  s :     2.709560
      pz      :     0.893662  p :     2.852724
      px      :     0.933055
      py      :     1.026007
      dz2     :     0.159690  d :     0.583922
      dxz     :     0.090721
      dyz     :     0.170413
      dx2y2   :     0.063534
      dxy     :     0.099563
      f0      :     0.021112  f :     0.078945
      f+1     :     0.013904
      f-1     :     0.014191
      f+2     :     0.010579
      f-2     :     0.006684
      f+3     :     0.006912
      f-3     :     0.005563
  2 N s       :     2.868014  s :     2.868014
      pz      :     1.161241  p :     3.577681
      px      :     1.263161
      py      :     1.153279
      dz2     :     0.095614  d :     0.339474
      dxz     :     0.050821
      dyz     :     0.108344
      dx2y2   :     0.046648
      dxy     :     0.038047
      f0      :     0.003143  f :     0.023373
      f+1     :     0.001871
      f-1     :     0.007722
      f+2     :     0.003191
      f-2     :     0.002848
      f+3     :     0.002334
      f-3     :     0.002264
  3 N s       :     2.868027  s :     2.868027
      pz      :     1.161138  p :     3.577664
      px      :     1.263189
      py      :     1.153337
      dz2     :     0.095586  d :     0.339457
      dxz     :     0.050822
      dyz     :     0.108378
      dx2y2   :     0.046643
      dxy     :     0.038027
      f0      :     0.003131  f :     0.023372
      f+1     :     0.001877
      f-1     :     0.007740
      f+2     :     0.003183
      f-2     :     0.002843
      f+3     :     0.002335
      f-3     :     0.002264
  4 C s       :     3.042000  s :     3.042000
      pz      :     1.279189  p :     2.782920
      px      :     0.687655
      py      :     0.816075
      dz2     :     0.067427  d :     0.437422
      dxz     :     0.037649
      dyz     :     0.144267
      dx2y2   :     0.080458
      dxy     :     0.107621
      f0      :     0.010136  f :     0.088057
      f+1     :     0.001271
      f-1     :     0.026779
      f+2     :     0.015269
      f-2     :     0.022486
      f+3     :     0.006007
      f-3     :     0.006109
  5 C s       :     2.834791  s :     2.834791
      pz      :     1.082152  p :     3.088060
      px      :     1.085087
      py      :     0.920821
      dz2     :     0.068703  d :     0.316109
      dxz     :     0.014667
      dyz     :     0.056133
      dx2y2   :     0.053061
      dxy     :     0.123544
      f0      :     0.004969  f :     0.039248
      f+1     :     0.000558
      f-1     :     0.005573
      f+2     :     0.007369
      f-2     :     0.005931
      f+3     :     0.007681
      f-3     :     0.007165
  6 C s       :     2.834807  s :     2.834807
      pz      :     1.082045  p :     3.088082
      px      :     1.085135
      py      :     0.920902
      dz2     :     0.068845  d :     0.316069
      dxz     :     0.014508
      dyz     :     0.056142
      dx2y2   :     0.053058
      dxy     :     0.123517
      f0      :     0.004971  f :     0.039239
      f+1     :     0.000551
      f-1     :     0.005572
      f+2     :     0.007369
      f-2     :     0.005957
      f+3     :     0.007673
      f-3     :     0.007146
  7 H s       :     0.825756  s :     0.825756
      pz      :     0.014708  p :     0.059094
      px      :     0.028981
      py      :     0.015404
  8 H s       :     0.825781  s :     0.825781
      pz      :     0.014818  p :     0.059093
      px      :     0.029105
      py      :     0.015170
  9 H s       :     0.825752  s :     0.825752
      pz      :     0.015435  p :     0.059087
      px      :     0.028193
      py      :     0.015460
 10 H s       :     0.825778  s :     0.825778
      pz      :     0.015584  p :     0.059089
      px      :     0.028295
      py      :     0.015210
 11 H s       :     0.807416  s :     0.807416
      pz      :     0.039080  p :     0.060924
      px      :     0.012582
      py      :     0.009263
 12 H s       :     0.807416  s :     0.807416
      pz      :     0.039097  p :     0.060931
      px      :     0.012569
      py      :     0.009266
 13 C s       :     2.814801  s :     2.814801
      pz      :     1.047901  p :     3.167085
      px      :     1.069170
      py      :     1.050014
      dz2     :     0.072170  d :     0.257185
      dxz     :     0.024545
      dyz     :     0.056653
      dx2y2   :     0.016021
      dxy     :     0.087796
      f0      :     0.002440  f :     0.024916
      f+1     :     0.004107
      f-1     :     0.005720
      f+2     :     0.004225
      f-2     :     0.003487
      f+3     :     0.001214
      f-3     :     0.003723
 14 C s       :     2.814779  s :     2.814779
      pz      :     1.047919  p :     3.167091
      px      :     1.069152
      py      :     1.050020
      dz2     :     0.072191  d :     0.257235
      dxz     :     0.024554
      dyz     :     0.056599
      dx2y2   :     0.016041
      dxy     :     0.087849
      f0      :     0.002442  f :     0.024919
      f+1     :     0.004098
      f-1     :     0.005720
      f+2     :     0.004222
      f-2     :     0.003492
      f+3     :     0.001218
      f-3     :     0.003727
 15 H s       :     0.811622  s :     0.811622
      pz      :     0.012123  p :     0.059183
      px      :     0.027649
      py      :     0.019411
 16 H s       :     0.811515  s :     0.811515
      pz      :     0.012116  p :     0.059171
      px      :     0.027592
      py      :     0.019464
 17 H s       :     0.811592  s :     0.811592
      pz      :     0.012183  p :     0.059187
      px      :     0.027442
      py      :     0.019562
 18 H s       :     0.811495  s :     0.811495
      pz      :     0.012167  p :     0.059181
      px      :     0.027397
      py      :     0.019617
 19 H s       :     0.810129  s :     0.810129
      pz      :     0.028441  p :     0.059249
      px      :     0.012830
      py      :     0.017978
 20 H s       :     0.810136  s :     0.810136
      pz      :     0.028460  p :     0.059250
      px      :     0.012836
      py      :     0.017955


                      *****************************
                      * MAYER POPULATION ANALYSIS *
                      *****************************

  NA   - Mulliken gross atomic population
  ZA   - Total nuclear charge
  QA   - Mulliken gross atomic charge
  VA   - Mayer's total valence
  BVA  - Mayer's bonded valence
  FA   - Mayer's free valence

  ATOM       NA         ZA         QA         VA         BVA        FA
  0 C      6.0084     6.0000    -0.0084     3.8374     3.8374    -0.0000
  1 C      6.0084     6.0000    -0.0084     3.8371     3.8371    -0.0000
  2 N      7.0473     7.0000    -0.0473     3.1847     3.1847     0.0000
  3 N      7.0472     7.0000    -0.0472     3.1849     3.1849     0.0000
  4 C      6.2359     6.0000    -0.2359     2.5611     2.5611     0.0000
  5 C      6.2905     6.0000    -0.2905     3.8358     3.8358    -0.0000
  6 C      6.2906     6.0000    -0.2906     3.8358     3.8358     0.0000
  7 H      0.8774     1.0000     0.1226     0.9558     0.9558    -0.0000
  8 H      0.8776     1.0000     0.1224     0.9559     0.9559     0.0000
  9 H      0.8785     1.0000     0.1215     0.9558     0.9558    -0.0000
 10 H      0.8787     1.0000     0.1213     0.9559     0.9559    -0.0000
 11 H      0.8414     1.0000     0.1586     0.9843     0.9843     0.0000
 12 H      0.8413     1.0000     0.1587     0.9843     0.9843     0.0000
 13 C      6.3139     6.0000    -0.3139     3.8795     3.8795    -0.0000
 14 C      6.3142     6.0000    -0.3142     3.8795     3.8795    -0.0000
 15 H      0.8687     1.0000     0.1313     0.9573     0.9573    -0.0000
 16 H      0.8684     1.0000     0.1316     0.9570     0.9570    -0.0000
 17 H      0.8690     1.0000     0.1310     0.9573     0.9573    -0.0000
 18 H      0.8687     1.0000     0.1313     0.9570     0.9570     0.0000
 19 H      0.8870     1.0000     0.1130     0.9821     0.9821     0.0000
 20 H      0.8870     1.0000     0.1130     0.9820     0.9820    -0.0000

  Mayer bond orders larger than 0.100000
B(  0-C ,  1-C ) :   1.7790 B(  0-C ,  2-N ) :   1.1253 B(  0-C , 13-C ) :   0.8582 
B(  1-C ,  3-N ) :   1.1253 B(  1-C , 14-C ) :   0.8580 B(  2-N ,  4-C ) :   1.1768 
B(  2-N ,  5-C ) :   0.8918 B(  3-N ,  4-C ) :   1.1769 B(  3-N ,  6-C ) :   0.8919 
B(  5-C ,  7-H ) :   0.9729 B(  5-C , 10-H ) :   0.9729 B(  5-C , 11-H ) :   0.9743 
B(  6-C ,  8-H ) :   0.9731 B(  6-C ,  9-H ) :   0.9727 B(  6-C , 12-H ) :   0.9743 
B( 13-C , 15-H ) :   0.9825 B( 13-C , 18-H ) :   0.9815 B( 13-C , 19-H ) :   1.0011 
B( 14-C , 16-H ) :   0.9822 B( 14-C , 17-H ) :   0.9819 B( 14-C , 20-H ) :   1.0012 


-------
[...]
     14       0.000444   0.000001   0.000001  -0.000001  -0.000007   0.000000
     15      -0.000419   0.004754   0.005662  -0.070057   0.061952   0.000094
     16       0.033226  -0.000038  -0.000034   0.000175  -0.000156   0.000225
     17      -0.003731  -0.000160  -0.000187   0.002252  -0.001990   0.001085
     18      -0.000357  -0.003893   0.006143   0.062106   0.069965  -0.000040
     19      -0.033101   0.000024  -0.000036  -0.000396  -0.000447   0.000222
     20      -0.003702   0.000095  -0.000152  -0.001573  -0.001765  -0.001078
     21       0.362028  -0.029669  -0.034888   0.426359  -0.377030   0.002198
     22      -0.204712   0.017344   0.020472  -0.254152   0.224766  -0.001232
     23       0.125819  -0.011766  -0.013726   0.163155  -0.144295   0.000173
     24       0.359284   0.024300  -0.037980  -0.381117  -0.429305  -0.002423
     25       0.198265   0.013868  -0.021766  -0.221968  -0.250049  -0.001336
     26       0.127894   0.009892  -0.015310  -0.149064  -0.167930  -0.000277
     27      -0.349086   0.023632  -0.036895  -0.370624  -0.417565   0.002560
     28       0.202170  -0.014161   0.022201   0.226728   0.255474  -0.001470
     29       0.145864  -0.011145   0.017249   0.168639   0.190019  -0.000469
     30      -0.348764  -0.028757  -0.034046   0.421481  -0.372723  -0.002845
     31      -0.197125  -0.016870  -0.020044   0.251942  -0.222820  -0.001600
     32       0.148985   0.013805   0.016216  -0.195756   0.173131   0.000614
     33      -0.008477   0.001542   0.001706  -0.014457   0.012829  -0.000507
     34       0.003736  -0.000001  -0.000001   0.000043  -0.000040  -0.000197
     35      -0.232535  -0.000178  -0.000294   0.005627  -0.004980  -0.014159
     36      -0.006024  -0.001293   0.001885   0.012956   0.014644   0.000360
     37      -0.003824   0.000001  -0.000006  -0.000082  -0.000093  -0.000189
     38      -0.231853   0.000090  -0.000097  -0.000783  -0.000958   0.014035
     39      -0.000140  -0.069349  -0.060639  -0.004754   0.005688   0.001089
     40       0.012293   0.000285   0.000282   0.000040  -0.000036   0.044000
     41      -0.007390   0.001262   0.001125   0.000167  -0.000168   0.048057
     42      -0.000061   0.060803  -0.069220   0.003953   0.006131  -0.000611
     43      -0.012259  -0.000155   0.000195  -0.000007  -0.000030   0.043243
     44      -0.007349  -0.001022   0.001153  -0.000096  -0.000120  -0.047326
     45      -0.144503   0.424222   0.370827   0.029090  -0.034660  -0.167137
     46      -0.100109   0.315166   0.275687   0.021776  -0.025888  -0.109889
     47      -0.002683   0.011037   0.009333  -0.000104  -0.000288   0.004961
     48      -0.144466  -0.368271   0.419419  -0.023864  -0.036970   0.161739
     49       0.101719   0.277834  -0.316626   0.018165   0.028062  -0.107903
     50      -0.002297  -0.008636   0.009465   0.000211  -0.000159  -0.005394
     51       0.143182  -0.371808   0.423289  -0.023910  -0.036919  -0.165834
     52       0.099640  -0.277609   0.316246  -0.018024  -0.027759  -0.109493
     53      -0.008389   0.024704  -0.027757   0.000812   0.001754   0.001800
     54       0.144155   0.419988   0.367513   0.028371  -0.033890   0.165815
     55      -0.101958  -0.318482  -0.278855  -0.021723   0.025884  -0.111066
     56      -0.007881  -0.026135  -0.022537  -0.000936   0.001528  -0.000991
     57       0.001978  -0.013509  -0.012064  -0.000193   0.000528  -0.011609
     58       0.055345  -0.000111  -0.000203  -0.000417   0.000331  -0.313003
     59       0.098081  -0.000050  -0.000257  -0.000809   0.000642  -0.570785
     60       0.001963   0.011738  -0.013641   0.000098   0.000510   0.011205
     61      -0.055032   0.001820  -0.002125  -0.000018   0.000125  -0.307364
     62       0.097735  -0.003594   0.004231   0.000041  -0.000220   0.561709
                 60         61         62    
      0       0.000015   0.000001  -0.000000
      1       0.001290  -0.000237  -0.000455
      2       0.000355  -0.000070  -0.000072
      3       0.000002  -0.000001  -0.000004
      4      -0.001305   0.000240  -0.000453
      5       0.000353  -0.000071   0.000072
      6      -0.000008   0.000000   0.000012
      7       0.000169  -0.000193  -0.000182
      8      -0.000364   0.000215   0.000677
      9      -0.000008   0.000001  -0.000017
     10      -0.000168   0.000195  -0.000182
     11      -0.000367   0.000219  -0.000675
     12      -0.000000   0.000002  -0.000002
     13      -0.000001   0.000000  -0.000292
     14       0.000048   0.000119   0.000001
     15       0.000060   0.001910   0.001923
     16       0.000090  -0.012743  -0.012783
     17       0.000580   0.063396   0.063740
     18       0.000017   0.001691  -0.001677
     19      -0.000093   0.012852  -0.012741
     20       0.000601   0.063775  -0.063367
     21       0.001292  -0.141238  -0.141928
     22      -0.000565   0.076897   0.077358
     23      -0.000052  -0.042773  -0.042998
     24       0.001552  -0.144161   0.143142
     25       0.000697  -0.076621   0.076167
     26       0.000042  -0.045092   0.044787
     27      -0.001576   0.141086  -0.140087
     28       0.000741  -0.078589   0.078119
     29       0.000128  -0.052631   0.052275
     30      -0.001765   0.142115   0.142770
     31      -0.000832   0.077293   0.077737
     32       0.000243  -0.054542  -0.054808
     33      -0.000278  -0.023600  -0.023739
     34      -0.000199   0.005982   0.006057
     35      -0.007692  -0.659835  -0.663761
     36      -0.000206  -0.017123   0.017023
     37       0.000199  -0.006321   0.006323
     38      -0.007927  -0.663928   0.660021
     39       0.001052  -0.000014  -0.000023
     40       0.042626  -0.000446  -0.000731
     41       0.047166  -0.000390  -0.000750
     42       0.000653  -0.000003   0.000011
     43      -0.043295   0.000451  -0.000728
     44       0.048002  -0.000397   0.000750
     45      -0.159644   0.002867   0.003722
     46      -0.104703   0.001655   0.002281
     47       0.004694  -0.000469  -0.000488
     48      -0.159903   0.002821  -0.003621
     49       0.106447  -0.001649   0.002248
     50       0.005261  -0.000477   0.000493
     51       0.163663  -0.002885   0.003729
     52       0.107792  -0.001654   0.002276
     53      -0.001823  -0.000361   0.000340
     54       0.158576  -0.002805  -0.003671
     55      -0.105983   0.001630   0.002269
     56      -0.001016  -0.000365  -0.000353
     57      -0.011501   0.000093   0.000184
     58      -0.309739   0.002635   0.005027
     59      -0.564575   0.004351   0.008957
     60      -0.011421   0.000086  -0.000174
     61       0.314328  -0.002667   0.005009
     62      -0.574200   0.004417  -0.008946


-----------
IR SPECTRUM
-----------

 Mode   freq       eps      Int      T**2         TX        TY        TZ
       cm**-1   L/(mol*cm) km/mol    a.u.
----------------------------------------------------------------------------
  6:    117.15   0.000214    1.08  0.000571  (-0.023865  0.000377 -0.000969)
  7:    123.69   0.000001    0.00  0.000002  (-0.000558 -0.001282  0.000096)
  8:    146.35   0.000001    0.01  0.000003  ( 0.000978 -0.001244  0.000061)
  9:    168.08   0.000743    3.76  0.001380  (-0.037143  0.000141  0.000498)
 10:    184.06   0.001323    6.69  0.002244  ( 0.047329 -0.000137 -0.001865)
 11:    187.79   0.000011    0.06  0.000019  (-0.004265  0.000722  0.000251)
 12:    277.29   0.000036    0.18  0.000040  ( 0.000988 -0.001164 -0.006169)
 13:    280.72   0.000300    1.51  0.000333  (-0.000134 -0.018248  0.000242)
 14:    290.08   0.000069    0.35  0.000075  ( 0.008616 -0.000123  0.000620)
 15:    303.41   0.000574    2.90  0.000591  ( 0.000736 -0.000077  0.024292)
 16:    319.85   0.000000    0.00  0.000000  (-0.000128  0.000135 -0.000252)
 17:    550.59   0.000239    1.21  0.000135  ( 0.000024  0.011632 -0.000001)
 18:    583.38   0.000967    4.89  0.000517  (-0.000177 -0.022745  0.000009)
 19:    627.37   0.000873    4.41  0.000434  ( 0.020835 -0.000039 -0.000274)
 20:    630.39   0.000331    1.67  0.000164  ( 0.000129 -0.000006  0.012804)
 21:    678.97   0.000000    0.00  0.000000  (-0.000012  0.000126  0.000039)
 22:    730.22   0.001290    6.52  0.000551  ( 0.000558 -0.000002  0.023473)
 23:    870.52   0.003806   19.23  0.001364  (-0.000240 -0.036937  0.000011)
 24:    976.71   0.000283    1.43  0.000090  ( 0.000181 -0.000002  0.009503)
 25:   1068.78   0.000026    0.13  0.000008  ( 0.002742 -0.000246 -0.000184)
 26:   1082.23   0.000006    0.03  0.000002  ( 0.000078 -0.001321  0.000011)
 27:   1085.12   0.000001    0.00  0.000000  (-0.000042 -0.000465 -0.000113)
 28:   1094.42   0.000001    0.00  0.000000  (-0.000060 -0.000010 -0.000456)
 29:   1121.91   0.000200    1.01  0.000056  (-0.000065 -0.007459  0.000012)
 30:   1159.85   0.000045    0.23  0.000012  (-0.003495  0.000095 -0.000055)
 31:   1160.25   0.000027    0.14  0.000007  ( 0.002699  0.000275  0.000014)
 32:   1182.35   0.000234    1.18  0.000062  ( 0.000123  0.000004  0.007859)
 33:   1259.34   0.000869    4.39  0.000215  (-0.000075 -0.014675  0.000008)
 34:   1397.17   0.000967    4.89  0.000216  (-0.000050  0.000006 -0.014694)
 35:   1403.19   0.000004    0.02  0.000001  (-0.000074  0.000963 -0.000125)
 36:   1430.73   0.000657    3.32  0.000143  ( 0.000845  0.000215  0.011938)
 37:   1437.62   0.013602   68.74  0.002953  ( 0.000244  0.054336 -0.000013)
 38:   1448.23   0.000193    0.98  0.000042  ( 0.000133 -0.006447 -0.000207)
 39:   1457.03   0.001014    5.13  0.000217  ( 0.001069 -0.000569  0.014689)
 40:   1463.13   0.003842   19.41  0.000819  (-0.001463 -0.000047 -0.028587)
 41:   1468.79   0.008891   44.93  0.001889  ( 0.000600  0.043459  0.000050)
 42:   1481.47   0.000019    0.10  0.000004  ( 0.000421  0.001974 -0.000162)
 43:   1483.72   0.000749    3.79  0.000158  ( 0.012549 -0.000154 -0.000244)
 44:   1498.51   0.000190    0.96  0.000040  (-0.006063 -0.001094 -0.001249)
 45:   1499.38   0.005619   28.40  0.001170  (-0.030299  0.000186 -0.015857)
 46:   1501.15   0.004897   24.75  0.001018  ( 0.022194 -0.000208 -0.022923)
 47:   1507.07   0.001351    6.83  0.000280  ( 0.000017  0.016728 -0.000146)
 48:   1517.57   0.000371    1.87  0.000076  ( 0.000091 -0.008730  0.000221)
 49:   1518.74   0.002508   12.68  0.000515  (-0.001044  0.000087  0.022679)
 50:   1752.67   0.000321    1.62  0.000057  ( 0.000139  0.000007  0.007557)
 51:   3061.45   0.003372   17.04  0.000344  ( 0.000043  0.018538 -0.000108)
 52:   3062.06   0.003487   17.62  0.000355  (-0.000257 -0.000133 -0.018849)
 53:   3065.16   0.026515  134.00  0.002700  ( 0.000191  0.051956 -0.000018)
 54:   3066.68   0.000625    3.16  0.000064  (-0.000276  0.000096 -0.007973)
 55:   3120.56   0.000019    0.09  0.000002  (-0.001359  0.000032  0.000048)
 56:   3120.60   0.004391   22.19  0.000439  (-0.020953  0.000056  0.000287)
 57:   3128.28   0.000039    0.20  0.000004  (-0.001959 -0.000054  0.000205)
 58:   3128.41   0.010430   52.71  0.001040  ( 0.032241 -0.000111 -0.000926)
 59:   3159.16   0.002516   12.71  0.000248  ( 0.000115  0.015762  0.000150)
 60:   3161.51   0.003798   19.19  0.000375  ( 0.000388 -0.000115  0.019358)
 61:   3192.88   0.001233    6.23  0.000121  ( 0.000308  0.000010  0.010974)
 62:   3193.14   0.000030    0.15  0.000003  ( 0.000014 -0.001713  0.000036)

* The epsilon (eps) is given for a Dirac delta lineshape.
** The dipole moment derivative (T) already includes vibrational overlap.

The first frequency considered to be a vibration is 6
The total number of vibrations considered is 57


--------------------------
THERMOCHEMISTRY AT 298.15K
--------------------------

Temperature         ... 298.15 K
Pressure            ... 1.00 atm
Total Mass          ... 124.19 AMU

Throughout the following assumptions are being made:
  (1) The electronic state is orbitally nondegenerate
  (2) There are no thermally accessible electronically excited states
  (3) Hindered rotations indicated by low frequency modes are not
      treated as such but are treated as vibrations and this may
      cause some error
  (4) All equations used are the standard statistical mechanics
      equations for an ideal gas
  (5) All vibrations are strictly harmonic

freq.     117.15  E(vib)   ...       0.44 
freq.     123.69  E(vib)   ...       0.43 
freq.     146.35  E(vib)   ...       0.41 
freq.     168.08  E(vib)   ...       0.38 
freq.     184.06  E(vib)   ...       0.37 
freq.     187.79  E(vib)   ...       0.36 
freq.     277.29  E(vib)   ...       0.28 
freq.     280.72  E(vib)   ...       0.28 
freq.     290.08  E(vib)   ...       0.27 
freq.     303.41  E(vib)   ...       0.26 
freq.     319.85  E(vib)   ...       0.25 
freq.     550.59  E(vib)   ...       0.12 
freq.     583.38  E(vib)   ...       0.11 
freq.     627.37  E(vib)   ...       0.09 
freq.     630.39  E(vib)   ...       0.09 
freq.     678.97  E(vib)   ...       0.08 
freq.     730.22  E(vib)   ...       0.06 
freq.     870.52  E(vib)   ...       0.04 
freq.     976.71  E(vib)   ...       0.03 
freq.    1068.78  E(vib)   ...       0.02 
freq.    1082.23  E(vib)   ...       0.02 
freq.    1085.12  E(vib)   ...       0.02 
freq.    1094.42  E(vib)   ...       0.02 
freq.    1121.91  E(vib)   ...       0.01 
freq.    1159.85  E(vib)   ...       0.01 
freq.    1160.25  E(vib)   ...       0.01 
freq.    1182.35  E(vib)   ...       0.01 
freq.    1259.34  E(vib)   ...       0.01 
freq.    1397.17  E(vib)   ...       0.00 
freq.    1403.19  E(vib)   ...       0.00 
freq.    1430.73  E(vib)   ...       0.00 
freq.    1437.62  E(vib)   ...       0.00 
freq.    1448.23  E(vib)   ...       0.00 
freq.    1457.03  E(vib)   ...       0.00 
freq.    1463.13  E(vib)   ...       0.00 
freq.    1468.79  E(vib)   ...       0.00 
freq.    1481.47  E(vib)   ...       0.00 
freq.    1483.72  E(vib)   ...       0.00 
freq.    1498.51  E(vib)   ...       0.00 
freq.    1499.38  E(vib)   ...       0.00 
freq.    1501.15  E(vib)   ...       0.00 
freq.    1507.07  E(vib)   ...       0.00 
freq.    1517.57  E(vib)   ...       0.00 
freq.    1518.74  E(vib)   ...       0.00 
freq.    1752.67  E(vib)   ...       0.00 
freq.    3061.45  E(vib)   ...       0.00 
freq.    3062.06  E(vib)   ...       0.00 
freq.    3065.16  E(vib)   ...       0.00 
freq.    3066.68  E(vib)   ...       0.00 
freq.    3120.56  E(vib)   ...       0.00 
freq.    3120.60  E(vib)   ...       0.00 
freq.    3128.28  E(vib)   ...       0.00 
freq.    3128.41  E(vib)   ...       0.00 
freq.    3159.16  E(vib)   ...       0.00 
freq.    3161.51  E(vib)   ...       0.00 
freq.    3192.88  E(vib)   ...       0.00 
freq.    3193.14  E(vib)   ...       0.00 

------------
INNER ENERGY
------------

The inner energy is: U= E(el) + E(ZPE) + E(vib) + E(rot) + E(trans)
    E(el)   - is the total energy from the electronic structure calculation
              = E(kin-el) + E(nuc-el) + E(el-el) + E(nuc-nuc)
    E(ZPE)  - the the zero temperature vibrational energy from the frequency calculation
    E(vib)  - the the finite temperature correction to E(ZPE) due to population
              of excited vibrational states
    E(rot)  - is the rotational thermal energy
    E(trans)- is the translational thermal energy

Summary of contributions to the inner energy U:
Electronic energy                ...   -383.47701409 Eh
Zero point energy                ...      0.18450177 Eh     115.78 kcal/mol
Thermal vibrational correction   ...      0.00722351 Eh       4.53 kcal/mol
Thermal rotational correction    ...      0.00141627 Eh       0.89 kcal/mol
Thermal translational correction ...      0.00141627 Eh       0.89 kcal/mol
-----------------------------------------------------------------------
Total thermal energy                   -383.28245626 Eh


Summary of corrections to the electronic energy:
(perhaps to be used in another calculation)
Total thermal correction                  0.01005605 Eh       6.31 kcal/mol
Non-thermal (ZPE) correction              0.18450177 Eh     115.78 kcal/mol
-----------------------------------------------------------------------
Total correction                          0.19455782 Eh     122.09 kcal/mol


--------
ENTHALPY
--------

The enthalpy is H = U + kB*T
                kB is Boltzmann's constant
Total free energy                 ...   -383.28245626 Eh 
Thermal Enthalpy correction       ...      0.00094421 Eh       0.59 kcal/mol
-----------------------------------------------------------------------
Total Enthalpy                    ...   -383.28151206 Eh


Note: Only C1 symmetry has been detected, increase convergence thresholds 
      if your molecule has a higher symmetry. Symmetry factor of 1.0 is   
      used for the rotational entropy correction. 
 

Note: Rotational entropy computed according to Herzberg 
Infrared and Raman Spectra, Chapter V,1, Van Nostrand Reinhold, 1945 
Point Group:  C1, Symmetry Number:   1  
Rotational constants in cm-1:     0.082586     0.051639     0.032547 

Vibrational entropy computed according to the QRRHO of S. Grimme
Chem.Eur.J. 2012 18 9955


-------
ENTROPY
-------

The entropy contributions are T*S = T*(S(el)+S(vib)+S(rot)+S(trans))
     S(el)   - electronic entropy
     S(vib)  - vibrational entropy
     S(rot)  - rotational entropy
     S(trans)- translational entropy
The entropies will be listed as multiplied by the temperature to get
units of energy

Electronic entropy                ...      0.00000000 Eh      0.00 kcal/mol
Vibrational entropy               ...      0.01247889 Eh      7.83 kcal/mol
Rotational entropy                ...      0.01370413 Eh      8.60 kcal/mol
Translational entropy             ...      0.01917803 Eh     12.03 kcal/mol
-----------------------------------------------------------------------
Final entropy term                ...      0.04536106 Eh     28.46 kcal/mol

In case the symmetry of your molecule has not been determined correctly
or in case you have a reason to use a different symmetry number we print 
out the resulting rotational entropy values for sn=1,12 :
 --------------------------------------------------------
|  sn= 1 | S(rot)=       0.01370413 Eh      8.60 kcal/mol|
|  sn= 2 | S(rot)=       0.01304968 Eh      8.19 kcal/mol|
|  sn= 3 | S(rot)=       0.01266684 Eh      7.95 kcal/mol|
|  sn= 4 | S(rot)=       0.01239522 Eh      7.78 kcal/mol|
|  sn= 5 | S(rot)=       0.01218453 Eh      7.65 kcal/mol|
|  sn= 6 | S(rot)=       0.01201239 Eh      7.54 kcal/mol|
|  sn= 7 | S(rot)=       0.01186684 Eh      7.45 kcal/mol|
|  sn= 8 | S(rot)=       0.01174076 Eh      7.37 kcal/mol|
|  sn= 9 | S(rot)=       0.01162956 Eh      7.30 kcal/mol|
|  sn=10 | S(rot)=       0.01153008 Eh      7.24 kcal/mol|
|  sn=11 | S(rot)=       0.01144009 Eh      7.18 kcal/mol|
|  sn=12 | S(rot)=       0.01135793 Eh      7.13 kcal/mol|
 --------------------------------------------------------


-------------------
GIBBS FREE ENERGY
-------------------

The Gibbs free energy is G = H - T*S

Total enthalpy                    ...   -383.28151206 Eh 
Total entropy correction          ...     -0.04536106 Eh    -28.46 kcal/mol
-----------------------------------------------------------------------
Final Gibbs free energy         ...   -383.32687311 Eh

For completeness - the Gibbs free energy minus the electronic energy
G-E(el)                           ...      0.15014097 Eh     94.21 kcal/mol


Timings for individual modules:

Sum of individual times         ...     1659.372 sec (=  27.656 min)
GTO integral calculation        ...        3.622 sec (=   0.060 min)   0.2 %
SCF iterations                  ...      482.275 sec (=   8.038 min)  29.1 %
SCF Gradient evaluation         ...      125.208 sec (=   2.087 min)   7.5 %
Geometry relaxation             ...        0.223 sec (=   0.004 min)   0.0 %
Analytical frequency calculation...     1048.044 sec (=  17.467 min)  63.2 %
                             ****ORCA TERMINATED NORMALLY****
TOTAL RUN TIME: 0 days 0 hours 27 minutes 41 seconds 413 msec
