
                                 *****************
                                 * O   R   C   A *
                                 *****************

                                            #,                                       
                                            ###                                      
                                            ####                                     
                                            #####                                    
                                            ######                                   
                                           ########,                                 
                                     ,,################,,,,,                         
                               ,,#################################,,                 
                          ,,##########################################,,             
                       ,#########################################, ''#####,          
                    ,#############################################,,   '####,        
                  ,##################################################,,,,####,       
                ,###########''''           ''''###############################       
              ,#####''   ,,,,##########,,,,          '''####'''          '####       
            ,##' ,,,,###########################,,,                        '##       
           ' ,,###''''                  '''############,,,                           
         ,,##''                                '''############,,,,        ,,,,,,###''
      ,#''                                            '''#######################'''  
     '                                                          ''''####''''         
             ,#######,   #######,   ,#######,      ##                                
            ,#'     '#,  ##    ##  ,#'     '#,    #''#        ######   ,####,        
            ##       ##  ##   ,#'  ##            #'  '#       #        #'  '#        
            ##       ##  #######   ##           ,######,      #####,   #    #        
            '#,     ,#'  ##    ##  '#,     ,#' ,#      #,         ##   #,  ,#        
             '#######'   ##     ##  '#######'  #'      '#     #####' # '####'        



                  #######################################################
                  #                        -***-                        #
                  #          Department of theory and spectroscopy      #
                  #    Directorship and core code : Frank Neese         #
                  #        Max Planck Institute fuer Kohlenforschung    #
                  #                Kaiser Wilhelm Platz 1               #
                  #                 D-45470 Muelheim/Ruhr               #
                  #                      Germany                        #
                  #                                                     #
                  #                  All rights reserved                #
                  #                        -***-                        #
                  #######################################################


                         Program Version 5.0.4 -  RELEASE  -


 With contributions from (in alphabetic order):
   Daniel Aravena         : Magnetic Suceptibility
   Michael Atanasov       : Ab Initio Ligand Field Theory (pilot matlab implementation)
   Alexander A. Auer      : GIAO ZORA, VPT2 properties, NMR spectrum
   Ute Becker             : Parallelization
   Giovanni Bistoni       : ED, misc. LED, open-shell LED, HFLD
   Martin Brehm           : Molecular dynamics
   Dmytro Bykov           : SCF Hessian
   Vijay G. Chilkuri      : MRCI spin determinant printing, contributions to CSF-ICE
   Dipayan Datta          : RHF DLPNO-CCSD density
   Achintya Kumar Dutta   : EOM-CC, STEOM-CC
   Dmitry Ganyushin       : Spin-Orbit,Spin-Spin,Magnetic field MRCI
   Miquel Garcia          : C-PCM and meta-GGA Hessian, CC/C-PCM, Gaussian charge scheme
   Yang Guo               : DLPNO-NEVPT2, F12-NEVPT2, CIM, IAO-localization
   Andreas Hansen         : Spin unrestricted coupled pair/coupled cluster methods
   Benjamin Helmich-Paris : MC-RPA, TRAH-SCF, COSX integrals
   Lee Huntington         : MR-EOM, pCC
   Robert Izsak           : Overlap fitted RIJCOSX, COSX-SCS-MP3, EOM
   Marcus Kettner         : VPT2
   Christian Kollmar      : KDIIS, OOCD, Brueckner-CCSD(T), CCSD density, CASPT2, CASPT2-K
   Simone Kossmann        : Meta GGA functionals, TD-DFT gradient, OOMP2, MP2 Hessian
   Martin Krupicka        : Initial AUTO-CI
   Lucas Lang             : DCDCAS
   Marvin Lechner         : AUTO-CI (C++ implementation), FIC-MRCC
   Dagmar Lenk            : GEPOL surface, SMD
   Dimitrios Liakos       : Extrapolation schemes; Compound Job, initial MDCI parallelization
   Dimitrios Manganas     : Further ROCIS development; embedding schemes
   Dimitrios Pantazis     : SARC Basis sets
   Anastasios Papadopoulos: AUTO-CI, single reference methods and gradients
   Taras Petrenko         : DFT Hessian,TD-DFT gradient, ASA, ECA, R-Raman, ABS, FL, XAS/XES, NRVS
   Peter Pinski           : DLPNO-MP2, DLPNO-MP2 Gradient
   Christoph Reimann      : Effective Core Potentials
   Marius Retegan         : Local ZFS, SOC
   Christoph Riplinger    : Optimizer, TS searches, QM/MM, DLPNO-CCSD(T), (RO)-DLPNO pert. Triples
   Tobias Risthaus        : Range-separated hybrids, TD-DFT gradient, RPA, STAB
   Michael Roemelt        : Original ROCIS implementation
   Masaaki Saitow         : Open-shell DLPNO-CCSD energy and density
   Barbara Sandhoefer     : DKH picture change effects
   Avijit Sen             : IP-ROCIS
   Kantharuban Sivalingam : CASSCF convergence, NEVPT2, FIC-MRCI
   Bernardo de Souza      : ESD, SOC TD-DFT
   Georgi Stoychev        : AutoAux, RI-MP2 NMR, DLPNO-MP2 response
   Willem Van den Heuvel  : Paramagnetic NMR
   Boris Wezisla          : Elementary symmetry handling
   Frank Wennmohs         : Technical directorship


 We gratefully acknowledge several colleagues who have allowed us to
 interface, adapt or use parts of their codes:
   Stefan Grimme, W. Hujo, H. Kruse, P. Pracht,  : VdW corrections, initial TS optimization,
                  C. Bannwarth, S. Ehlert          DFT functionals, gCP, sTDA/sTD-DF
   Ed Valeev, F. Pavosevic, A. Kumar             : LibInt (2-el integral package), F12 methods
   Garnet Chan, S. Sharma, J. Yang, R. Olivares  : DMRG
   Ulf Ekstrom                                   : XCFun DFT Library
   Mihaly Kallay                                 : mrcc  (arbitrary order and MRCC methods)
   Jiri Pittner, Ondrej Demel                    : Mk-CCSD
   Frank Weinhold                                : gennbo (NPA and NBO analysis)
   Christopher J. Cramer and Donald G. Truhlar   : smd solvation model
   Lars Goerigk                                  : TD-DFT with DH, B97 family of functionals
   V. Asgeirsson, H. Jonsson                     : NEB implementation
   FAccTs GmbH                                   : IRC, NEB, NEB-TS, DLPNO-Multilevel, CI-OPT
                                                   MM, QMMM, 2- and 3-layer-ONIOM, Crystal-QMMM,
                                                   LR-CPCM, SF, NACMEs, symmetry and pop. for TD-DFT,
                                                   nearIR, NL-DFT gradient (VV10), updates on ESD,
                                                   ML-optimized integration grids
   S Lehtola, MJT Oliveira, MAL Marques          : LibXC Library
   Liviu Ungur et al                             : ANISO software


 Your calculation uses the libint2 library for the computation of 2-el integrals
 For citations please refer to: http://libint.valeyev.net

 Your ORCA version has been built with support for libXC version: 5.1.0
 For citations please refer to: https://tddft.org/programs/libxc/

 This ORCA versions uses:
   CBLAS   interface :  Fast vector & matrix operations
   LAPACKE interface :  Fast linear algebra routines
   SCALAPACK package :  Parallel linear algebra routines
   Shared memory     :  Shared parallel matrices
   BLAS/LAPACK       :  OpenBLAS 0.3.15  USE64BITINT DYNAMIC_ARCH NO_AFFINITY SkylakeX SINGLE_THREADED
        Core in use  :  SkylakeX
   Copyright (c) 2011-2014, The OpenBLAS Project




***************************************
The coordinates will be read from file: 3_deprot.xyz
***************************************


Your calculation utilizes the atom-pairwise dispersion correction
based on tight binding partial charges (D4)
Cite in your paper:
E.Caldeweyher, C.Bannwarth, S.Grimme, J.Chem.Phys., (2017), 147, 034112.
E.Caldeweyher, S.Ehlert, A.Hansen, H.Neugebauer, S.Grimme, J.Chem.Phys., (2018), in progress.
   

XCFun DFT library Copyright 2009-2010 Ulf Ekstrom and contributors.
See http://admol.org/xcfun for more information.
This is free software; see the source code for copying conditions.
There is ABSOLUTELY NO WARRANTY; not even for MERCHANTABILITY or FITNESS FOR A PARTICULAR PURPOSE.
For details see the documentation.
Scientific users of this library should cite U. Ekstrom, L. Visscher, R. Bast, A. J. Thorvaldsen and K. Ruud;
J.Chem.Theor.Comp. 2010, DOI: 10.1021/ct100117s
XCFun Version 0.99 

================================================================================

----- Orbital basis set information -----
Your calculation utilizes the basis: def2-TZVP
   F. Weigend and R. Ahlrichs, Phys. Chem. Chem. Phys. 7, 3297 (2005).

----- AuxJ basis set information -----
Your calculation utilizes the auxiliary basis: def2/J
   F. Weigend, Phys. Chem. Chem. Phys. 8, 1057 (2006).

================================================================================
                                        WARNINGS
                       Please study these warnings very carefully!
================================================================================


WARNING: Geometry Optimization
  ===> : Switching off AutoStart
         For restart on a previous wavefunction, please use MOREAD

INFO   : the flag for use of the SHARK integral package has been found!

================================================================================
                                       INPUT FILE
================================================================================
NAME = 3_deprot.inp
|  1> # ORCA 5.0.4 - /users/bwb16179/postgrad/2024_06/pKa_Reviewer_Comments/Gas_Z=0/3_deprot.inp # write input file
|  2> # Basic Mode
|  3> #
|  4> ! Opt Freq wB97X Def2-TZVP D4 SlowConv TightSCF Defgrid2 Def2/J RIJCOSX 
|  5> 
|  6> %PAL NPROCS 4 END
|  7> 
|  8> %maxcore 4500
|  9> 
| 10> %geom
| 11> Maxiter 150
| 12> END
| 13> 
| 14> * xyzfile 0 1 3_deprot.xyz
| 15> 
| 16>                          ****END OF INPUT****
================================================================================

                       *****************************
                       * Geometry Optimization Run *
                       *****************************

Geometry optimization settings:
Update method            Update   .... BFGS
Choice of coordinates    CoordSys .... Z-matrix Internals
Initial Hessian          InHess   .... Almoef's Model

Convergence Tolerances:
Energy Change            TolE     ....  5.0000e-06 Eh
Max. Gradient            TolMAXG  ....  3.0000e-04 Eh/bohr
RMS Gradient             TolRMSG  ....  1.0000e-04 Eh/bohr
Max. Displacement        TolMAXD  ....  4.0000e-03 bohr
RMS Displacement         TolRMSD  ....  2.0000e-03 bohr
Strict Convergence                ....  False
------------------------------------------------------------------------------
                        ORCA OPTIMIZATION COORDINATE SETUP
------------------------------------------------------------------------------

The optimization will be done in new redundant internal coordinates
Making redundant internal coordinates   ...  (new redundants) done
Evaluating the initial hessian          ...  (Almloef) done
Evaluating the coordinates              ...  done
Calculating the B-matrix                .... done
Calculating the G-matrix                .... done
Diagonalizing the G-matrix              .... done
The first mode is                       ....   29
The number of degrees of freedom        ....   39

    -----------------------------------------------------------------
                    Redundant Internal Coordinates


    -----------------------------------------------------------------
         Definition                    Initial Value    Approx d2E/dq
    -----------------------------------------------------------------
      1. B(C   2,N   0)                  1.3837         0.572744   
      2. B(C   3,C   2)                  1.3562         0.707333   
      3. B(C   3,N   1)                  1.3836         0.572949   
      4. B(C   4,N   1)                  1.3616         0.621097   
      5. B(C   4,N   0)                  1.3617         0.620980   
      6. B(Cl  5,C   2)                  1.7030         0.443976   
      7. B(Cl  6,C   3)                  1.7030         0.443979   
      8. B(C   7,N   0)                  1.4480         0.452219   
      9. B(C   8,N   1)                  1.4481         0.452067   
     10. B(H   9,C   7)                  1.0959         0.352323   
     11. B(H  10,C   8)                  1.0959         0.352322   
     12. B(H  11,C   7)                  1.1002         0.346889   
     13. B(H  12,C   8)                  1.1000         0.347130   
     14. B(H  13,C   8)                  1.1002         0.346853   
     15. B(H  14,C   7)                  1.1000         0.347073   
     16. A(C   4,N   0,C   7)          123.4822         0.405128   
     17. A(C   2,N   0,C   4)          112.2229         0.422494   
     18. A(C   2,N   0,C   7)          124.2948         0.399395   
     19. A(C   4,N   1,C   8)          123.4994         0.405117   
     20. A(C   3,N   1,C   4)          112.2266         0.422535   
     21. A(C   3,N   1,C   8)          124.2740         0.399396   
     22. A(C   3,C   2,Cl  5)          129.7679         0.437647   
     23. A(N   0,C   2,Cl  5)          123.9658         0.418648   
     24. A(N   0,C   2,C   3)          106.2664         0.435317   
     25. A(C   2,C   3,Cl  6)          129.7811         0.437648   
     26. A(N   1,C   3,C   2)          106.2712         0.435346   
     27. A(N   1,C   3,Cl  6)          123.9477         0.418676   
     28. A(N   0,C   4,N   1)          103.0129         0.428668   
     29. A(N   0,C   7,H   9)          107.0222         0.331494   
     30. A(H  11,C   7,H  14)          108.8593         0.287477   
     31. A(H   9,C   7,H  14)          109.6605         0.288176   
     32. A(N   0,C   7,H  14)          110.7467         0.330672   
     33. A(H   9,C   7,H  11)          109.5891         0.288152   
     34. A(N   0,C   7,H  11)          110.9410         0.330643   
     35. A(N   1,C   8,H  10)          107.0240         0.331476   
     36. A(H  12,C   8,H  13)          108.8790         0.287480   
     37. A(H  10,C   8,H  13)          109.5800         0.288148   
     38. A(N   1,C   8,H  13)          110.9427         0.330619   
     39. A(H  10,C   8,H  12)          109.6751         0.288184   
     40. A(N   1,C   8,H  12)          110.7176         0.330662   
     41. D(Cl  5,C   2,N   0,C   4)    179.9122         0.026268   
     42. D(Cl  5,C   2,N   0,C   7)     -0.2265         0.026268   
     43. D(C   3,C   2,N   0,C   7)    179.8096         0.026268   
     44. D(C   3,C   2,N   0,C   4)     -0.0518         0.026268   
     45. D(Cl  6,C   3,N   1,C   4)    179.8777         0.026288   
     46. D(C   2,C   3,N   1,C   8)    179.9019         0.026288   
     47. D(Cl  6,C   3,C   2,Cl  5)      0.1663         0.035300   
     48. D(N   1,C   3,C   2,Cl  5)   -179.8912         0.035300   
     49. D(Cl  6,C   3,C   2,N   0)   -179.8725         0.035300   
     50. D(C   2,C   3,N   1,C   4)     -0.0690         0.026288   
     51. D(N   1,C   3,C   2,N   0)      0.0700         0.035300   
     52. D(Cl  6,C   3,N   1,C   8)     -0.1514         0.026288   
     53. D(N   0,C   4,N   1,C   3)      0.0364         0.028310   
     54. D(N   1,C   4,N   0,C   7)   -179.8528         0.028298   
     55. D(N   1,C   4,N   0,C   2)      0.0098         0.028298   
     56. D(N   0,C   4,N   1,C   8)   -179.9347         0.028310   
     57. D(H  14,C   7,N   0,C   4)    120.7340         0.017448   
     58. D(H  14,C   7,N   0,C   2)    -59.1120         0.017448   
     59. D(H  11,C   7,N   0,C   4)   -118.2641         0.017448   
     60. D(H  11,C   7,N   0,C   2)     61.8898         0.017448   
     61. D(H   9,C   7,N   0,C   4)      1.2468         0.017448   
     62. D(H   9,C   7,N   0,C   2)   -178.5993         0.017448   
     63. D(H  13,C   8,N   1,C   4)   -117.5376         0.017436   
     64. D(H  13,C   8,N   1,C   3)     62.4948         0.017436   
     65. D(H  12,C   8,N   1,C   4)    121.4541         0.017436   
     66. D(H  12,C   8,N   1,C   3)    -58.5136         0.017436   
     67. D(H  10,C   8,N   1,C   4)      1.9645         0.017436   
     68. D(H  10,C   8,N   1,C   3)   -178.0031         0.017436   
    -----------------------------------------------------------------

Number of atoms                         .... 15
Number of degrees of freedom            .... 68

         *************************************************************
         *                GEOMETRY OPTIMIZATION CYCLE   1            *
         *************************************************************
---------------------------------
CARTESIAN COORDINATES (ANGSTROEM)
---------------------------------
  N      0.068930    1.071273    1.103197
  N     -0.069675   -1.055655    1.111495
  C      0.038818    0.679582   -0.223543
  C     -0.048345   -0.673829   -0.218186
  C      0.002615    0.010888    1.954857
  Cl     0.102817    1.761902   -1.536823
  Cl    -0.120598   -1.766280   -1.522617
  C      0.163145    2.446717    1.545877
  C     -0.159023   -2.428160    1.564486
  H      0.190685    2.430010    2.641347
  H     -0.190757   -2.403158    2.659685
  H     -0.706777    3.029123    1.207612
  H     -1.071061   -2.906782    1.178384
  H      0.715006   -3.009001    1.234117
  H      1.078810    2.918481    1.159792

----------------------------
CARTESIAN COORDINATES (A.U.)
----------------------------
  NO LB      ZA    FRAG     MASS         X           Y           Z
   0 N     7.0000    0    14.007    0.130259    2.024413    2.084740
   1 N     7.0000    0    14.007   -0.131667   -1.994899    2.100421
   2 C     6.0000    0    12.011    0.073355    1.284224   -0.422435
   3 C     6.0000    0    12.011   -0.091359   -1.273352   -0.412312
   4 C     6.0000    0    12.011    0.004942    0.020575    3.694144
   5 Cl   17.0000    0    35.453    0.194296    3.329512   -2.904175
   6 Cl   17.0000    0    35.453   -0.227897   -3.337785   -2.877329
   7 C     6.0000    0    12.011    0.308299    4.623625    2.921284
   8 C     6.0000    0    12.011   -0.300510   -4.588557    2.956450
   9 H     1.0000    0     1.008    0.360342    4.592053    4.991422
  10 H     1.0000    0     1.008   -0.360478   -4.541310    5.026076
  11 H     1.0000    0     1.008   -1.335615    5.724213    2.282056
  12 H     1.0000    0     1.008   -2.024012   -5.493022    2.226823
  13 H     1.0000    0     1.008    1.351166   -5.686188    2.332143
  14 H     1.0000    0     1.008    2.038655    5.515130    2.191689

--------------------------------
INTERNAL COORDINATES (ANGSTROEM)
--------------------------------
 N      0   0   0     0.000000000000     0.00000000     0.00000000
 N      1   0   0     2.131455587155     0.00000000     0.00000000
 C      1   2   0     1.383679008884    73.73022631     0.00000000
 C      3   1   2     1.356225431460   106.26636302   359.95458602
 C      2   1   3     1.361616421021    38.49439256   180.00943163
 Cl     3   1   2     1.703002293833   123.96575178   179.91856111
 Cl     4   3   1     1.703000269281   129.78109184   180.12747411
 C      1   2   3     1.447994559990   161.97452218   180.38722095
 C      2   1   3     1.448086284104   161.99377291   180.18546729
 H      8   1   2     1.095943473154   107.02217229     0.95079768
 H      9   2   1     1.095943883765   107.02398048     1.83311905
 H      8   1   2     1.100174643020   110.94095429   241.43986877
 H      9   2   1     1.099985039322   110.71763168   121.32269389
 H      9   2   1     1.100202997761   110.94270716   242.33104286
 H      8   1   2     1.100029677393   110.74670594   120.43802617

---------------------------
INTERNAL COORDINATES (A.U.)
---------------------------
 N      0   0   0     0.000000000000     0.00000000     0.00000000
 N      1   0   0     4.027867326339     0.00000000     0.00000000
 C      1   2   0     2.614774384046    73.73022631     0.00000000
 C      3   1   2     2.562894641319   106.26636302   359.95458602
 C      2   1   3     2.573082135179    38.49439256   180.00943163
 Cl     3   1   2     3.218207940784   123.96575178   179.91856111
 Cl     4   3   1     3.218204114935   129.78109184   180.12747411
 C      1   2   3     2.736313161789   161.97452218   180.38722095
 C      2   1   3     2.736486495244   161.99377291   180.18546729
 H      8   1   2     2.071033022520   107.02217229     0.95079768
 H      9   2   1     2.071033798461   107.02398048     1.83311905
 H      8   1   2     2.079028774793   110.94095429   241.43986877
 H      9   2   1     2.078670475729   110.71763168   121.32269389
 H      9   2   1     2.079082357488   110.94270716   242.33104286
 H      8   1   2     2.078754829459   110.74670594   120.43802617

---------------------
BASIS SET INFORMATION
---------------------
There are 4 groups of distinct atoms

 Group   1 Type N   : 11s6p2d1f contracted to 5s3p2d1f pattern {62111/411/11/1}
 Group   2 Type C   : 11s6p2d1f contracted to 5s3p2d1f pattern {62111/411/11/1}
 Group   3 Type Cl  : 14s9p3d1f contracted to 5s5p2d1f pattern {73211/51111/21/1}
 Group   4 Type H   : 5s1p contracted to 3s1p pattern {311/1}

Atom   0N    basis set group =>   1
Atom   1N    basis set group =>   1
Atom   2C    basis set group =>   2
Atom   3C    basis set group =>   2
Atom   4C    basis set group =>   2
Atom   5Cl   basis set group =>   3
Atom   6Cl   basis set group =>   3
Atom   7C    basis set group =>   2
Atom   8C    basis set group =>   2
Atom   9H    basis set group =>   4
Atom  10H    basis set group =>   4
Atom  11H    basis set group =>   4
Atom  12H    basis set group =>   4
Atom  13H    basis set group =>   4
Atom  14H    basis set group =>   4
---------------------------------
AUXILIARY/J BASIS SET INFORMATION
---------------------------------
There are 4 groups of distinct atoms

 Group   1 Type N   : 12s5p4d2f1g contracted to 6s4p3d1f1g pattern {711111/2111/211/2/1}
 Group   2 Type C   : 12s5p4d2f1g contracted to 6s4p3d1f1g pattern {711111/2111/211/2/1}
 Group   3 Type Cl  : 14s5p5d2f1g contracted to 8s4p3d1f1g pattern {71111111/2111/311/2/1}
 Group   4 Type H   : 5s2p1d contracted to 3s1p1d pattern {311/2/1}

Atom   0N    basis set group =>   1
Atom   1N    basis set group =>   1
Atom   2C    basis set group =>   2
Atom   3C    basis set group =>   2
Atom   4C    basis set group =>   2
Atom   5Cl   basis set group =>   3
Atom   6Cl   basis set group =>   3
Atom   7C    basis set group =>   2
Atom   8C    basis set group =>   2
Atom   9H    basis set group =>   4
Atom  10H    basis set group =>   4
Atom  11H    basis set group =>   4
Atom  12H    basis set group =>   4
Atom  13H    basis set group =>   4
Atom  14H    basis set group =>   4


           ************************************************************
           *        Program running with 4 parallel MPI-processes     *
           *              working on a common directory               *
           ************************************************************
------------------------------------------------------------------------------
                           ORCA GTO INTEGRAL CALCULATION
                           -- RI-GTO INTEGRALS CHOSEN --
------------------------------------------------------------------------------
------------------------------------------------------------------------------
                   ___                                                        
                  /   \      - P O W E R E D   B Y -                         
                 /     \                                                     
                 |  |  |   _    _      __       _____    __    __             
                 |  |  |  | |  | |    /  \     |  _  \  |  |  /  |          
                  \  \/   | |  | |   /    \    | | | |  |  | /  /          
                 / \  \   | |__| |  /  /\  \   | |_| |  |  |/  /          
                |  |  |   |  __  | /  /__\  \  |    /   |      \           
                |  |  |   | |  | | |   __   |  |    \   |  |\   \          
                \     /   | |  | | |  |  |  |  | |\  \  |  | \   \       
                 \___/    |_|  |_| |__|  |__|  |_| \__\ |__|  \__/        
                                                                              
                      - O R C A' S   B I G   F R I E N D -                    
                                      &                                       
                       - I N T E G R A L  F E E D E R -                       
                                                                              
 v1 FN, 2020, v2 2021                                                         
------------------------------------------------------------------------------


Reading SHARK input file 3_deprot.SHARKINP.tmp ... ok
----------------------
SHARK INTEGRAL PACKAGE
----------------------

Number of atoms                             ...     15
Number of basis functions                   ...    327
Number of shells                            ...    127
Maximum angular momentum                    ...      3
Integral batch strategy                     ... SHARK/LIBINT Hybrid
RI-J (if used) integral strategy            ... SPLIT-RIJ (Revised 2003 algorithm where possible)
Printlevel                                  ...      1
Contraction scheme used                     ... SEGMENTED contraction
Coulomb Range Separation                    ... NOT USED
Exchange Range Separation                   ... Long Range
   Mu parameter                             ...  0.300000
   Scaling (regular/separated)              ...  0.157706  0.842294
Finite Nucleus Model                        ... NOT USED
Auxiliary Coulomb fitting basis             ... AVAILABLE
   # of basis functions in Aux-J            ...    511
   # of shells in Aux-J                     ...    169
   Maximum angular momentum in Aux-J        ...      4
Auxiliary J/K fitting basis                 ... NOT available
Auxiliary Correlation fitting basis         ... NOT available
Auxiliary 'external' fitting basis          ... NOT available
Integral threshold                          ...     2.500000e-11
Primitive cut-off                           ...     2.500000e-12
Primitive pair pre-selection threshold      ...     2.500000e-12

Calculating pre-screening integrals         ... done (  0.1 sec) Dimension = 127
Organizing shell pair data                  ... done (  0.1 sec)
Shell pair information
Total number of shell pairs                 ...      8128
Shell pairs after pre-screening             ...      7174
Total number of primitive shell pairs       ...     26809
Primitive shell pairs kept                  ...     17001
          la=0 lb=0:   1679 shell pairs
          la=1 lb=0:   2019 shell pairs
          la=1 lb=1:    641 shell pairs
          la=2 lb=0:   1030 shell pairs
          la=2 lb=1:    622 shell pairs
          la=2 lb=2:    168 shell pairs
          la=3 lb=0:    509 shell pairs
          la=3 lb=1:    305 shell pairs
          la=3 lb=2:    156 shell pairs
          la=3 lb=3:     45 shell pairs

Calculating one electron integrals          ... done (  0.0 sec)
Calculating RI/J V-Matrix + Cholesky decomp.... done (  0.3 sec)
Calculating Nuclear repulsion               ... done (  0.0 sec) ENN=    605.673038821803 Eh

SHARK setup successfully completed in   1.1 seconds

Maximum memory used throughout the entire GTOINT-calculation: 22.1 MB


           ************************************************************
           *        Program running with 4 parallel MPI-processes     *
           *              working on a common directory               *
           ************************************************************
-------------------------------------------------------------------------------
                                 ORCA SCF
-------------------------------------------------------------------------------

------------
SCF SETTINGS
------------
Hamiltonian:
 Density Functional     Method          .... DFT(GTOs)
 Exchange Functional    Exchange        .... WB97X
 Correlation Functional Correlation     .... WB97X
 Gradients option       PostSCFGGA      .... off
 Hybrid DFT is turned on
   Fraction HF Exchange ScalHFX         ....  0.157706
   Scaling of DF-GGA-X  ScalDFX         ....  0.000000
   Scaling of DF-GGA-C  ScalDFC         ....  1.000000
   Scaling of DF-LDA-C  ScalLDAC        ....  1.000000
   Perturbative correction              ....  0.000000
   Density functional embedding theory  .... OFF
 Long-range corrected/Screened/Range-Separated Hybrid DFT is turned on
   Amount of maximum screened exact exchange              ....  0.842294
   Range separation parameter mu (erf(mu*r12)/r12)        ....  0.300000
 RI-approximation to the Coulomb term is turned on
   Number of AuxJ basis functions       .... 511
   RIJ-COSX (HFX calculated with COS-X)).... on


General Settings:
 Integral files         IntName         .... 3_deprot
 Hartree-Fock type      HFTyp           .... RHF
 Total Charge           Charge          ....    0
 Multiplicity           Mult            ....    1
 Number of Electrons    NEL             ....   84
 Basis Dimension        Dim             ....  327
 Nuclear Repulsion      ENuc            ....    605.6730388218 Eh

Convergence Acceleration:
 DIIS                   CNVDIIS         .... on
   Start iteration      DIISMaxIt       ....     0
   Startup error        DIISStart       ....  0.200000
   # of expansion vecs  DIISMaxEq       ....     5
   Bias factor          DIISBfac        ....   1.050
   Max. coefficient     DIISMaxC        ....  10.000
 Trust-Rad. Augm. Hess. CNVTRAH         .... auto
   Auto Start mean grad. ratio tolernc. ....  1.125000
   Auto Start start iteration           ....    20
   Auto Start num. interpolation iter.  ....    10
   Max. Number of Micro iterations      ....    16
   Max. Number of Macro iterations      .... Maxiter - #DIIS iter
   Number of Davidson start vectors     ....     2
   Converg. threshold I  (grad. norm)   ....   1.000e-05
   Converg. threshold II (energy diff.) ....   1.000e-08
   Grad. Scal. Fac. for Micro threshold ....   0.100
   Minimum threshold for Micro iter.    ....   0.010
   NR start threshold (gradient norm)   ....   0.001
   Initial trust radius                 ....   0.400
   Minimum AH scaling param. (alpha)    ....   1.000
   Maximum AH scaling param. (alpha)    .... 1000.000
   Orbital update algorithm             .... Taylor
   White noise on init. David. guess    .... on
   Maximum white noise                  ....   0.010
   Quad. conv. algorithm                .... NR
 SOSCF                  CNVSOSCF        .... on
   Start iteration      SOSCFMaxIt      ....   150
   Startup grad/error   SOSCFStart      ....  0.001000
 Level Shifting         CNVShift        .... on
   Level shift para.    LevelShift      ....    0.2500
   Turn off err/grad.   ShiftErr        ....    0.0000
 Zerner damping         CNVZerner       .... off
 Static damping         CNVDamp         .... on
   Fraction old density DampFac         ....    0.8500
   Max. Damping (<1)    DampMax         ....    0.9800
   Min. Damping (>=0)   DampMin         ....    0.0000
   Turn off err/grad.   DampErr         ....    0.0300
 Fernandez-Rico         CNVRico         .... off

SCF Procedure:
 Maximum # iterations   MaxIter         ....   125
 SCF integral mode      SCFMode         .... Direct
   Integral package                     .... SHARK and LIBINT hybrid scheme
 Reset frequency        DirectResetFreq ....    20
 Integral Threshold     Thresh          ....  2.500e-11 Eh
 Primitive CutOff       TCut            ....  2.500e-12 Eh

Convergence Tolerance:
 Convergence Check Mode ConvCheckMode   .... Total+1el-Energy
 Convergence forced     ConvForced      .... 0
 Energy Change          TolE            ....  1.000e-08 Eh
 1-El. energy change                    ....  1.000e-05 Eh
 Orbital Gradient       TolG            ....  1.000e-05
 Orbital Rotation angle TolX            ....  1.000e-05
 DIIS Error             TolErr          ....  5.000e-07


Diagonalization of the overlap matrix:
Smallest eigenvalue                        ... 7.145e-05
Time for diagonalization                   ...    0.068 sec
Threshold for overlap eigenvalues          ... 1.000e-08
Number of eigenvalues below threshold      ... 0
Time for construction of square roots      ...    0.130 sec
Total time needed                          ...    0.200 sec

Time for model grid setup =    0.181 sec

------------------------------
INITIAL GUESS: MODEL POTENTIAL
------------------------------
Loading Hartree-Fock densities                     ... done
Calculating cut-offs                               ... done
Initializing the effective Hamiltonian             ... done
Setting up the integral package (SHARK)            ... done
Starting the Coulomb interaction                   ... done (   0.3 sec)
Reading the grid                                   ... done
Mapping shells                                     ... done
Starting the XC term evaluation                    ... done (   0.2 sec)
  promolecular density results
     # of electrons  =     83.995149412
     EX              =    -95.244994115
     EC              =     -3.022435558
     EX+EC           =    -98.267429674
Transforming the Hamiltonian                       ... done (   0.0 sec)
Diagonalizing the Hamiltonian                      ... done (   0.0 sec)
Back transforming the eigenvectors                 ... done (   0.0 sec)
Now organizing SCF variables                       ... done
                      ------------------
                      INITIAL GUESS DONE (   0.7 sec)
                      ------------------
-------------------
DFT GRID GENERATION
-------------------

General Integration Accuracy     IntAcc      ... 4.388
Radial Grid Type                 RadialGrid  ... OptM3 with GC (2021)
Angular Grid (max. ang.)         AngularGrid ... 4 (Lebedev-302)
Angular grid pruning method      GridPruning ... 4 (adaptive)
Weight generation scheme         WeightScheme... Becke
Basis function cutoff            BFCut       ... 1.0000e-11
Integration weight cutoff        WCut        ... 1.0000e-14
Angular grids for H and He will be reduced by one unit
Partially contracted basis set               ... off
Rotationally invariant grid construction     ... off

Total number of grid points                  ...    76081
Total number of batches                      ...     1197
Average number of points per batch           ...       63
Average number of grid points per atom       ...     5072
Time for grid setup =    0.640 sec

--------------------
COSX GRID GENERATION
--------------------

GRIDX 1
-------
General Integration Accuracy     IntAcc      ... 3.816
Radial Grid Type                 RadialGrid  ... OptM3 with GC (2021)
Angular Grid (max. ang.)         AngularGrid ... 1 (Lebedev-50)
Angular grid pruning method      GridPruning ... 4 (adaptive)
Weight generation scheme         WeightScheme... Becke
Basis function cutoff            BFCut       ... 1.0000e-11
Integration weight cutoff        WCut        ... 1.0000e-14
Angular grids for H and He will be reduced by one unit
Partially contracted basis set               ... on
Rotationally invariant grid construction     ... off

Total number of grid points                  ...     9526
Total number of batches                      ...      158
Average number of points per batch           ...       60
Average number of grid points per atom       ...      635
UseSFitting                                  ... on

GRIDX 2
-------
General Integration Accuracy     IntAcc      ... 4.020
Radial Grid Type                 RadialGrid  ... OptM3 with GC (2021)
Angular Grid (max. ang.)         AngularGrid ... 2 (Lebedev-110)
Angular grid pruning method      GridPruning ... 4 (adaptive)
Weight generation scheme         WeightScheme... Becke
Basis function cutoff            BFCut       ... 1.0000e-11
Integration weight cutoff        WCut        ... 1.0000e-14
Angular grids for H and He will be reduced by one unit
Partially contracted basis set               ... on
Rotationally invariant grid construction     ... off

Total number of grid points                  ...    21075
Total number of batches                      ...      338
Average number of points per batch           ...       62
Average number of grid points per atom       ...     1405
UseSFitting                                  ... on

GRIDX 3
-------
General Integration Accuracy     IntAcc      ... 4.338
Radial Grid Type                 RadialGrid  ... OptM3 with GC (2021)
Angular Grid (max. ang.)         AngularGrid ... 3 (Lebedev-194)
Angular grid pruning method      GridPruning ... 4 (adaptive)
Weight generation scheme         WeightScheme... Becke
Basis function cutoff            BFCut       ... 1.0000e-11
Integration weight cutoff        WCut        ... 1.0000e-14
Angular grids for H and He will be reduced by one unit
Partially contracted basis set               ... on
Rotationally invariant grid construction     ... off

Total number of grid points                  ...    47591
Total number of batches                      ...      750
Average number of points per batch           ...       63
Average number of grid points per atom       ...     3173
UseSFitting                                  ... on

Time for X-Grid setup             =    0.781 sec

--------------
SCF ITERATIONS
--------------
ITER       Energy         Delta-E        Max-DP      RMS-DP      [F,P]     Damp
               ***  Starting incremental Fock matrix formation  ***
  0  -1223.9047218990   0.000000000000 0.02713856  0.00030585  0.1382428 0.8500
  1  -1223.9341793471  -0.029457448183 0.03368112  0.00031835  0.1118136 0.8500
                               ***Turning on DIIS***
  2  -1223.9562638227  -0.022084475564 0.03043310  0.00027072  0.0862463 0.8500
  3  -1223.9723831871  -0.016119364386 0.02292674  0.00020427  0.0656947 0.8500
  4  -1223.9847545866  -0.012371399536 0.01783501  0.00016581  0.0523569 0.8500
  5  -1223.9944879228  -0.009733336173 0.01479200  0.00014166  0.0432491 0.8500
  6  -1224.0024164281  -0.007928505319 0.01274057  0.00012295  0.0363978 0.8500
  7  -1224.0090025342  -0.006586106065 0.01131906  0.00010784  0.0308959 0.8500
  8  -1224.0145364295  -0.005533895300 0.06689344  0.00062675  0.0262302 0.0000
  9  -1224.0446795691  -0.030143139629 0.00165221  0.00002819  0.0012756 0.0000
                      *** Initiating the SOSCF procedure ***
                           *** Shutting down DIIS ***
                      *** Re-Reading the Fockian *** 
                      *** Removing any level shift *** 
ITER      Energy       Delta-E        Grad      Rot      Max-DP    RMS-DP
 10  -1224.04470288  -0.0000233083  0.000681  0.000681  0.001433  0.000015
               *** Restarting incremental Fock matrix formation ***
 11  -1224.04470386  -0.0000009808  0.000504  0.001167  0.001074  0.000013
 12  -1224.04470681  -0.0000029507  0.000169  0.000971  0.000317  0.000010
 13  -1224.04470747  -0.0000006625  0.000084  0.000114  0.000292  0.000003
 14  -1224.04470765  -0.0000001801  0.000012  0.000030  0.000113  0.000001
 15  -1224.04470765  -0.0000000015  0.000007  0.000018  0.000038  0.000000
 16  -1224.04470766  -0.0000000024  0.000003  0.000007  0.000028  0.000000
                 **** Energy Check signals convergence ****
              ***Rediagonalizing the Fockian in SOSCF/NRSCF***

               *****************************************************
               *                     SUCCESS                       *
               *           SCF CONVERGED AFTER  17 CYCLES          *
               *****************************************************

Old exchange energy                            =    -26.398830476 Eh
New exchange energy                            =    -26.398829164 Eh
Exchange energy change after final integration =      0.000001312 Eh
Total energy after final integration           =  -1224.044706352 Eh
Final COS-X integration done in                =    16.959 sec

----------------
TOTAL SCF ENERGY
----------------

Total Energy       :        -1224.04470635 Eh          -33307.94980 eV

Components:
Nuclear Repulsion  :          605.67303882 Eh           16481.20127 eV
Electronic Energy  :        -1829.71774517 Eh          -49789.15108 eV
One Electron Energy:        -2884.14627181 Eh          -78481.60998 eV
Two Electron Energy:         1054.42852664 Eh           28692.45891 eV
Max COSX asymmetry :            0.00000237 Eh               0.00006 eV

Virial components:
Potential Energy   :        -2445.31793376 Eh          -66540.48383 eV
Kinetic Energy     :         1221.27322741 Eh           33232.53403 eV
Virial Ratio       :            2.00226934


DFT components:
N(Alpha)           :       41.999984608663 electrons
N(Beta)            :       41.999984608663 electrons
N(Total)           :       83.999969217326 electrons
E(XC)              :      -73.291505198158 Eh       
DFET-embed. en.    :        0.000000000000 Eh       

---------------
SCF CONVERGENCE
---------------

  Last Energy change         ...   -7.8849e-09  Tolerance :   1.0000e-08
  Last MAX-Density change    ...    2.6645e-15  Tolerance :   1.0000e-07
  Last RMS-Density change    ...    2.5293e-17  Tolerance :   5.0000e-09
  Last Orbital Gradient      ...    1.0829e-06  Tolerance :   1.0000e-05
  Last Orbital Rotation      ...    1.8770e-06  Tolerance :   1.0000e-05

             **** THE GBW FILE WAS UPDATED (3_deprot.gbw) ****
             **** DENSITY 3_deprot.scfp WAS UPDATED ****
             **** ENERGY FILE WAS UPDATED (3_deprot.en.tmp) ****
             **** THE GBW FILE WAS UPDATED (3_deprot.gbw) ****
             **** DENSITY 3_deprot.scfp WAS UPDATED ****
----------------
ORBITAL ENERGIES
----------------

  NO   OCC          E(Eh)            E(eV) 
   0   2.0000    -101.525375     -2762.6459 
   1   2.0000    -101.525365     -2762.6456 
   2   2.0000     -14.459583      -393.4653 
   3   2.0000     -14.459554      -393.4645 
   4   2.0000     -10.353856      -281.7427 
   5   2.0000     -10.353139      -281.7232 
   6   2.0000     -10.299747      -280.2704 
   7   2.0000     -10.299729      -280.2699 
   8   2.0000     -10.279705      -279.7250 
   9   2.0000      -9.574522      -260.5360 
  10   2.0000      -9.574509      -260.5356 
  11   2.0000      -7.336010      -199.6230 
  12   2.0000      -7.336002      -199.6228 
  13   2.0000      -7.325988      -199.3503 
  14   2.0000      -7.325979      -199.3500 
  15   2.0000      -7.325941      -199.3490 
  16   2.0000      -7.325933      -199.3488 
  17   2.0000      -1.183332       -32.2001 
  18   2.0000      -1.075548       -29.2671 
  19   2.0000      -1.028505       -27.9870 
  20   2.0000      -0.995195       -27.0806 
  21   2.0000      -0.912172       -24.8215 
  22   2.0000      -0.842510       -22.9259 
  23   2.0000      -0.819876       -22.3100 
  24   2.0000      -0.718013       -19.5381 
  25   2.0000      -0.713351       -19.4113 
  26   2.0000      -0.642759       -17.4904 
  27   2.0000      -0.617655       -16.8073 
  28   2.0000      -0.584392       -15.9021 
  29   2.0000      -0.569767       -15.5042 
  30   2.0000      -0.568960       -15.4822 
  31   2.0000      -0.556874       -15.1533 
  32   2.0000      -0.522214       -14.2102 
  33   2.0000      -0.518232       -14.1018 
  34   2.0000      -0.501127       -13.6364 
  35   2.0000      -0.473166       -12.8755 
  36   2.0000      -0.463634       -12.6161 
  37   2.0000      -0.451779       -12.2935 
  38   2.0000      -0.447694       -12.1824 
  39   2.0000      -0.383411       -10.4332 
  40   2.0000      -0.331674        -9.0253 
  41   2.0000      -0.321548        -8.7498 
  42   0.0000       0.092830         2.5260 
  43   0.0000       0.104937         2.8555 
  44   0.0000       0.110674         3.0116 
  45   0.0000       0.127714         3.4753 
  46   0.0000       0.131469         3.5775 
  47   0.0000       0.142858         3.8874 
  48   0.0000       0.169015         4.5991 
  49   0.0000       0.191751         5.2178 
  50   0.0000       0.192577         5.2403 
  51   0.0000       0.195899         5.3307 
  52   0.0000       0.200649         5.4599 
  53   0.0000       0.205732         5.5983 
  54   0.0000       0.220318         5.9952 
  55   0.0000       0.244620         6.6565 
  56   0.0000       0.258956         7.0465 
  57   0.0000       0.261315         7.1107 
  58   0.0000       0.268439         7.3046 
  59   0.0000       0.290974         7.9178 
  60   0.0000       0.297978         8.1084 
  61   0.0000       0.315880         8.5955 
  62   0.0000       0.321053         8.7363 
  63   0.0000       0.329265         8.9598 
  64   0.0000       0.346176         9.4199 
  65   0.0000       0.352729         9.5983 
  66   0.0000       0.375491        10.2176 
  67   0.0000       0.381359        10.3773 
  68   0.0000       0.383733        10.4419 
  69   0.0000       0.403197        10.9715 
  70   0.0000       0.412583        11.2270 
  71   0.0000       0.416234        11.3263 
  72   0.0000       0.425191        11.5700 
  73   0.0000       0.429543        11.6884 
  74   0.0000       0.438886        11.9427 
  75   0.0000       0.461806        12.5664 
  76   0.0000       0.462649        12.5893 
  77   0.0000       0.479973        13.0607 
  78   0.0000       0.487940        13.2775 
  79   0.0000       0.493301        13.4234 
  80   0.0000       0.513387        13.9700 
  81   0.0000       0.514700        14.0057 
  82   0.0000       0.515057        14.0154 
  83   0.0000       0.518957        14.1215 
  84   0.0000       0.548644        14.9294 
  85   0.0000       0.550295        14.9743 
  86   0.0000       0.551828        15.0160 
  87   0.0000       0.568318        15.4647 
  88   0.0000       0.570415        15.5218 
  89   0.0000       0.577495        15.7144 
  90   0.0000       0.600520        16.3410 
  91   0.0000       0.620210        16.8768 
  92   0.0000       0.622633        16.9427 
  93   0.0000       0.628765        17.1096 
  94   0.0000       0.655685        17.8421 
  95   0.0000       0.664602        18.0847 
  96   0.0000       0.695405        18.9229 
  97   0.0000       0.711735        19.3673 
  98   0.0000       0.715652        19.4739 
  99   0.0000       0.728525        19.8242 
 100   0.0000       0.746341        20.3090 
 101   0.0000       0.747785        20.3483 
 102   0.0000       0.760052        20.6821 
 103   0.0000       0.765814        20.8389 
 104   0.0000       0.791614        21.5409 
 105   0.0000       0.812238        22.1021 
 106   0.0000       0.815323        22.1861 
 107   0.0000       0.816037        22.2055 
 108   0.0000       0.833745        22.6874 
 109   0.0000       0.835863        22.7450 
 110   0.0000       0.925027        25.1713 
 111   0.0000       0.945050        25.7161 
 112   0.0000       0.961585        26.1661 
 113   0.0000       0.985390        26.8138 
 114   0.0000       0.996426        27.1141 
 115   0.0000       1.017868        27.6976 
 116   0.0000       1.050181        28.5769 
 117   0.0000       1.056637        28.7526 
 118   0.0000       1.057888        28.7866 
 119   0.0000       1.095107        29.7994 
 120   0.0000       1.142378        31.0857 
 121   0.0000       1.156220        31.4623 
 122   0.0000       1.157912        31.5084 
 123   0.0000       1.171126        31.8680 
 124   0.0000       1.176637        32.0179 
 125   0.0000       1.185785        32.2669 
 126   0.0000       1.187757        32.3205 
 127   0.0000       1.232834        33.5471 
 128   0.0000       1.236912        33.6581 
 129   0.0000       1.286409        35.0050 
 130   0.0000       1.310631        35.6641 
 131   0.0000       1.317162        35.8418 
 132   0.0000       1.377593        37.4862 
 133   0.0000       1.409287        38.3486 
 134   0.0000       1.452670        39.5292 
 135   0.0000       1.465644        39.8822 
 136   0.0000       1.485270        40.4163 
 137   0.0000       1.545898        42.0660 
 138   0.0000       1.579611        42.9834 
 139   0.0000       1.582874        43.0722 
 140   0.0000       1.591923        43.3184 
 141   0.0000       1.595655        43.4200 
 142   0.0000       1.618797        44.0497 
 143   0.0000       1.621893        44.1340 
 144   0.0000       1.625645        44.2360 
 145   0.0000       1.632654        44.4268 
 146   0.0000       1.663417        45.2639 
 147   0.0000       1.683800        45.8185 
 148   0.0000       1.695316        46.1319 
 149   0.0000       1.695939        46.1489 
 150   0.0000       1.729301        47.0567 
 151   0.0000       1.742817        47.4245 
 152   0.0000       1.747757        47.5589 
 153   0.0000       1.749002        47.5928 
 154   0.0000       1.795162        48.8488 
 155   0.0000       1.797910        48.9236 
 156   0.0000       1.806861        49.1672 
 157   0.0000       1.849699        50.3329 
 158   0.0000       1.860360        50.6230 
 159   0.0000       1.872915        50.9646 
 160   0.0000       1.888890        51.3993 
 161   0.0000       1.891980        51.4834 
 162   0.0000       1.893752        51.5316 
 163   0.0000       1.898760        51.6679 
 164   0.0000       1.904386        51.8210 
 165   0.0000       1.943911        52.8965 
 166   0.0000       1.948726        53.0275 
 167   0.0000       1.964937        53.4686 
 168   0.0000       1.990226        54.1568 
 169   0.0000       1.999493        54.4090 
 170   0.0000       2.009453        54.6800 
 171   0.0000       2.033087        55.3231 
 172   0.0000       2.095387        57.0184 
 173   0.0000       2.101059        57.1727 
 174   0.0000       2.107595        57.3506 
 175   0.0000       2.120564        57.7035 
 176   0.0000       2.145029        58.3692 
 177   0.0000       2.163989        58.8851 
 178   0.0000       2.166721        58.9595 
 179   0.0000       2.174393        59.1683 
 180   0.0000       2.176277        59.2195 
 181   0.0000       2.194384        59.7122 
 182   0.0000       2.198184        59.8156 
 183   0.0000       2.213268        60.2261 
 184   0.0000       2.229520        60.6683 
 185   0.0000       2.237010        60.8721 
 186   0.0000       2.245975        61.1161 
 187   0.0000       2.317502        63.0624 
 188   0.0000       2.318556        63.0911 
 189   0.0000       2.321129        63.1611 
 190   0.0000       2.335004        63.5387 
 191   0.0000       2.338810        63.6423 
 192   0.0000       2.350760        63.9674 
 193   0.0000       2.369703        64.4829 
 194   0.0000       2.378366        64.7186 
 195   0.0000       2.382949        64.8434 
 196   0.0000       2.390391        65.0459 
 197   0.0000       2.400190        65.3125 
 198   0.0000       2.419051        65.8257 
 199   0.0000       2.422958        65.9321 
 200   0.0000       2.426411        66.0260 
 201   0.0000       2.473304        67.3020 
 202   0.0000       2.477293        67.4106 
 203   0.0000       2.496844        67.9426 
 204   0.0000       2.560836        69.6839 
 205   0.0000       2.563986        69.7696 
 206   0.0000       2.571351        69.9700 
 207   0.0000       2.593323        70.5679 
 208   0.0000       2.599739        70.7425 
 209   0.0000       2.620638        71.3112 
 210   0.0000       2.666736        72.5656 
 211   0.0000       2.667443        72.5848 
 212   0.0000       2.683579        73.0239 
 213   0.0000       2.703660        73.5703 
 214   0.0000       2.732446        74.3536 
 215   0.0000       2.755275        74.9748 
 216   0.0000       2.787630        75.8553 
 217   0.0000       2.798724        76.1571 
 218   0.0000       2.825760        76.8928 
 219   0.0000       2.895359        78.7867 
 220   0.0000       2.919693        79.4489 
 221   0.0000       2.920076        79.4593 
 222   0.0000       2.975703        80.9730 
 223   0.0000       3.033580        82.5479 
 224   0.0000       3.069017        83.5122 
 225   0.0000       3.076433        83.7140 
 226   0.0000       3.083617        83.9095 
 227   0.0000       3.143675        85.5437 
 228   0.0000       3.157351        85.9159 
 229   0.0000       3.159670        85.9790 
 230   0.0000       3.188537        86.7645 
 231   0.0000       3.193732        86.9059 
 232   0.0000       3.200449        87.0886 
 233   0.0000       3.210250        87.3553 
 234   0.0000       3.212163        87.4074 
 235   0.0000       3.214506        87.4712 
 236   0.0000       3.254369        88.5559 
 237   0.0000       3.271565        89.0238 
 238   0.0000       3.284824        89.3846 
 239   0.0000       3.315602        90.2221 
 240   0.0000       3.329572        90.6023 
 241   0.0000       3.344026        90.9956 
 242   0.0000       3.348232        91.1100 
 243   0.0000       3.372378        91.7671 
 244   0.0000       3.377664        91.9109 
 245   0.0000       3.391290        92.2817 
 246   0.0000       3.425066        93.2008 
 247   0.0000       3.426916        93.2511 
 248   0.0000       3.436536        93.5129 
 249   0.0000       3.484032        94.8053 
 250   0.0000       3.488249        94.9201 
 251   0.0000       3.494897        95.1010 
 252   0.0000       3.548208        96.5516 
 253   0.0000       3.583528        97.5128 
 254   0.0000       3.591664        97.7341 
 255   0.0000       3.616714        98.4158 
 256   0.0000       3.627959        98.7218 
 257   0.0000       3.639778        99.0434 
 258   0.0000       3.692005       100.4646 
 259   0.0000       3.693321       100.5004 
 260   0.0000       3.696911       100.5981 
 261   0.0000       3.703054       100.7652 
 262   0.0000       3.754661       102.1695 
 263   0.0000       3.777437       102.7893 
 264   0.0000       3.814073       103.7862 
 265   0.0000       3.815317       103.8201 
 266   0.0000       3.919944       106.6671 
 267   0.0000       3.975014       108.1656 
 268   0.0000       4.011194       109.1501 
 269   0.0000       4.039975       109.9333 
 270   0.0000       4.072470       110.8175 
 271   0.0000       4.119490       112.0970 
 272   0.0000       4.154097       113.0387 
 273   0.0000       4.221070       114.8612 
 274   0.0000       4.243985       115.4847 
 275   0.0000       4.262025       115.9756 
 276   0.0000       4.289744       116.7299 
 277   0.0000       4.312093       117.3380 
 278   0.0000       4.355744       118.5258 
 279   0.0000       4.360028       118.6424 
 280   0.0000       4.399501       119.7165 
 281   0.0000       4.502965       122.5319 
 282   0.0000       4.511311       122.7590 
 283   0.0000       4.588981       124.8725 
 284   0.0000       4.593356       124.9916 
 285   0.0000       4.690223       127.6275 
 286   0.0000       4.854402       132.0950 
 287   0.0000       4.858124       132.1963 
 288   0.0000       4.951170       134.7282 
 289   0.0000       4.969991       135.2403 
 290   0.0000       4.981228       135.5461 
 291   0.0000       5.056864       137.6043 
 292   0.0000       5.106410       138.9525 
 293   0.0000       5.117105       139.2435 
 294   0.0000       5.169012       140.6560 
 295   0.0000       5.193421       141.3202 
 296   0.0000       5.225241       142.1860 
 297   0.0000       5.287248       143.8733 
 298   0.0000       5.330113       145.0398 
 299   0.0000       5.384938       146.5316 
 300   0.0000       5.410102       147.2164 
 301   0.0000       5.432882       147.8362 
 302   0.0000       5.443359       148.1213 
 303   0.0000       5.568824       151.5354 
 304   0.0000       5.652348       153.8082 
 305   0.0000       5.785751       157.4383 
 306   0.0000       5.837397       158.8437 
 307   0.0000       5.855692       159.3415 
 308   0.0000       6.003931       163.3753 
 309   0.0000       6.026352       163.9854 
 310   0.0000       6.078499       165.4044 
 311   0.0000       6.200485       168.7238 
 312   0.0000      10.801693       293.9290 
 313   0.0000      10.835491       294.8487 
 314   0.0000      10.862238       295.5765 
 315   0.0000      10.938249       297.6449 
 316   0.0000      11.406857       310.3964 
 317   0.0000      11.506610       313.1108 
 318   0.0000      22.348149       608.1241 
 319   0.0000      22.497820       612.1968 
 320   0.0000      22.508063       612.4755 
 321   0.0000      22.699230       617.6774 
 322   0.0000      22.895287       623.0124 
 323   0.0000      25.835491       703.0195 
 324   0.0000      26.390736       718.1284 
 325   0.0000      32.742065       890.9569 
 326   0.0000      33.055256       899.4792 

                    ********************************
                    * MULLIKEN POPULATION ANALYSIS *
                    ********************************

-----------------------
MULLIKEN ATOMIC CHARGES
-----------------------
   0 N :   -0.042528
   1 N :   -0.042536
   2 C :    0.016964
   3 C :    0.016799
   4 C :   -0.205913
   5 Cl:   -0.015264
   6 Cl:   -0.015267
   7 C :   -0.295923
   8 C :   -0.295836
   9 H :    0.161526
  10 H :    0.161493
  11 H :    0.139431
  12 H :    0.138691
  13 H :    0.139556
  14 H :    0.138808
Sum of atomic charges:    0.0000000

--------------------------------
MULLIKEN REDUCED ORBITAL CHARGES
--------------------------------
  0 N s       :     3.431772  s :     3.431772
      pz      :     1.024498  p :     3.501887
      px      :     1.451782
      py      :     1.025606
      dz2     :     0.028978  d :     0.103255
      dxz     :     0.016811
      dyz     :     0.027157
      dx2y2   :     0.015773
      dxy     :     0.014536
      f0      :     0.000755  f :     0.005614
      f+1     :     0.000681
      f-1     :     0.001258
      f+2     :     0.000749
      f-2     :     0.000499
      f+3     :     0.000830
      f-3     :     0.000843
  1 N s       :     3.431826  s :     3.431826
      pz      :     1.024023  p :     3.501837
      px      :     1.451827
      py      :     1.025987
      dz2     :     0.028971  d :     0.103259
      dxz     :     0.016818
      dyz     :     0.027222
      dx2y2   :     0.015719
      dxy     :     0.014529
      f0      :     0.000747  f :     0.005614
      f+1     :     0.000686
      f-1     :     0.001273
      f+2     :     0.000742
      f-2     :     0.000491
      f+3     :     0.000832
      f-3     :     0.000843
  2 C s       :     3.072402  s :     3.072402
      pz      :     0.728485  p :     2.713653
      px      :     1.091055
      py      :     0.894113
      dz2     :     0.044160  d :     0.182073
      dxz     :     0.036116
      dyz     :     0.048045
      dx2y2   :     0.018670
      dxy     :     0.035083
      f0      :     0.003169  f :     0.014909
      f+1     :     0.002611
      f-1     :     0.002419
      f+2     :     0.002214
      f-2     :     0.001210
      f+3     :     0.002345
      f-3     :     0.000941
  3 C s       :     3.072428  s :     3.072428
      pz      :     0.729020  p :     2.713768
      px      :     1.091034
      py      :     0.893714
      dz2     :     0.044067  d :     0.182095
      dxz     :     0.036148
      dyz     :     0.048063
      dx2y2   :     0.018744
      dxy     :     0.035073
      f0      :     0.003143  f :     0.014910
      f+1     :     0.002624
      f-1     :     0.002449
      f+2     :     0.002197
      f-2     :     0.001188
      f+3     :     0.002358
      f-3     :     0.000951
  4 C s       :     3.704211  s :     3.704211
      pz      :     1.091568  p :     2.378494
      px      :     0.667964
      py      :     0.618962
      dz2     :     0.015114  d :     0.109760
      dxz     :     0.022239
      dyz     :     0.032642
      dx2y2   :     0.009405
      dxy     :     0.030360
      f0      :     0.001354  f :     0.013448
      f+1     :     0.000491
      f-1     :     0.003290
      f+2     :     0.001952
      f-2     :     0.003574
      f+3     :     0.001821
      f-3     :     0.000964
  5 Cls       :     5.862075  s :     5.862075
      pz      :     3.508815  p :    11.080567
      px      :     3.924780
      py      :     3.646972
      dz2     :     0.012366  d :     0.066363
      dxz     :     0.012318
      dyz     :     0.025722
      dx2y2   :     0.006451
      dxy     :     0.009506
      f0      :     0.000752  f :     0.006259
      f+1     :     0.000407
      f-1     :     0.002138
      f+2     :     0.001356
      f-2     :     0.001045
      f+3     :     0.000315
      f-3     :     0.000247
  6 Cls       :     5.862055  s :     5.862055
      pz      :     3.514610  p :    11.080587
      px      :     3.924494
      py      :     3.641484
      dz2     :     0.012089  d :     0.066366
      dxz     :     0.012160
      dyz     :     0.025811
      dx2y2   :     0.006628
      dxy     :     0.009678
      f0      :     0.000739  f :     0.006259
      f+1     :     0.000393
      f-1     :     0.002115
      f+2     :     0.001378
      f-2     :     0.001051
      f+3     :     0.000326
      f-3     :     0.000258
  7 C s       :     3.308881  s :     3.308881
      pz      :     1.088127  p :     2.915195
      px      :     1.062521
      py      :     0.764546
      dz2     :     0.012750  d :     0.066570
      dxz     :     0.004425
      dyz     :     0.012218
      dx2y2   :     0.006903
      dxy     :     0.030274
      f0      :     0.001039  f :     0.005277
      f+1     :    -0.000033
      f-1     :     0.000762
      f+2     :     0.000609
      f-2     :     0.000325
      f+3     :     0.001403
      f-3     :     0.001172
  8 C s       :     3.308867  s :     3.308867
      pz      :     1.086480  p :     2.915140
      px      :     1.062669
      py      :     0.765991
      dz2     :     0.012858  d :     0.066553
      dxz     :     0.004451
      dyz     :     0.012127
      dx2y2   :     0.006840
      dxy     :     0.030276
      f0      :     0.001028  f :     0.005276
      f+1     :    -0.000037
      f-1     :     0.000781
      f+2     :     0.000603
      f-2     :     0.000344
      f+3     :     0.001387
      f-3     :     0.001169
  9 H s       :     0.816211  s :     0.816211
      pz      :     0.015081  p :     0.022263
      px      :     0.004013
      py      :     0.003168
 10 H s       :     0.816246  s :     0.816246
      pz      :     0.015073  p :     0.022261
      px      :     0.004015
      py      :     0.003172
 11 H s       :     0.839387  s :     0.839387
      pz      :     0.004655  p :     0.021182
      px      :     0.010184
      py      :     0.006344
 12 H s       :     0.840111  s :     0.840111
      pz      :     0.004919  p :     0.021198
      px      :     0.010926
      py      :     0.005353
 13 H s       :     0.839261  s :     0.839261
      pz      :     0.004607  p :     0.021183
      px      :     0.010249
      py      :     0.006327
 14 H s       :     0.839997  s :     0.839997
      pz      :     0.004924  p :     0.021195
      px      :     0.010984
      py      :     0.005287


                     *******************************
                     * LOEWDIN POPULATION ANALYSIS *
                     *******************************

----------------------
LOEWDIN ATOMIC CHARGES
----------------------
   0 N :    0.179087
   1 N :    0.179067
   2 C :   -0.556325
   3 C :   -0.556374
   4 C :   -0.326678
   5 Cl:    0.447086
   6 Cl:    0.447123
   7 C :   -0.279324
   8 C :   -0.279265
   9 H :    0.133555
  10 H :    0.133535
  11 H :    0.119673
  12 H :    0.119545
  13 H :    0.119715
  14 H :    0.119580

-------------------------------
LOEWDIN REDUCED ORBITAL CHARGES
-------------------------------
  0 N s       :     2.873121  s :     2.873121
      pz      :     1.159776  p :     3.580093
      px      :     1.259284
      py      :     1.161033
      dz2     :     0.099923  d :     0.344203
      dxz     :     0.053883
      dyz     :     0.105713
      dx2y2   :     0.045423
      dxy     :     0.039260
      f0      :     0.003289  f :     0.023496
      f+1     :     0.002203
      f-1     :     0.007378
      f+2     :     0.003098
      f-2     :     0.002979
      f+3     :     0.002327
      f-3     :     0.002221
  1 N s       :     2.873105  s :     2.873105
      pz      :     1.159197  p :     3.580105
      px      :     1.259309
      py      :     1.161598
      dz2     :     0.099816  d :     0.344226
      dxz     :     0.053891
      dyz     :     0.105926
      dx2y2   :     0.045332
      dxy     :     0.039262
      f0      :     0.003220  f :     0.023498
      f+1     :     0.002244
      f-1     :     0.007497
      f+2     :     0.003033
      f-2     :     0.002940
      f+3     :     0.002333
      f-3     :     0.002230
  2 C s       :     2.778048  s :     2.778048
      pz      :     0.925694  p :     2.995802
      px      :     1.016461
      py      :     1.053646
      dz2     :     0.186556  d :     0.694990
      dxz     :     0.111389
      dyz     :     0.208332
      dx2y2   :     0.077522
      dxy     :     0.111190
      f0      :     0.021880  f :     0.087486
      f+1     :     0.015289
      f-1     :     0.015924
      f+2     :     0.012361
      f-2     :     0.007977
      f+3     :     0.007749
      f-3     :     0.006306
  3 C s       :     2.778026  s :     2.778026
      pz      :     0.925606  p :     2.995793
      px      :     1.016425
      py      :     1.053763
      dz2     :     0.186247  d :     0.695054
      dxz     :     0.111443
      dyz     :     0.208193
      dx2y2   :     0.077914
      dxy     :     0.111258
      f0      :     0.021768  f :     0.087501
      f+1     :     0.015362
      f-1     :     0.016095
      f+2     :     0.012251
      f-2     :     0.007856
      f+3     :     0.007809
      f-3     :     0.006361
  4 C s       :     3.048055  s :     3.048055
      pz      :     1.264064  p :     2.757581
      px      :     0.684361
      py      :     0.809157
      dz2     :     0.066736  d :     0.434104
      dxz     :     0.038332
      dyz     :     0.142607
      dx2y2   :     0.081229
      dxy     :     0.105200
      f0      :     0.010005  f :     0.086938
      f+1     :     0.001330
      f-1     :     0.025903
      f+2     :     0.015370
      f-2     :     0.021938
      f+3     :     0.006154
      f-3     :     0.006238
  5 Cls       :     5.520044  s :     5.520044
      pz      :     3.477073  p :    10.908096
      px      :     3.840431
      py      :     3.590591
      dz2     :     0.021759  d :     0.111344
      dxz     :     0.022007
      dyz     :     0.040486
      dx2y2   :     0.010475
      dxy     :     0.016616
      f0      :     0.001697  f :     0.013430
      f+1     :     0.001013
      f-1     :     0.004252
      f+2     :     0.002622
      f-2     :     0.002668
      f+3     :     0.000711
      f-3     :     0.000468
  6 Cls       :     5.520028  s :     5.520028
      pz      :     3.481854  p :    10.908075
      px      :     3.840192
      py      :     3.586029
      dz2     :     0.021325  d :     0.111343
      dxz     :     0.021718
      dyz     :     0.040628
      dx2y2   :     0.010752
      dxy     :     0.016921
      f0      :     0.001663  f :     0.013430
      f+1     :     0.000974
      f-1     :     0.004221
      f+2     :     0.002661
      f-2     :     0.002683
      f+3     :     0.000737
      f-3     :     0.000490
  7 C s       :     2.838896  s :     2.838896
      pz      :     1.091449  p :     3.093847
      px      :     1.092826
      py      :     0.909572
      dz2     :     0.067495  d :     0.307699
      dxz     :     0.015273
      dyz     :     0.053873
      dx2y2   :     0.055539
      dxy     :     0.115520
      f0      :     0.004950  f :     0.038882
      f+1     :     0.000504
      f-1     :     0.005436
      f+2     :     0.007408
      f-2     :     0.005709
      f+3     :     0.007616
      f-3     :     0.007259
  8 C s       :     2.838932  s :     2.838932
      pz      :     1.090404  p :     3.093821
      px      :     1.092917
      py      :     0.910500
      dz2     :     0.067859  d :     0.307637
      dxz     :     0.015177
      dyz     :     0.053893
      dx2y2   :     0.055011
      dxy     :     0.115697
      f0      :     0.004902  f :     0.038875
      f+1     :     0.000518
      f-1     :     0.005490
      f+2     :     0.007435
      f-2     :     0.005782
      f+3     :     0.007516
      f-3     :     0.007232
  9 H s       :     0.805271  s :     0.805271
      pz      :     0.039389  p :     0.061174
      px      :     0.012709
      py      :     0.009075
 10 H s       :     0.805294  s :     0.805294
      pz      :     0.039345  p :     0.061171
      px      :     0.012716
      py      :     0.009110
 11 H s       :     0.820429  s :     0.820429
      pz      :     0.015001  p :     0.059898
      px      :     0.028349
      py      :     0.016548
 12 H s       :     0.820510  s :     0.820510
      pz      :     0.015688  p :     0.059945
      px      :     0.030034
      py      :     0.014223
 13 H s       :     0.820394  s :     0.820394
      pz      :     0.014872  p :     0.059891
      px      :     0.028496
      py      :     0.016523
 14 H s       :     0.820487  s :     0.820487
      pz      :     0.015701  p :     0.059933
      px      :     0.030163
      py      :     0.014068


                      *****************************
                      * MAYER POPULATION ANALYSIS *
                      *****************************

  NA   - Mulliken gross atomic population
  ZA   - Total nuclear charge
  QA   - Mulliken gross atomic charge
  VA   - Mayer's total valence
  BVA  - Mayer's bonded valence
  FA   - Mayer's free valence

  ATOM       NA         ZA         QA         VA         BVA        FA
  0 N      7.0425     7.0000    -0.0425     3.1873     3.1873     0.0000
  1 N      7.0425     7.0000    -0.0425     3.1873     3.1873    -0.0000
  2 C      5.9830     6.0000     0.0170     4.0904     4.0904     0.0000
  3 C      5.9832     6.0000     0.0168     4.0904     4.0904    -0.0000
  4 C      6.2059     6.0000    -0.2059     2.5767     2.5767    -0.0000
  5 Cl    17.0153    17.0000    -0.0153     1.3097     1.3097     0.0000
  6 Cl    17.0153    17.0000    -0.0153     1.3097     1.3097    -0.0000
  7 C      6.2959     6.0000    -0.2959     3.8296     3.8296     0.0000
  8 C      6.2958     6.0000    -0.2958     3.8295     3.8295     0.0000
  9 H      0.8385     1.0000     0.1615     0.9764     0.9764    -0.0000
 10 H      0.8385     1.0000     0.1615     0.9764     0.9764     0.0000
 11 H      0.8606     1.0000     0.1394     0.9577     0.9577     0.0000
 12 H      0.8613     1.0000     0.1387     0.9583     0.9583     0.0000
 13 H      0.8604     1.0000     0.1396     0.9576     0.9576    -0.0000
 14 H      0.8612     1.0000     0.1388     0.9581     0.9581     0.0000

  Mayer bond orders larger than 0.100000
B(  0-N ,  2-C ) :   1.1099 B(  0-N ,  4-C ) :   1.1782 B(  0-N ,  7-C ) :   0.8848 
B(  1-N ,  3-C ) :   1.1100 B(  1-N ,  4-C ) :   1.1782 B(  1-N ,  8-C ) :   0.8847 
B(  2-C ,  3-C ) :   1.6305 B(  2-C ,  5-Cl) :   1.2171 B(  3-C ,  6-Cl) :   1.2171 
B(  7-C ,  9-H ) :   0.9690 B(  7-C , 11-H ) :   0.9684 B(  7-C , 14-H ) :   0.9684 
B(  8-C , 10-H ) :   0.9690 B(  8-C , 12-H ) :   0.9684 B(  8-C , 13-H ) :   0.9684 


-------
TIMINGS
-------

Total SCF time: 0 days 0 hours 2 min 8 sec 

Total time                  ....     128.760 sec
Sum of individual times     ....     127.904 sec  ( 99.3%)

Fock matrix formation       ....     124.916 sec  ( 97.0%)
  Split-RI-J                ....       6.624 sec  (  5.3% of F)
  Chain of spheres X        ....     105.234 sec  ( 84.2% of F)
  XC integration            ....      12.717 sec  ( 10.2% of F)
    Basis function eval.    ....       3.233 sec  ( 25.4% of XC)
    Density eval.           ....       3.450 sec  ( 27.1% of XC)
    XC-Functional eval.     ....       0.825 sec  (  6.5% of XC)
    XC-Potential eval.      ....       3.888 sec  ( 30.6% of XC)
Diagonalization             ....       0.331 sec  (  0.3%)
Density matrix formation    ....       0.027 sec  (  0.0%)
Population analysis         ....       0.030 sec  (  0.0%)
Initial guess               ....       0.562 sec  (  0.4%)
Orbital Transformation      ....       0.000 sec  (  0.0%)
Orbital Orthonormalization  ....       0.000 sec  (  0.0%)
DIIS solution               ....       0.226 sec  (  0.2%)
SOSCF solution              ....       0.211 sec  (  0.2%)
Grid generation             ....       1.602 sec  (  1.2%)

Maximum memory used throughout the entire SCF-calculation: 82.7 MB


-------------------------------------------------------------------------------
                          DFT DISPERSION CORRECTION                            
                                                                               
                                 DFTD4 V2.5                                    
-------------------------------------------------------------------------------
The WB97X functional is recognized
Active option DFTDOPT                   ...         5   

Starting D4
-------------------------   ----------------
Dispersion correction           -0.002556156
-------------------------   ----------------


-------------------------   --------------------
FINAL SINGLE POINT ENERGY     -1224.047262508246
-------------------------   --------------------



           ************************************************************
           *        Program running with 4 parallel MPI-processes     *
           *              working on a common directory               *
           ************************************************************
------------------------------------------------------------------------------
                         ORCA SCF GRADIENT CALCULATION
------------------------------------------------------------------------------

 ... reading COSX grid (gridx3)
Gradient of the Kohn-Sham DFT energy:
Kohn-Sham wavefunction type      ... RKS
Hartree-Fock exchange scaling    ...    0.158
Number of operators              ...    1
Number of atoms                  ...   15
Basis set dimensions             ...  327
Integral neglect threshold       ... 2.5e-11
Integral primitive cutoff        ... 2.5e-12
SHARK Integral package           ... ON

Nuc. rep. gradient       (SHARK) ... done (  0.0 sec)
HCore & Overlap gradient (SHARK) ... done (  0.3 sec)
RI-J gradient            (SHARK) ... done (  2.1 sec)
COSX-gradient                    ... done ( 20.2 sec)
Exchange-correlation gradient    ... done
Dispersion correction            ... Starting D4
Starting D4
Starting D4
Starting D4


------------------- 
Dispersion Gradient 
------------------- 
   1  :    0.000000805    0.000011944    0.000007147
   2  :   -0.000000773   -0.000011888    0.000007242
   3  :    0.000000537    0.000008621   -0.000005087
   4  :   -0.000000579   -0.000008658   -0.000005015
   5  :    0.000000053    0.000000064    0.000016581
   6  :    0.000002219    0.000036716   -0.000041355
   7  :   -0.000002507   -0.000037025   -0.000041050
   8  :    0.000003061    0.000044758    0.000018272
   9  :   -0.000002910   -0.000044624    0.000018605
  10  :    0.000000588    0.000008392    0.000005741
  11  :   -0.000000557   -0.000008349    0.000005805
  12  :    0.000000468    0.000007355    0.000003290
  13  :   -0.000000431   -0.000007264    0.000003247
  14  :   -0.000000439   -0.000007346    0.000003366
  15  :    0.000000465    0.000007304    0.000003213

  |G| =    0.000086879

done

------------------
CARTESIAN GRADIENT
------------------

   1   N   :    0.000224073    0.003161074    0.001781662
   2   N   :   -0.000254506   -0.003052741    0.001773546
   3   C   :    0.000452266    0.006836262   -0.000636394
   4   C   :   -0.000507502   -0.006839756   -0.000526363
   5   C   :    0.000045228   -0.000010771    0.004310722
   6   Cl  :    0.000145386    0.003028767   -0.003005489
   7   Cl  :   -0.000145754   -0.003059107   -0.003004333
   8   C   :   -0.000535613   -0.005148492   -0.002462132
   9   C   :    0.000524485    0.005039047   -0.002519668
  10   H   :    0.000126096    0.000115020    0.006269553
  11   H   :   -0.000159848   -0.000064640    0.006268467
  12   H   :   -0.004756955    0.003523050   -0.001735027
  13   H   :   -0.005038005   -0.002910100   -0.002042187
  14   H   :    0.004809975   -0.003484408   -0.001674728
  15   H   :    0.005048216    0.002900337   -0.002024340

Difference to translation invariance:
           :   -0.0000224585    0.0000335427    0.0007732885

Difference to rotation invariance:
           :    0.0002034750   -0.0000464055    0.0020613339

Norm of the cartesian gradient     ...    0.0217095339
RMS gradient                       ...    0.0032362662
MAX gradient                       ...    0.0068397557

-------
TIMINGS
-------

Total SCF gradient time            ...       27.306 sec

One electron gradient       ....       0.259 sec  (  0.9%)
RI-J Coulomb gradient       ....       2.073 sec  (  7.6%)
COSX gradient               ....      20.194 sec  ( 74.0%)
XC gradient                 ....       3.693 sec  ( 13.5%)

Maximum memory used throughout the entire SCFGRAD-calculation: 54.5 MB
------------------------------------------------------------------------------
                         ORCA GEOMETRY RELAXATION STEP
------------------------------------------------------------------------------

Reading the OPT-File                    .... done
Getting information on internals        .... done
Copying old internal coords+grads       .... done
Making the new internal coordinates     .... (new redundants).... done
Validating the new internal coordinates .... (new redundants).... done
Calculating the B-matrix                .... done
Calculating the G,G- and P matrices     .... done
Transforming gradient to internals      .... done
Projecting the internal gradient        .... done
Number of atoms                         ....  15
Number of internal coordinates          ....  68
Current Energy                          .... -1224.047262508 Eh
Current gradient norm                   ....     0.021709534 Eh/bohr
Maximum allowed component of the step   ....  0.300
Current trust radius                    ....  0.300
Evaluating the initial hessian          ....  (Almloef) done
Projecting the Hessian                  .... done
Forming the augmented Hessian           .... done
Diagonalizing the augmented Hessian     .... done
Last element of RFO vector              ....  0.998736138
Lowest eigenvalues of augmented Hessian:
 -0.001031061  0.017435766  0.017447730  0.021780668  0.022845568
Length of the computed step             ....  0.050324198
The final length of the internal step   ....  0.050324198
Converting the step to cartesian space:
 Initial RMS(Int)=    0.0061027054
Transforming coordinates:
[...]
      4       0.153176  -0.327316  -0.075369   0.125529  -0.003067   0.005513
      5      -0.052692   0.095585   0.044539  -0.052318   0.002501  -0.003081
      6      -0.003630   0.002753   0.000291  -0.002430   0.000619   0.000320
      7      -0.051270   0.049538   0.007063  -0.033176   0.000019  -0.001262
      8      -0.075028  -0.135411  -0.056220  -0.084246  -0.001855  -0.002933
      9      -0.003160  -0.003600  -0.000675  -0.001889  -0.000517   0.000479
     10      -0.050904  -0.050048  -0.007812  -0.032399   0.000239  -0.000934
     11       0.075212  -0.135991  -0.055357   0.084802  -0.002222   0.003834
     12      -0.007772   0.000293   0.000045  -0.007969   0.000001  -0.000631
     13      -0.118534   0.000841  -0.000447  -0.119589   0.000643  -0.003774
     14       0.000711   0.072465   0.019853   0.000335  -0.000337  -0.000244
     15       0.000075  -0.000495  -0.000110  -0.000040  -0.000016   0.000037
     16       0.000772  -0.007217  -0.002956  -0.000599  -0.000098   0.000009
     17       0.003076   0.011726   0.004095   0.004140   0.000104   0.000113
     18       0.000054   0.000573   0.000144  -0.000068   0.000027   0.000030
     19       0.000762   0.007308   0.002979  -0.000652   0.000089  -0.000051
     20      -0.003045   0.011709   0.004035  -0.004163   0.000131  -0.000197
     21      -0.011272  -0.015289   0.005968   0.004891  -0.038421  -0.031161
     22      -0.144028  -0.210162   0.042443   0.017701   0.004854   0.003184
     23      -0.057890  -0.077207   0.025646   0.023095   0.002572   0.002480
     24      -0.011071   0.014967  -0.006651   0.006169   0.031156  -0.038133
     25      -0.142571   0.210801  -0.042389   0.017971  -0.005014   0.005460
     26       0.058625  -0.079291   0.025849  -0.023384   0.002481  -0.003313
     27       0.039054   0.033276  -0.056455  -0.064516   0.547887   0.445105
     28       0.450671   0.390844  -0.473032  -0.465966  -0.056732  -0.051534
     29      -0.045734  -0.067279   0.016930   0.015369  -0.014342  -0.011407
     30       0.041190  -0.035322   0.064154  -0.079287  -0.445128   0.546057
     31       0.446825  -0.393617   0.469755  -0.468619   0.050378  -0.064887
     32       0.042281  -0.064870   0.013712  -0.012550  -0.012761   0.015487
     33       0.089457   0.079085  -0.066483  -0.013024   0.017435   0.018041
     34       0.200277   0.120661  -0.230137  -0.175798  -0.153090  -0.122767
     35       0.250379   0.222584  -0.250365  -0.269168  -0.369962  -0.306360
     36      -0.045743   0.048936  -0.015922  -0.033495  -0.048180   0.055998
     37       0.209159  -0.135605   0.240667  -0.191371  -0.097000   0.122375
     38      -0.272799   0.245989  -0.292877   0.327713   0.274127  -0.333462
     39       0.088924  -0.079956   0.067347  -0.015090  -0.009062   0.014323
     40       0.196083  -0.119264   0.226025  -0.172952   0.130335  -0.158233
     41      -0.247263   0.222679  -0.244290   0.262197  -0.304272   0.377344
     42      -0.046128  -0.048431   0.016160  -0.032523   0.054350   0.040326
     43       0.210949   0.133911  -0.241416  -0.187464   0.132215   0.110687
     44       0.270583   0.241005  -0.287283  -0.314681   0.339428   0.271250
                 36         37         38         39         40         41    
      0      -0.001182   0.000248  -0.007162  -0.000053   0.000036   0.000210
      1      -0.032311  -0.001893  -0.113611  -0.000481   0.000125   0.000011
      2       0.039045   0.022671   0.037361  -0.000059   0.000436  -0.000003
      3      -0.001112   0.000990   0.007342  -0.000059  -0.000042  -0.000117
      4      -0.022220   0.023736   0.113970  -0.000472  -0.000152  -0.000014
      5      -0.012486   0.043218   0.036341   0.000034   0.000439   0.000002
      6      -0.000187  -0.001263   0.042495  -0.000007  -0.000006   0.000161
      7      -0.001785  -0.018782   0.661338  -0.000249  -0.000018  -0.000026
      8      -0.008381  -0.003573  -0.069125   0.000681  -0.000744   0.000009
      9       0.000765   0.000988  -0.043000  -0.000010   0.000003  -0.000134
     10       0.011709   0.014819  -0.661930  -0.000254  -0.000004   0.000021
     11       0.003512  -0.008605  -0.063914  -0.000630  -0.000786   0.000004
     12       0.001871  -0.000828  -0.000084   0.000078   0.000002  -0.000062
     13       0.031249  -0.012492  -0.000107   0.001427   0.000047   0.000007
     14      -0.012006  -0.029594  -0.024215  -0.000021   0.000505  -0.000002
     15      -0.000054  -0.000051  -0.001508   0.000004  -0.000004  -0.000001
     16      -0.000269   0.000707  -0.024271   0.000042  -0.000079   0.000005
     17      -0.000437  -0.000911   0.019879  -0.000014   0.000051   0.000003
     18      -0.000012   0.000072   0.001652   0.000004   0.000005   0.000000
     19      -0.000688  -0.000336   0.024429   0.000037   0.000082  -0.000005
     20      -0.000308  -0.000950   0.019697   0.000011   0.000052   0.000001
     21      -0.002112  -0.001034   0.001026  -0.000967   0.000907  -0.082208
     22      -0.041747  -0.018724   0.021566  -0.036062   0.033891   0.004476
     23       0.019856   0.008643  -0.022880   0.000957  -0.000781   0.000992
     24      -0.001009   0.002739  -0.001059  -0.000568  -0.000603   0.045831
     25      -0.017332   0.042307  -0.021750  -0.033868  -0.036127  -0.002305
     26      -0.008369   0.019817  -0.022692  -0.000656  -0.000573   0.000494
     27      -0.018382  -0.007720  -0.006449   0.008230  -0.007728  -0.014498
     28      -0.214977  -0.110460  -0.108204  -0.006012   0.005687   0.000601
     29       0.008924   0.003515  -0.027994   0.296712  -0.278754   0.020488
     30      -0.004226   0.006966   0.005945   0.008417   0.008971   0.007959
     31      -0.080320   0.230563   0.107900  -0.007741  -0.008295  -0.000174
     32      -0.003388   0.006780  -0.028786  -0.278274  -0.296740   0.013983
     33       0.395135   0.167344   0.040722  -0.384983   0.361171   0.479716
     34       0.435068   0.175403   0.107553   0.245110  -0.230303  -0.319237
     35      -0.237203  -0.114776   0.012875  -0.144692   0.135718   0.195640
     36      -0.150637   0.350967   0.025816   0.362357   0.385835  -0.285741
     37       0.206652  -0.459646  -0.112126   0.179960   0.191975  -0.149878
     38       0.086202  -0.225662   0.016020   0.149485   0.159139  -0.126884
     39       0.170488  -0.392460  -0.040516  -0.363724  -0.387318  -0.267496
     40       0.194571  -0.426488  -0.107248   0.231065   0.246431   0.177663
     41       0.094357  -0.252671   0.013546   0.133905   0.142561   0.106866
     42      -0.350152  -0.150195  -0.025685   0.388513  -0.364465   0.512672
     43       0.463776   0.189108   0.112092   0.190328  -0.178881   0.265173
     44      -0.227539  -0.108682   0.015044  -0.160602   0.150632  -0.228059
                 42         43         44    
      0      -0.000117  -0.000003   0.000012
      1      -0.000002  -0.000164   0.000106
      2       0.000010   0.000278  -0.000573
      3      -0.000210  -0.000001   0.000014
      4      -0.000018   0.000102   0.000171
      5      -0.000006   0.000002   0.000636
      6      -0.000005  -0.000018   0.000024
      7       0.000005  -0.000476   0.000380
      8      -0.000017  -0.000001   0.000054
      9      -0.000088   0.000005   0.000024
     10       0.000025   0.000266   0.000549
     11       0.000022   0.000021  -0.000053
     12       0.000218  -0.000003   0.000012
     13      -0.000029  -0.000042   0.000186
     14      -0.000001   0.000159   0.000035
     15       0.000001   0.000001  -0.000002
     16      -0.000001   0.000035  -0.000012
     17      -0.000004  -0.000037  -0.000001
     18       0.000002  -0.000000  -0.000002
     19      -0.000005  -0.000026  -0.000026
     20       0.000006  -0.000034  -0.000014
     21       0.045842  -0.000322   0.000184
     22      -0.002490  -0.018163   0.011420
     23      -0.000573   0.076516  -0.048230
     24       0.082229   0.000266   0.000390
     25      -0.004125   0.011825   0.018696
     26       0.000916   0.048177   0.076357
     27       0.008128  -0.020829   0.013134
     28      -0.000340   0.012529  -0.007924
     29      -0.011255  -0.772989   0.487611
     30       0.014358   0.014196   0.022507
     31      -0.000321  -0.011570  -0.018385
     32       0.024818  -0.487279  -0.772901
     33      -0.267414  -0.184825   0.116437
     34       0.177949   0.113639  -0.071668
     35      -0.109098  -0.061321   0.038640
     36      -0.512567  -0.133411  -0.211070
     37      -0.268809  -0.064097  -0.101532
     38      -0.227658  -0.050620  -0.080072
     39      -0.479779   0.115746   0.183366
     40       0.318642  -0.070889  -0.112427
     41       0.191745  -0.037425  -0.059302
     42      -0.285827   0.210004  -0.132145
     43      -0.147815   0.099489  -0.062683
     44       0.127177  -0.079669   0.050124


-----------
IR SPECTRUM
-----------

 Mode   freq       eps      Int      T**2         TX        TY        TZ
       cm**-1   L/(mol*cm) km/mol    a.u.
----------------------------------------------------------------------------
  6:    106.71   0.000000    0.00  0.000000  (-0.000189  0.000031  0.000074)
  7:    134.86   0.000369    1.87  0.000854  (-0.029126  0.002436  0.000220)
  8:    147.64   0.000004    0.02  0.000009  ( 0.002912 -0.000397  0.000152)
  9:    171.75   0.000064    0.32  0.000116  (-0.000862  0.000082  0.010731)
 10:    174.68   0.000995    5.03  0.001778  (-0.042102  0.002270 -0.000206)
 11:    238.04   0.000047    0.24  0.000062  (-0.000346 -0.007878  0.000103)
 12:    272.38   0.000850    4.29  0.000974  (-0.031157  0.001667 -0.000155)
 13:    287.96   0.001029    5.20  0.001116  ( 0.000125 -0.000132 -0.033401)
 14:    319.38   0.000000    0.00  0.000000  ( 0.000007 -0.000022  0.000494)
 15:    440.57   0.001054    5.32  0.000746  (-0.001995 -0.027245  0.000109)
 16:    539.44   0.000790    3.99  0.000457  (-0.000086 -0.000143 -0.021379)
 17:    579.68   0.001623    8.20  0.000874  (-0.001815 -0.029505  0.000173)
 18:    625.57   0.000549    2.77  0.000274  (-0.016521  0.000842  0.000032)
 19:    652.02   0.000905    4.57  0.000433  (-0.000049 -0.000099 -0.020808)
 20:    686.88   0.000000    0.00  0.000000  (-0.000004  0.000086 -0.000120)
 21:    886.32   0.000363    1.83  0.000128  ( 0.000818  0.011269 -0.000048)
 22:   1087.75   0.001352    6.83  0.000388  (-0.000087 -0.000098 -0.019693)
 23:   1092.49   0.000032    0.16  0.000009  (-0.000416 -0.002981 -0.000176)
 24:   1109.51   0.005941   30.02  0.001671  (-0.000128 -0.000079 -0.040878)
 25:   1164.42   0.000040    0.20  0.000011  ( 0.003104  0.001003 -0.000028)
 26:   1164.95   0.000000    0.00  0.000000  (-0.000086 -0.000218 -0.000023)
 27:   1180.28   0.010866   54.91  0.002873  (-0.003392 -0.053491  0.000187)
 28:   1362.83   0.002119   10.71  0.000485  (-0.001304 -0.021987  0.000126)
 29:   1383.41   0.002219   11.21  0.000500  (-0.000121 -0.000152 -0.022371)
 30:   1437.48   0.011139   56.29  0.002418  (-0.001977 -0.049135  0.000199)
 31:   1444.26   0.002220   11.22  0.000480  (-0.000187  0.000087 -0.021899)
 32:   1465.19   0.004094   20.69  0.000872  ( 0.000215 -0.000341 -0.029527)
 33:   1476.20   0.006794   34.33  0.001436  (-0.005007 -0.037565  0.000173)
 34:   1495.13   0.000066    0.33  0.000014  ( 0.003121 -0.000147 -0.001979)
 35:   1495.98   0.004380   22.13  0.000914  ( 0.030113 -0.002612  0.000086)
 36:   1515.52   0.000911    4.60  0.000188  (-0.000892 -0.002579 -0.013421)
 37:   1515.68   0.005511   27.85  0.001135  ( 0.000040  0.000924 -0.033671)
 38:   1684.75   0.003865   19.53  0.000716  (-0.000083 -0.000123 -0.026756)
 39:   3082.37   0.012911   65.24  0.001307  (-0.001666 -0.036115  0.000037)
 40:   3082.89   0.000122    0.62  0.000012  ( 0.000056 -0.001131  0.003329)
 41:   3154.41   0.000378    1.91  0.000037  (-0.006094  0.000335  0.000383)
 42:   3154.49   0.004655   23.53  0.000461  ( 0.021431 -0.001106  0.000105)
 43:   3201.81   0.000508    2.57  0.000049  (-0.000023 -0.000480  0.007017)
 44:   3202.08   0.000077    0.39  0.000007  ( 0.000119  0.002223  0.001586)

* The epsilon (eps) is given for a Dirac delta lineshape.
** The dipole moment derivative (T) already includes vibrational overlap.

The first frequency considered to be a vibration is 6
The total number of vibrations considered is 39


--------------------------
THERMOCHEMISTRY AT 298.15K
--------------------------

Temperature         ... 298.15 K
Pressure            ... 1.00 atm
Total Mass          ... 165.02 AMU

Throughout the following assumptions are being made:
  (1) The electronic state is orbitally nondegenerate
  (2) There are no thermally accessible electronically excited states
  (3) Hindered rotations indicated by low frequency modes are not
      treated as such but are treated as vibrations and this may
      cause some error
  (4) All equations used are the standard statistical mechanics
      equations for an ideal gas
  (5) All vibrations are strictly harmonic

freq.     106.71  E(vib)   ...       0.45 
freq.     134.86  E(vib)   ...       0.42 
freq.     147.64  E(vib)   ...       0.41 
freq.     171.75  E(vib)   ...       0.38 
freq.     174.68  E(vib)   ...       0.38 
freq.     238.04  E(vib)   ...       0.32 
freq.     272.38  E(vib)   ...       0.29 
freq.     287.96  E(vib)   ...       0.27 
freq.     319.38  E(vib)   ...       0.25 
freq.     440.57  E(vib)   ...       0.17 
freq.     539.44  E(vib)   ...       0.12 
freq.     579.68  E(vib)   ...       0.11 
freq.     625.57  E(vib)   ...       0.09 
freq.     652.02  E(vib)   ...       0.08 
freq.     686.88  E(vib)   ...       0.07 
freq.     886.32  E(vib)   ...       0.04 
freq.    1087.75  E(vib)   ...       0.02 
freq.    1092.49  E(vib)   ...       0.02 
freq.    1109.51  E(vib)   ...       0.02 
freq.    1164.42  E(vib)   ...       0.01 
freq.    1164.95  E(vib)   ...       0.01 
freq.    1180.28  E(vib)   ...       0.01 
freq.    1362.83  E(vib)   ...       0.01 
freq.    1383.41  E(vib)   ...       0.00 
freq.    1437.48  E(vib)   ...       0.00 
freq.    1444.26  E(vib)   ...       0.00 
freq.    1465.19  E(vib)   ...       0.00 
freq.    1476.20  E(vib)   ...       0.00 
freq.    1495.13  E(vib)   ...       0.00 
freq.    1495.98  E(vib)   ...       0.00 
freq.    1515.52  E(vib)   ...       0.00 
freq.    1515.68  E(vib)   ...       0.00 
freq.    1684.75  E(vib)   ...       0.00 
freq.    3082.37  E(vib)   ...       0.00 
freq.    3082.89  E(vib)   ...       0.00 
freq.    3154.41  E(vib)   ...       0.00 
freq.    3154.49  E(vib)   ...       0.00 
freq.    3201.81  E(vib)   ...       0.00 
freq.    3202.08  E(vib)   ...       0.00 

------------
INNER ENERGY
------------

The inner energy is: U= E(el) + E(ZPE) + E(vib) + E(rot) + E(trans)
    E(el)   - is the total energy from the electronic structure calculation
              = E(kin-el) + E(nuc-el) + E(el-el) + E(nuc-nuc)
    E(ZPE)  - the the zero temperature vibrational energy from the frequency calculation
    E(vib)  - the the finite temperature correction to E(ZPE) due to population
              of excited vibrational states
    E(rot)  - is the rotational thermal energy
    E(trans)- is the translational thermal energy

Summary of contributions to the inner energy U:
Electronic energy                ...  -1224.04782713 Eh
Zero point energy                ...      0.10984816 Eh      68.93 kcal/mol
Thermal vibrational correction   ...      0.00632790 Eh       3.97 kcal/mol
Thermal rotational correction    ...      0.00141627 Eh       0.89 kcal/mol
Thermal translational correction ...      0.00141627 Eh       0.89 kcal/mol
-----------------------------------------------------------------------
Total thermal energy                  -1223.92881853 Eh


Summary of corrections to the electronic energy:
(perhaps to be used in another calculation)
Total thermal correction                  0.00916044 Eh       5.75 kcal/mol
Non-thermal (ZPE) correction              0.10984816 Eh      68.93 kcal/mol
-----------------------------------------------------------------------
Total correction                          0.11900860 Eh      74.68 kcal/mol


--------
ENTHALPY
--------

The enthalpy is H = U + kB*T
                kB is Boltzmann's constant
Total free energy                 ...  -1223.92881853 Eh 
Thermal Enthalpy correction       ...      0.00094421 Eh       0.59 kcal/mol
-----------------------------------------------------------------------
Total Enthalpy                    ...  -1223.92787432 Eh


Note: Only C1 symmetry has been detected, increase convergence thresholds 
      if your molecule has a higher symmetry. Symmetry factor of 1.0 is   
      used for the rotational entropy correction. 
 

Note: Rotational entropy computed according to Herzberg 
Infrared and Raman Spectra, Chapter V,1, Van Nostrand Reinhold, 1945 
Point Group:  C1, Symmetry Number:   1  
Rotational constants in cm-1:     0.051615     0.037163     0.021784 

Vibrational entropy computed according to the QRRHO of S. Grimme
Chem.Eur.J. 2012 18 9955


-------
ENTROPY
-------

The entropy contributions are T*S = T*(S(el)+S(vib)+S(rot)+S(trans))
     S(el)   - electronic entropy
     S(vib)  - vibrational entropy
     S(rot)  - rotational entropy
     S(trans)- translational entropy
The entropies will be listed as multiplied by the temperature to get
units of energy

Electronic entropy                ...      0.00000000 Eh      0.00 kcal/mol
Vibrational entropy               ...      0.01100527 Eh      6.91 kcal/mol
Rotational entropy                ...      0.01427090 Eh      8.96 kcal/mol
Translational entropy             ...      0.01958067 Eh     12.29 kcal/mol
-----------------------------------------------------------------------
Final entropy term                ...      0.04485684 Eh     28.15 kcal/mol

In case the symmetry of your molecule has not been determined correctly
or in case you have a reason to use a different symmetry number we print 
out the resulting rotational entropy values for sn=1,12 :
 --------------------------------------------------------
|  sn= 1 | S(rot)=       0.01427090 Eh      8.96 kcal/mol|
|  sn= 2 | S(rot)=       0.01361644 Eh      8.54 kcal/mol|
|  sn= 3 | S(rot)=       0.01323361 Eh      8.30 kcal/mol|
|  sn= 4 | S(rot)=       0.01296198 Eh      8.13 kcal/mol|
|  sn= 5 | S(rot)=       0.01275129 Eh      8.00 kcal/mol|
|  sn= 6 | S(rot)=       0.01257915 Eh      7.89 kcal/mol|
|  sn= 7 | S(rot)=       0.01243360 Eh      7.80 kcal/mol|
|  sn= 8 | S(rot)=       0.01230753 Eh      7.72 kcal/mol|
|  sn= 9 | S(rot)=       0.01219632 Eh      7.65 kcal/mol|
|  sn=10 | S(rot)=       0.01209684 Eh      7.59 kcal/mol|
|  sn=11 | S(rot)=       0.01200685 Eh      7.53 kcal/mol|
|  sn=12 | S(rot)=       0.01192469 Eh      7.48 kcal/mol|
 --------------------------------------------------------


-------------------
GIBBS FREE ENERGY
-------------------

The Gibbs free energy is G = H - T*S

Total enthalpy                    ...  -1223.92787432 Eh 
Total entropy correction          ...     -0.04485684 Eh    -28.15 kcal/mol
-----------------------------------------------------------------------
Final Gibbs free energy         ...  -1223.97273116 Eh

For completeness - the Gibbs free energy minus the electronic energy
G-E(el)                           ...      0.07509597 Eh     47.12 kcal/mol


Timings for individual modules:

Sum of individual times         ...     1310.283 sec (=  21.838 min)
GTO integral calculation        ...        4.868 sec (=   0.081 min)   0.4 %
SCF iterations                  ...      346.583 sec (=   5.776 min)  26.5 %
SCF Gradient evaluation         ...       78.760 sec (=   1.313 min)   6.0 %
Geometry relaxation             ...        0.718 sec (=   0.012 min)   0.1 %
Analytical frequency calculation...      879.355 sec (=  14.656 min)  67.1 %
                             ****ORCA TERMINATED NORMALLY****
TOTAL RUN TIME: 0 days 0 hours 21 minutes 53 seconds 85 msec
