
                                 *****************
                                 * O   R   C   A *
                                 *****************

                                            #,                                       
                                            ###                                      
                                            ####                                     
                                            #####                                    
                                            ######                                   
                                           ########,                                 
                                     ,,################,,,,,                         
                               ,,#################################,,                 
                          ,,##########################################,,             
                       ,#########################################, ''#####,          
                    ,#############################################,,   '####,        
                  ,##################################################,,,,####,       
                ,###########''''           ''''###############################       
              ,#####''   ,,,,##########,,,,          '''####'''          '####       
            ,##' ,,,,###########################,,,                        '##       
           ' ,,###''''                  '''############,,,                           
         ,,##''                                '''############,,,,        ,,,,,,###''
      ,#''                                            '''#######################'''  
     '                                                          ''''####''''         
             ,#######,   #######,   ,#######,      ##                                
            ,#'     '#,  ##    ##  ,#'     '#,    #''#        ######   ,####,        
            ##       ##  ##   ,#'  ##            #'  '#       #        #'  '#        
            ##       ##  #######   ##           ,######,      #####,   #    #        
            '#,     ,#'  ##    ##  '#,     ,#' ,#      #,         ##   #,  ,#        
             '#######'   ##     ##  '#######'  #'      '#     #####' # '####'        



                  #######################################################
                  #                        -***-                        #
                  #          Department of theory and spectroscopy      #
                  #    Directorship and core code : Frank Neese         #
                  #        Max Planck Institute fuer Kohlenforschung    #
                  #                Kaiser Wilhelm Platz 1               #
                  #                 D-45470 Muelheim/Ruhr               #
                  #                      Germany                        #
                  #                                                     #
                  #                  All rights reserved                #
                  #                        -***-                        #
                  #######################################################


                         Program Version 5.0.4 -  RELEASE  -


 With contributions from (in alphabetic order):
   Daniel Aravena         : Magnetic Suceptibility
   Michael Atanasov       : Ab Initio Ligand Field Theory (pilot matlab implementation)
   Alexander A. Auer      : GIAO ZORA, VPT2 properties, NMR spectrum
   Ute Becker             : Parallelization
   Giovanni Bistoni       : ED, misc. LED, open-shell LED, HFLD
   Martin Brehm           : Molecular dynamics
   Dmytro Bykov           : SCF Hessian
   Vijay G. Chilkuri      : MRCI spin determinant printing, contributions to CSF-ICE
   Dipayan Datta          : RHF DLPNO-CCSD density
   Achintya Kumar Dutta   : EOM-CC, STEOM-CC
   Dmitry Ganyushin       : Spin-Orbit,Spin-Spin,Magnetic field MRCI
   Miquel Garcia          : C-PCM and meta-GGA Hessian, CC/C-PCM, Gaussian charge scheme
   Yang Guo               : DLPNO-NEVPT2, F12-NEVPT2, CIM, IAO-localization
   Andreas Hansen         : Spin unrestricted coupled pair/coupled cluster methods
   Benjamin Helmich-Paris : MC-RPA, TRAH-SCF, COSX integrals
   Lee Huntington         : MR-EOM, pCC
   Robert Izsak           : Overlap fitted RIJCOSX, COSX-SCS-MP3, EOM
   Marcus Kettner         : VPT2
   Christian Kollmar      : KDIIS, OOCD, Brueckner-CCSD(T), CCSD density, CASPT2, CASPT2-K
   Simone Kossmann        : Meta GGA functionals, TD-DFT gradient, OOMP2, MP2 Hessian
   Martin Krupicka        : Initial AUTO-CI
   Lucas Lang             : DCDCAS
   Marvin Lechner         : AUTO-CI (C++ implementation), FIC-MRCC
   Dagmar Lenk            : GEPOL surface, SMD
   Dimitrios Liakos       : Extrapolation schemes; Compound Job, initial MDCI parallelization
   Dimitrios Manganas     : Further ROCIS development; embedding schemes
   Dimitrios Pantazis     : SARC Basis sets
   Anastasios Papadopoulos: AUTO-CI, single reference methods and gradients
   Taras Petrenko         : DFT Hessian,TD-DFT gradient, ASA, ECA, R-Raman, ABS, FL, XAS/XES, NRVS
   Peter Pinski           : DLPNO-MP2, DLPNO-MP2 Gradient
   Christoph Reimann      : Effective Core Potentials
   Marius Retegan         : Local ZFS, SOC
   Christoph Riplinger    : Optimizer, TS searches, QM/MM, DLPNO-CCSD(T), (RO)-DLPNO pert. Triples
   Tobias Risthaus        : Range-separated hybrids, TD-DFT gradient, RPA, STAB
   Michael Roemelt        : Original ROCIS implementation
   Masaaki Saitow         : Open-shell DLPNO-CCSD energy and density
   Barbara Sandhoefer     : DKH picture change effects
   Avijit Sen             : IP-ROCIS
   Kantharuban Sivalingam : CASSCF convergence, NEVPT2, FIC-MRCI
   Bernardo de Souza      : ESD, SOC TD-DFT
   Georgi Stoychev        : AutoAux, RI-MP2 NMR, DLPNO-MP2 response
   Willem Van den Heuvel  : Paramagnetic NMR
   Boris Wezisla          : Elementary symmetry handling
   Frank Wennmohs         : Technical directorship


 We gratefully acknowledge several colleagues who have allowed us to
 interface, adapt or use parts of their codes:
   Stefan Grimme, W. Hujo, H. Kruse, P. Pracht,  : VdW corrections, initial TS optimization,
                  C. Bannwarth, S. Ehlert          DFT functionals, gCP, sTDA/sTD-DF
   Ed Valeev, F. Pavosevic, A. Kumar             : LibInt (2-el integral package), F12 methods
   Garnet Chan, S. Sharma, J. Yang, R. Olivares  : DMRG
   Ulf Ekstrom                                   : XCFun DFT Library
   Mihaly Kallay                                 : mrcc  (arbitrary order and MRCC methods)
   Jiri Pittner, Ondrej Demel                    : Mk-CCSD
   Frank Weinhold                                : gennbo (NPA and NBO analysis)
   Christopher J. Cramer and Donald G. Truhlar   : smd solvation model
   Lars Goerigk                                  : TD-DFT with DH, B97 family of functionals
   V. Asgeirsson, H. Jonsson                     : NEB implementation
   FAccTs GmbH                                   : IRC, NEB, NEB-TS, DLPNO-Multilevel, CI-OPT
                                                   MM, QMMM, 2- and 3-layer-ONIOM, Crystal-QMMM,
                                                   LR-CPCM, SF, NACMEs, symmetry and pop. for TD-DFT,
                                                   nearIR, NL-DFT gradient (VV10), updates on ESD,
                                                   ML-optimized integration grids
   S Lehtola, MJT Oliveira, MAL Marques          : LibXC Library
   Liviu Ungur et al                             : ANISO software


 Your calculation uses the libint2 library for the computation of 2-el integrals
 For citations please refer to: http://libint.valeyev.net

 Your ORCA version has been built with support for libXC version: 5.1.0
 For citations please refer to: https://tddft.org/programs/libxc/

 This ORCA versions uses:
   CBLAS   interface :  Fast vector & matrix operations
   LAPACKE interface :  Fast linear algebra routines
   SCALAPACK package :  Parallel linear algebra routines
   Shared memory     :  Shared parallel matrices
   BLAS/LAPACK       :  OpenBLAS 0.3.15  USE64BITINT DYNAMIC_ARCH NO_AFFINITY SkylakeX SINGLE_THREADED
        Core in use  :  SkylakeX
   Copyright (c) 2011-2014, The OpenBLAS Project




***************************************
The coordinates will be read from file: 4_deprot.xyz
***************************************


Your calculation utilizes the atom-pairwise dispersion correction
based on tight binding partial charges (D4)
Cite in your paper:
E.Caldeweyher, C.Bannwarth, S.Grimme, J.Chem.Phys., (2017), 147, 034112.
E.Caldeweyher, S.Ehlert, A.Hansen, H.Neugebauer, S.Grimme, J.Chem.Phys., (2018), in progress.
   

XCFun DFT library Copyright 2009-2010 Ulf Ekstrom and contributors.
See http://admol.org/xcfun for more information.
This is free software; see the source code for copying conditions.
There is ABSOLUTELY NO WARRANTY; not even for MERCHANTABILITY or FITNESS FOR A PARTICULAR PURPOSE.
For details see the documentation.
Scientific users of this library should cite U. Ekstrom, L. Visscher, R. Bast, A. J. Thorvaldsen and K. Ruud;
J.Chem.Theor.Comp. 2010, DOI: 10.1021/ct100117s
XCFun Version 0.99 

================================================================================

----- Orbital basis set information -----
Your calculation utilizes the basis: def2-TZVP
   F. Weigend and R. Ahlrichs, Phys. Chem. Chem. Phys. 7, 3297 (2005).

----- AuxJ basis set information -----
Your calculation utilizes the auxiliary basis: def2/J
   F. Weigend, Phys. Chem. Chem. Phys. 8, 1057 (2006).

================================================================================
                                        WARNINGS
                       Please study these warnings very carefully!
================================================================================


WARNING: Geometry Optimization
  ===> : Switching off AutoStart
         For restart on a previous wavefunction, please use MOREAD

INFO   : the flag for use of the SHARK integral package has been found!

================================================================================
                                       INPUT FILE
================================================================================
NAME = 4_deprot.inp
|  1> # ORCA 5.0.4 - /users/bwb16179/postgrad/2024_06/pKa_Reviewer_Comments/Gas_Z=0/4_deprot.inp # write input file
|  2> # Basic Mode
|  3> #
|  4> ! Opt Freq wB97X Def2-TZVP D4 SlowConv TightSCF Defgrid2 Def2/J RIJCOSX 
|  5> 
|  6> %PAL NPROCS 4 END
|  7> 
|  8> %maxcore 4500
|  9> 
| 10> %geom
| 11> Maxiter 150
| 12> END
| 13> 
| 14> * xyzfile 0 1 4_deprot.xyz
| 15> 
| 16>                          ****END OF INPUT****
================================================================================

                       *****************************
                       * Geometry Optimization Run *
                       *****************************

Geometry optimization settings:
Update method            Update   .... BFGS
Choice of coordinates    CoordSys .... Z-matrix Internals
Initial Hessian          InHess   .... Almoef's Model

Convergence Tolerances:
Energy Change            TolE     ....  5.0000e-06 Eh
Max. Gradient            TolMAXG  ....  3.0000e-04 Eh/bohr
RMS Gradient             TolRMSG  ....  1.0000e-04 Eh/bohr
Max. Displacement        TolMAXD  ....  4.0000e-03 bohr
RMS Displacement         TolRMSD  ....  2.0000e-03 bohr
Strict Convergence                ....  False
------------------------------------------------------------------------------
                        ORCA OPTIMIZATION COORDINATE SETUP
------------------------------------------------------------------------------

The optimization will be done in new redundant internal coordinates
Making redundant internal coordinates   ...  (new redundants) done
Evaluating the initial hessian          ...  (Almloef) done
Evaluating the coordinates              ...  done
Calculating the B-matrix                .... done
Calculating the G-matrix                .... done
Diagonalizing the G-matrix              .... done
Small eigenvalue found = 1.994e-02
Small eigenvalue found = 2.069e-02
The first mode is                       ....   65
The number of degrees of freedom        ....   75

    -----------------------------------------------------------------
                    Redundant Internal Coordinates


    -----------------------------------------------------------------
         Definition                    Initial Value    Approx d2E/dq
    -----------------------------------------------------------------
      1. B(N   2,C   0)                  1.4610         0.431074   
      2. B(N   3,C   1)                  1.4611         0.431015   
      3. B(C   4,N   2)                  1.3861         0.567667   
      4. B(C   5,C   4)                  1.3547         0.711333   
      5. B(C   5,N   3)                  1.3861         0.567651   
      6. B(C   6,N   3)                  1.3605         0.623706   
      7. B(C   6,N   2)                  1.3605         0.623573   
      8. B(C   7,C   0)                  1.5252         0.380217   
      9. B(C   8,C   0)                  1.5253         0.380071   
     10. B(C   9,C   1)                  1.5252         0.380214   
     11. B(C  10,C   1)                  1.5253         0.380068   
     12. B(H  11,C   4)                  1.0886         0.361952   
     13. B(H  12,C   5)                  1.0886         0.361950   
     14. B(H  13,C   0)                  1.1001         0.347028   
     15. B(H  14,C   1)                  1.1001         0.347036   
     16. B(H  15,C   7)                  1.1026         0.343859   
     17. B(H  16,C   8)                  1.1026         0.343788   
     18. B(H  17,C   9)                  1.1026         0.343868   
     19. B(H  18,C  10)                  1.1026         0.343806   
     20. B(H  19,C   7)                  1.1005         0.346412   
     21. B(H  20,C   8)                  1.1006         0.346397   
     22. B(H  21,C   9)                  1.1005         0.346423   
     23. B(H  22,C  10)                  1.1006         0.346358   
     24. B(H  23,C   7)                  1.1001         0.347034   
     25. B(H  24,C   8)                  1.1001         0.347039   
     26. B(H  25,C   9)                  1.1001         0.347040   
     27. B(H  26,C  10)                  1.1000         0.347077   
     28. A(N   2,C   0,C   7)          111.1755         0.371178   
     29. A(C   8,C   0,H  13)          108.9363         0.323270   
     30. A(N   2,C   0,H  13)          103.6548         0.328059   
     31. A(C   7,C   0,H  13)          108.9177         0.323290   
     32. A(N   2,C   0,C   8)          111.1089         0.371154   
     33. A(C   7,C   0,C   8)          112.6203         0.365525   
     34. A(C   9,C   1,C  10)          112.6215         0.365524   
     35. A(N   3,C   1,C   9)          111.1533         0.371169   
     36. A(C  10,C   1,H  14)          108.9405         0.323271   
     37. A(N   3,C   1,H  14)          103.6542         0.328053   
     38. A(C   9,C   1,H  14)          108.9203         0.323291   
     39. A(N   3,C   1,C  10)          111.1238         0.371145   
     40. A(C   4,N   2,C   6)          112.6610         0.422136   
     41. A(C   0,N   2,C   6)          122.6503         0.402015   
     42. A(C   0,N   2,C   4)          124.6883         0.395430   
     43. A(C   1,N   3,C   6)          122.6463         0.402021   
     44. A(C   1,N   3,C   5)          124.6900         0.395419   
     45. A(C   5,N   3,C   6)          112.6637         0.422150   
     46. A(N   2,C   4,C   5)          106.0778         0.435062   
     47. A(C   5,C   4,H  11)          130.3072         0.361563   
     48. A(N   2,C   4,H  11)          123.6150         0.345863   
     49. A(N   3,C   5,H  12)          123.6292         0.345861   
     50. A(N   3,C   5,C   4)          106.0760         0.435060   
     51. A(C   4,C   5,H  12)          130.2947         0.361562   
     52. A(N   2,C   6,N   3)          102.5215         0.429311   
     53. A(H  15,C   7,H  19)          107.6821         0.286998   
     54. A(C   0,C   7,H  19)          110.4336         0.323196   
     55. A(C   0,C   7,H  15)          111.4698         0.322804   
     56. A(H  19,C   7,H  23)          108.3381         0.287410   
     57. A(H  15,C   7,H  23)          108.2063         0.287078   
     58. A(C   0,C   7,H  23)          110.5962         0.323291   
     59. A(C   0,C   8,H  16)          111.4143         0.322773   
     60. A(H  20,C   8,H  24)          108.3849         0.287409   
     61. A(H  16,C   8,H  24)          108.1891         0.287070   
     62. A(C   0,C   8,H  24)          110.6071         0.323272   
     63. A(H  16,C   8,H  20)          107.6864         0.286987   
     64. A(C   0,C   8,H  20)          110.4462         0.323173   
     65. A(C   1,C   9,H  17)          111.4609         0.322805   
     66. A(H  21,C   9,H  25)          108.3592         0.287412   
     67. A(H  17,C   9,H  25)          108.1869         0.287080   
     68. A(C   1,C   9,H  25)          110.5922         0.323292   
     69. A(H  17,C   9,H  21)          107.6976         0.287000   
     70. A(C   1,C   9,H  21)          110.4304         0.323197   
     71. A(C   1,C  10,H  18)          111.4345         0.322775   
     72. A(H  22,C  10,H  26)          108.3610         0.287409   
     73. A(H  18,C  10,H  26)          108.2290         0.287077   
     74. A(C   1,C  10,H  26)          110.6171         0.323277   
     75. A(H  18,C  10,H  22)          107.6490         0.286984   
     76. A(C   1,C  10,H  22)          110.4361         0.323167   
     77. D(C   4,N   2,C   0,C   7)    -63.0249         0.015843   
     78. D(C   6,N   2,C   0,H  13)      0.3629         0.015843   
     79. D(C   6,N   2,C   0,C   7)    117.2291         0.015843   
     80. D(C   4,N   2,C   0,H  13)   -179.8911         0.015843   
     81. D(C   6,N   2,C   0,C   8)   -116.4939         0.015843   
     82. D(C   4,N   2,C   0,C   8)     63.2521         0.015843   
     83. D(C   5,N   3,C   1,C  10)     63.1123         0.015839   
     84. D(C   6,N   3,C   1,H  14)      0.0148         0.015839   
     85. D(C   6,N   3,C   1,C   9)    116.8734         0.015839   
     86. D(C   6,N   3,C   1,C  10)   -116.8536         0.015839   
     87. D(C   5,N   3,C   1,H  14)    179.9807         0.015839   
     88. D(C   5,N   3,C   1,C   9)    -63.1608         0.015839   
     89. D(H  11,C   4,N   2,C   0)      0.1804         0.025777   
     90. D(C   5,C   4,N   2,C   6)     -0.0192         0.025777   
     91. D(C   5,C   4,N   2,C   0)   -179.7874         0.025777   
     92. D(H  11,C   4,N   2,C   6)    179.9486         0.025777   
     93. D(H  12,C   5,C   4,H  11)      0.0739         0.035736   
     94. D(N   3,C   5,C   4,N   2)      0.0099         0.035736   
     95. D(H  12,C   5,N   3,C   6)    179.9755         0.025775   
     96. D(N   3,C   5,C   4,H  11)   -179.9549         0.035736   
     97. D(H  12,C   5,N   3,C   1)      0.0066         0.025775   
     98. D(C   4,C   5,N   3,C   6)      0.0019         0.025775   
     99. D(C   4,C   5,N   3,C   1)   -179.9670         0.025775   
    100. D(H  12,C   5,C   4,N   2)   -179.9613         0.035736   
    101. D(N   2,C   6,N   3,C   5)     -0.0128         0.028565   
    102. D(N   3,C   6,N   2,C   4)      0.0194         0.028552   
    103. D(N   3,C   6,N   2,C   0)    179.7931         0.028552   
    104. D(N   2,C   6,N   3,C   1)    179.9567         0.028565   
    105. D(H  15,C   7,C   0,C   8)    -60.1486         0.011521   
    106. D(H  15,C   7,C   0,N   2)     65.2892         0.011521   
    107. D(H  15,C   7,C   0,H  13)    178.8915         0.011521   
    108. D(H  23,C   7,C   0,H  13)     58.4630         0.011521   
    109. D(H  23,C   7,C   0,C   8)    179.4230         0.011521   
    110. D(H  23,C   7,C   0,N   2)    -55.1392         0.011521   
    111. D(H  19,C   7,C   0,H  13)    -61.4500         0.011521   
    112. D(H  19,C   7,C   0,C   8)     59.5099         0.011521   
    113. D(H  19,C   7,C   0,N   2)   -175.0523         0.011521   
    114. D(H  24,C   8,C   0,H  13)    -58.8377         0.011513   
    115. D(H  24,C   8,C   0,C   7)   -179.7871         0.011513   
    116. D(H  24,C   8,C   0,N   2)     54.7389         0.011513   
    117. D(H  20,C   8,C   0,H  13)     61.1490         0.011513   
    118. D(H  20,C   8,C   0,C   7)    -59.8003         0.011513   
    119. D(H  20,C   8,C   0,N   2)    174.7257         0.011513   
    120. D(H  16,C   8,C   0,H  13)   -179.2149         0.011513   
    121. D(H  16,C   8,C   0,C   7)     59.8357         0.011513   
    122. D(H  16,C   8,C   0,N   2)    -65.6382         0.011513   
    123. D(H  25,C   9,C   1,C  10)    179.2539         0.011521   
    124. D(H  25,C   9,C   1,N   3)    -55.3050         0.011521   
    125. D(H  21,C   9,C   1,H  14)    -61.6487         0.011521   
    126. D(H  21,C   9,C   1,C  10)     59.3192         0.011521   
    127. D(H  21,C   9,C   1,N   3)   -175.2397         0.011521   
    128. D(H  17,C   9,C   1,H  14)    178.6814         0.011521   
    129. D(H  17,C   9,C   1,C  10)    -60.3507         0.011521   
    130. D(H  25,C   9,C   1,H  14)     58.2860         0.011521   
    131. D(H  17,C   9,C   1,N   3)     65.0904         0.011521   
    132. D(H  26,C  10,C   1,N   3)     54.8793         0.011513   
    133. D(H  22,C  10,C   1,H  14)     61.2495         0.011513   
    134. D(H  22,C  10,C   1,C   9)    -59.7068         0.011513   
    135. D(H  22,C  10,C   1,N   3)    174.8360         0.011513   
    136. D(H  18,C  10,C   1,H  14)   -179.1551         0.011513   
    137. D(H  18,C  10,C   1,C   9)     59.8886         0.011513   
    138. D(H  26,C  10,C   1,C   9)   -179.6635         0.011513   
    139. D(H  18,C  10,C   1,N   3)    -65.5685         0.011513   
    140. D(H  26,C  10,C   1,H  14)    -58.7072         0.011513   
    -----------------------------------------------------------------

Number of atoms                         .... 27
Number of degrees of freedom            .... 140

         *************************************************************
         *                GEOMETRY OPTIMIZATION CYCLE   1            *
         *************************************************************
---------------------------------
CARTESIAN COORDINATES (ANGSTROEM)
---------------------------------
  C     -0.031856    2.430792    0.552923
  C      0.007244   -2.460681    0.536153
  N     -0.013691    1.047882    0.081925
  N      0.000944   -1.074447    0.074599
  C      0.000450    0.668712   -1.251233
  C      0.009939   -0.685937   -1.255920
  C     -0.013998   -0.016311    0.929595
  C      1.231126    3.173654    0.129513
  C     -1.306837    3.143847    0.114132
  C     -1.252515   -3.195275    0.089355
  C      1.285527   -3.175903    0.110690
  H      0.002146    1.375811   -2.078920
  H      0.022571   -1.387011   -2.088624
  H     -0.037118    2.331941    1.648525
  H     -0.002903   -2.369434    1.632374
  H      1.288997    3.279132   -0.966466
  H     -1.350343    3.252534   -0.982254
  H     -1.296636   -3.289541   -1.008277
  H      1.345183   -3.276380   -0.985705
  H      1.246046    4.184742    0.563893
  H     -1.353509    4.152378    0.552220
  H     -1.276071   -4.210506    0.513548
  H      1.320839   -4.188287    0.540961
  H      2.128607    2.636965    0.471018
  H     -2.195582    2.582927    0.439132
  H     -2.152579   -2.658818    0.424350
  H      2.171831   -2.622277    0.454234

----------------------------
CARTESIAN COORDINATES (A.U.)
----------------------------
  NO LB      ZA    FRAG     MASS         X           Y           Z
   0 C     6.0000    0    12.011   -0.060199    4.593531    1.044873
   1 C     6.0000    0    12.011    0.013689   -4.650013    1.013182
   2 N     7.0000    0    14.007   -0.025872    1.980210    0.154816
   3 N     7.0000    0    14.007    0.001784   -2.030411    0.140972
   4 C     6.0000    0    12.011    0.000850    1.263683   -2.364488
   5 C     6.0000    0    12.011    0.018782   -1.296233   -2.373345
   6 C     6.0000    0    12.011   -0.026452   -0.030823    1.756680
   7 C     6.0000    0    12.011    2.326491    5.997337    0.244744
   8 C     6.0000    0    12.011   -2.469564    5.941010    0.215678
   9 C     6.0000    0    12.011   -2.366910   -6.038195    0.168856
  10 C     6.0000    0    12.011    2.429294   -6.001587    0.209174
  11 H     1.0000    0     1.008    0.004055    2.599906   -3.928589
  12 H     1.0000    0     1.008    0.042653   -2.621071   -3.946927
  13 H     1.0000    0     1.008   -0.070143    4.406730    3.115261
  14 H     1.0000    0     1.008   -0.005486   -4.477581    3.084740
  15 H     1.0000    0     1.008    2.435851    6.196661   -1.826356
  16 H     1.0000    0     1.008   -2.551778    6.146399   -1.856191
  17 H     1.0000    0     1.008   -2.450287   -6.216332   -1.905367
  18 H     1.0000    0     1.008    2.542027   -6.191461   -1.862712
  19 H     1.0000    0     1.008    2.354686    7.908016    1.065603
  20 H     1.0000    0     1.008   -2.557761    7.846857    1.043545
  21 H     1.0000    0     1.008   -2.411425   -7.956703    0.970465
  22 H     1.0000    0     1.008    2.496024   -7.914715    1.022268
  23 H     1.0000    0     1.008    4.022484    4.983142    0.890095
  24 H     1.0000    0     1.008   -4.149049    4.881025    0.829839
  25 H     1.0000    0     1.008   -4.067785   -5.024438    0.801905
  26 H     1.0000    0     1.008    4.104166   -4.955385    0.858378

--------------------------------
INTERNAL COORDINATES (ANGSTROEM)
--------------------------------
 C      0   0   0     0.000000000000     0.00000000     0.00000000
 C      1   0   0     4.891658016729     0.00000000     0.00000000
 N      1   2   0     1.461030167837    18.61236882     0.00000000
 N      2   1   3     1.461066900478    18.61271666   359.71369008
 C      3   1   2     1.386102488904   124.68830966   179.53749125
 C      5   3   1     1.354690341846   106.07777758   180.21258870
 C      4   2   1     1.360475364671   122.64627727     0.11227550
 C      1   2   4     1.525202777164   118.65071081   289.14254123
 C      1   2   4     1.525307026492   118.23964233    71.41673120
 C      2   1   3     1.525204752065   118.42580407   288.47096635
 C      2   1   3     1.525309379025   118.45967512    70.74004729
 H      5   3   1     1.088603528465   123.61501831     0.18039063
 H      6   5   3     1.088604736585   130.29473360   180.03873326
 H      1   2   4     1.100064975921    85.04327921   180.27100041
 H      2   1   3     1.100058842726    85.04149230   179.61863671
 H      8   1   2     1.102562755387   111.46975493    84.12059666
 H      9   1   2     1.102618654386   111.41434392   275.40683672
 H     10   2   1     1.102555553621   111.46089405    83.99861815
 H     11   2   1     1.102604399542   111.43445993   275.55241629
 H      8   1   2     1.100548742466   110.43360339   203.77907629
 H      9   1   2     1.100560833979   110.44623213   155.77078069
 H     10   2   1     1.100540126368   110.43036222   203.66857877
 H     11   2   1     1.100591402038   110.43608966   155.95699641
 H      8   1   2     1.100060404299   110.59615460   323.69214597
 H      9   1   2     1.100056326478   110.60713853    35.78401375
 H     10   2   1     1.100055892657   110.59222709   323.60324459
 H     11   2   1     1.100026821595   110.61707675    36.00025251

---------------------------
INTERNAL COORDINATES (A.U.)
---------------------------
 C      0   0   0     0.000000000000     0.00000000     0.00000000
 C      1   0   0     9.243893992418     0.00000000     0.00000000
 N      1   2   0     2.760946890608    18.61236882     0.00000000
 N      2   1   3     2.761016305240    18.61271666   359.71369008
 C      3   1   2     2.619354097575   124.68830966   179.53749125
 C      5   3   1     2.559993742357   106.07777758   180.21258870
 C      4   2   1     2.570925851174   122.64627727     0.11227550
 C      1   2   4     2.882215547536   118.65071081   289.14254123
 C      1   2   4     2.882412550216   118.23964233    71.41673120
 C      2   1   3     2.882219279558   118.42580407   288.47096635
 C      2   1   3     2.882416995859   118.45967512    70.74004729
 H      5   3   1     2.057162537219   123.61501831     0.18039063
 H      6   5   3     2.057164820236   130.29473360   180.03873326
 H      1   2   4     2.078821534010    85.04327921   180.27100041
 H      2   1   3     2.078809943950    85.04149230   179.61863671
 H      8   1   2     2.083541653143   111.46975493    84.12059666
 H      9   1   2     2.083647286943   111.41434392   275.40683672
 H     10   2   1     2.083528043778   111.46089405    83.99861815
 H     11   2   1     2.083620349192   111.43445993   275.55241629
 H      8   1   2     2.079735720293   110.43360339   203.77907629
 H      9   1   2     2.079758569941   110.44623213   155.77078069
 H     10   2   1     2.079719438227   110.43036222   203.66857877
 H     11   2   1     2.079816335201   110.43608966   155.95699641
 H      8   1   2     2.078812894896   110.59615460   323.69214597
 H      9   1   2     2.078805188932   110.60713853    35.78401375
 H     10   2   1     2.078804369129   110.59222709   323.60324459
 H     11   2   1     2.078749432782   110.61707675    36.00025251

---------------------
BASIS SET INFORMATION
---------------------
There are 3 groups of distinct atoms

 Group   1 Type C   : 11s6p2d1f contracted to 5s3p2d1f pattern {62111/411/11/1}
 Group   2 Type N   : 11s6p2d1f contracted to 5s3p2d1f pattern {62111/411/11/1}
 Group   3 Type H   : 5s1p contracted to 3s1p pattern {311/1}

Atom   0C    basis set group =>   1
Atom   1C    basis set group =>   1
Atom   2N    basis set group =>   2
Atom   3N    basis set group =>   2
Atom   4C    basis set group =>   1
Atom   5C    basis set group =>   1
Atom   6C    basis set group =>   1
Atom   7C    basis set group =>   1
Atom   8C    basis set group =>   1
Atom   9C    basis set group =>   1
Atom  10C    basis set group =>   1
Atom  11H    basis set group =>   3
Atom  12H    basis set group =>   3
Atom  13H    basis set group =>   3
Atom  14H    basis set group =>   3
Atom  15H    basis set group =>   3
Atom  16H    basis set group =>   3
Atom  17H    basis set group =>   3
Atom  18H    basis set group =>   3
Atom  19H    basis set group =>   3
Atom  20H    basis set group =>   3
Atom  21H    basis set group =>   3
Atom  22H    basis set group =>   3
Atom  23H    basis set group =>   3
Atom  24H    basis set group =>   3
Atom  25H    basis set group =>   3
Atom  26H    basis set group =>   3
---------------------------------
AUXILIARY/J BASIS SET INFORMATION
---------------------------------
There are 3 groups of distinct atoms

 Group   1 Type C   : 12s5p4d2f1g contracted to 6s4p3d1f1g pattern {711111/2111/211/2/1}
 Group   2 Type N   : 12s5p4d2f1g contracted to 6s4p3d1f1g pattern {711111/2111/211/2/1}
 Group   3 Type H   : 5s2p1d contracted to 3s1p1d pattern {311/2/1}

Atom   0C    basis set group =>   1
Atom   1C    basis set group =>   1
Atom   2N    basis set group =>   2
Atom   3N    basis set group =>   2
Atom   4C    basis set group =>   1
Atom   5C    basis set group =>   1
Atom   6C    basis set group =>   1
Atom   7C    basis set group =>   1
Atom   8C    basis set group =>   1
Atom   9C    basis set group =>   1
Atom  10C    basis set group =>   1
Atom  11H    basis set group =>   3
Atom  12H    basis set group =>   3
Atom  13H    basis set group =>   3
Atom  14H    basis set group =>   3
Atom  15H    basis set group =>   3
Atom  16H    basis set group =>   3
Atom  17H    basis set group =>   3
Atom  18H    basis set group =>   3
Atom  19H    basis set group =>   3
Atom  20H    basis set group =>   3
Atom  21H    basis set group =>   3
Atom  22H    basis set group =>   3
Atom  23H    basis set group =>   3
Atom  24H    basis set group =>   3
Atom  25H    basis set group =>   3
Atom  26H    basis set group =>   3


           ************************************************************
           *        Program running with 4 parallel MPI-processes     *
           *              working on a common directory               *
           ************************************************************
------------------------------------------------------------------------------
                           ORCA GTO INTEGRAL CALCULATION
                           -- RI-GTO INTEGRALS CHOSEN --
------------------------------------------------------------------------------
------------------------------------------------------------------------------
                   ___                                                        
                  /   \      - P O W E R E D   B Y -                         
                 /     \                                                     
                 |  |  |   _    _      __       _____    __    __             
                 |  |  |  | |  | |    /  \     |  _  \  |  |  /  |          
                  \  \/   | |  | |   /    \    | | | |  |  | /  /          
                 / \  \   | |__| |  /  /\  \   | |_| |  |  |/  /          
                |  |  |   |  __  | /  /__\  \  |    /   |      \           
                |  |  |   | |  | | |   __   |  |    \   |  |\   \          
                \     /   | |  | | |  |  |  |  | |\  \  |  | \   \       
                 \___/    |_|  |_| |__|  |__|  |_| \__\ |__|  \__/        
                                                                              
                      - O R C A' S   B I G   F R I E N D -                    
                                      &                                       
                       - I N T E G R A L  F E E D E R -                       
                                                                              
 v1 FN, 2020, v2 2021                                                         
------------------------------------------------------------------------------


Reading SHARK input file 4_deprot.SHARKINP.tmp ... ok
----------------------
SHARK INTEGRAL PACKAGE
----------------------

Number of atoms                             ...     27
Number of basis functions                   ...    437
Number of shells                            ...    185
Maximum angular momentum                    ...      3
Integral batch strategy                     ... SHARK/LIBINT Hybrid
RI-J (if used) integral strategy            ... SPLIT-RIJ (Revised 2003 algorithm where possible)
Printlevel                                  ...      1
Contraction scheme used                     ... SEGMENTED contraction
Coulomb Range Separation                    ... NOT USED
Exchange Range Separation                   ... Long Range
   Mu parameter                             ...  0.300000
   Scaling (regular/separated)              ...  0.157706  0.842294
Finite Nucleus Model                        ... NOT USED
Auxiliary Coulomb fitting basis             ... AVAILABLE
   # of basis functions in Aux-J            ...    715
   # of shells in Aux-J                     ...    245
   Maximum angular momentum in Aux-J        ...      4
Auxiliary J/K fitting basis                 ... NOT available
Auxiliary Correlation fitting basis         ... NOT available
Auxiliary 'external' fitting basis          ... NOT available
Integral threshold                          ...     2.500000e-11
Primitive cut-off                           ...     2.500000e-12
Primitive pair pre-selection threshold      ...     2.500000e-12

Calculating pre-screening integrals         ... done (  0.1 sec) Dimension = 185
Organizing shell pair data                  ... done (  0.1 sec)
Shell pair information
Total number of shell pairs                 ...     17205
Shell pairs after pre-screening             ...     14381
Total number of primitive shell pairs       ...     50376
Primitive shell pairs kept                  ...     30529
          la=0 lb=0:   4360 shell pairs
          la=1 lb=0:   4224 shell pairs
          la=1 lb=1:   1053 shell pairs
          la=2 lb=0:   1908 shell pairs
          la=2 lb=1:    944 shell pairs
          la=2 lb=2:    228 shell pairs
          la=3 lb=0:    935 shell pairs
          la=3 lb=1:    459 shell pairs
          la=3 lb=2:    212 shell pairs
          la=3 lb=3:     58 shell pairs

Calculating one electron integrals          ... done (  0.0 sec)
Calculating RI/J V-Matrix + Cholesky decomp.... done (  0.0 sec)
Calculating Nuclear repulsion               ... done (  0.0 sec) ENN=    631.465208137071 Eh

SHARK setup successfully completed in   0.6 seconds

Maximum memory used throughout the entire GTOINT-calculation: 26.8 MB


           ************************************************************
           *        Program running with 4 parallel MPI-processes     *
           *              working on a common directory               *
           ************************************************************
-------------------------------------------------------------------------------
                                 ORCA SCF
-------------------------------------------------------------------------------

------------
SCF SETTINGS
------------
Hamiltonian:
 Density Functional     Method          .... DFT(GTOs)
 Exchange Functional    Exchange        .... WB97X
 Correlation Functional Correlation     .... WB97X
 Gradients option       PostSCFGGA      .... off
 Hybrid DFT is turned on
   Fraction HF Exchange ScalHFX         ....  0.157706
   Scaling of DF-GGA-X  ScalDFX         ....  0.000000
   Scaling of DF-GGA-C  ScalDFC         ....  1.000000
   Scaling of DF-LDA-C  ScalLDAC        ....  1.000000
   Perturbative correction              ....  0.000000
   Density functional embedding theory  .... OFF
 Long-range corrected/Screened/Range-Separated Hybrid DFT is turned on
   Amount of maximum screened exact exchange              ....  0.842294
   Range separation parameter mu (erf(mu*r12)/r12)        ....  0.300000
 RI-approximation to the Coulomb term is turned on
   Number of AuxJ basis functions       .... 715
   RIJ-COSX (HFX calculated with COS-X)).... on


General Settings:
 Integral files         IntName         .... 4_deprot
 Hartree-Fock type      HFTyp           .... RHF
 Total Charge           Charge          ....    0
 Multiplicity           Mult            ....    1
 Number of Electrons    NEL             ....   84
 Basis Dimension        Dim             ....  437
 Nuclear Repulsion      ENuc            ....    631.4652081371 Eh

Convergence Acceleration:
 DIIS                   CNVDIIS         .... on
   Start iteration      DIISMaxIt       ....     0
   Startup error        DIISStart       ....  0.200000
   # of expansion vecs  DIISMaxEq       ....     5
   Bias factor          DIISBfac        ....   1.050
   Max. coefficient     DIISMaxC        ....  10.000
 Trust-Rad. Augm. Hess. CNVTRAH         .... auto
   Auto Start mean grad. ratio tolernc. ....  1.125000
   Auto Start start iteration           ....    20
   Auto Start num. interpolation iter.  ....    10
   Max. Number of Micro iterations      ....    16
   Max. Number of Macro iterations      .... Maxiter - #DIIS iter
   Number of Davidson start vectors     ....     2
   Converg. threshold I  (grad. norm)   ....   1.000e-05
   Converg. threshold II (energy diff.) ....   1.000e-08
   Grad. Scal. Fac. for Micro threshold ....   0.100
   Minimum threshold for Micro iter.    ....   0.010
   NR start threshold (gradient norm)   ....   0.001
   Initial trust radius                 ....   0.400
   Minimum AH scaling param. (alpha)    ....   1.000
   Maximum AH scaling param. (alpha)    .... 1000.000
   Orbital update algorithm             .... Taylor
   White noise on init. David. guess    .... on
   Maximum white noise                  ....   0.010
   Quad. conv. algorithm                .... NR
 SOSCF                  CNVSOSCF        .... on
   Start iteration      SOSCFMaxIt      ....   150
   Startup grad/error   SOSCFStart      ....  0.001000
 Level Shifting         CNVShift        .... on
   Level shift para.    LevelShift      ....    0.2500
   Turn off err/grad.   ShiftErr        ....    0.0000
 Zerner damping         CNVZerner       .... off
 Static damping         CNVDamp         .... on
   Fraction old density DampFac         ....    0.8500
   Max. Damping (<1)    DampMax         ....    0.9800
   Min. Damping (>=0)   DampMin         ....    0.0000
   Turn off err/grad.   DampErr         ....    0.0300
 Fernandez-Rico         CNVRico         .... off

SCF Procedure:
 Maximum # iterations   MaxIter         ....   125
 SCF integral mode      SCFMode         .... Direct
   Integral package                     .... SHARK and LIBINT hybrid scheme
 Reset frequency        DirectResetFreq ....    20
 Integral Threshold     Thresh          ....  2.500e-11 Eh
 Primitive CutOff       TCut            ....  2.500e-12 Eh

Convergence Tolerance:
 Convergence Check Mode ConvCheckMode   .... Total+1el-Energy
 Convergence forced     ConvForced      .... 0
 Energy Change          TolE            ....  1.000e-08 Eh
 1-El. energy change                    ....  1.000e-05 Eh
 Orbital Gradient       TolG            ....  1.000e-05
 Orbital Rotation angle TolX            ....  1.000e-05
 DIIS Error             TolErr          ....  5.000e-07


Diagonalization of the overlap matrix:
Smallest eigenvalue                        ... 6.520e-05
Time for diagonalization                   ...    0.032 sec
Threshold for overlap eigenvalues          ... 1.000e-08
Number of eigenvalues below threshold      ... 0
Time for construction of square roots      ...    0.016 sec
Total time needed                          ...    0.050 sec

Time for model grid setup =    0.214 sec

------------------------------
INITIAL GUESS: MODEL POTENTIAL
------------------------------
Loading Hartree-Fock densities                     ... done
Calculating cut-offs                               ... done
Initializing the effective Hamiltonian             ... done
Setting up the integral package (SHARK)            ... done
Starting the Coulomb interaction                   ... done (   0.4 sec)
Reading the grid                                   ... done
Mapping shells                                     ... done
Starting the XC term evaluation                    ... done (   0.3 sec)
  promolecular density results
     # of electrons  =     83.984537646
     EX              =    -63.842812065
     EC              =     -2.773786331
     EX+EC           =    -66.616598396
Transforming the Hamiltonian                       ... done (   0.0 sec)
Diagonalizing the Hamiltonian                      ... done (   0.0 sec)
Back transforming the eigenvectors                 ... done (   0.0 sec)
Now organizing SCF variables                       ... done
                      ------------------
                      INITIAL GUESS DONE (   1.0 sec)
                      ------------------
-------------------
DFT GRID GENERATION
-------------------

General Integration Accuracy     IntAcc      ... 4.388
Radial Grid Type                 RadialGrid  ... OptM3 with GC (2021)
Angular Grid (max. ang.)         AngularGrid ... 4 (Lebedev-302)
Angular grid pruning method      GridPruning ... 4 (adaptive)
Weight generation scheme         WeightScheme... Becke
Basis function cutoff            BFCut       ... 1.0000e-11
Integration weight cutoff        WCut        ... 1.0000e-14
Angular grids for H and He will be reduced by one unit
Partially contracted basis set               ... off
Rotationally invariant grid construction     ... off

Total number of grid points                  ...   117019
Total number of batches                      ...     1840
Average number of points per batch           ...       63
Average number of grid points per atom       ...     4334
Time for grid setup =    0.907 sec

--------------------
COSX GRID GENERATION
--------------------

GRIDX 1
-------
General Integration Accuracy     IntAcc      ... 3.816
Radial Grid Type                 RadialGrid  ... OptM3 with GC (2021)
Angular Grid (max. ang.)         AngularGrid ... 1 (Lebedev-50)
Angular grid pruning method      GridPruning ... 4 (adaptive)
Weight generation scheme         WeightScheme... Becke
Basis function cutoff            BFCut       ... 1.0000e-11
Integration weight cutoff        WCut        ... 1.0000e-14
Angular grids for H and He will be reduced by one unit
Partially contracted basis set               ... on
Rotationally invariant grid construction     ... off

Total number of grid points                  ...    14962
Total number of batches                      ...      249
Average number of points per batch           ...       60
Average number of grid points per atom       ...      554
UseSFitting                                  ... on

GRIDX 2
-------
General Integration Accuracy     IntAcc      ... 4.020
Radial Grid Type                 RadialGrid  ... OptM3 with GC (2021)
Angular Grid (max. ang.)         AngularGrid ... 2 (Lebedev-110)
Angular grid pruning method      GridPruning ... 4 (adaptive)
Weight generation scheme         WeightScheme... Becke
Basis function cutoff            BFCut       ... 1.0000e-11
Integration weight cutoff        WCut        ... 1.0000e-14
Angular grids for H and He will be reduced by one unit
Partially contracted basis set               ... on
Rotationally invariant grid construction     ... off

Total number of grid points                  ...    31445
Total number of batches                      ...      502
Average number of points per batch           ...       62
Average number of grid points per atom       ...     1165
UseSFitting                                  ... on

GRIDX 3
-------
General Integration Accuracy     IntAcc      ... 4.338
Radial Grid Type                 RadialGrid  ... OptM3 with GC (2021)
Angular Grid (max. ang.)         AngularGrid ... 3 (Lebedev-194)
Angular grid pruning method      GridPruning ... 4 (adaptive)
Weight generation scheme         WeightScheme... Becke
Basis function cutoff            BFCut       ... 1.0000e-11
Integration weight cutoff        WCut        ... 1.0000e-14
Angular grids for H and He will be reduced by one unit
Partially contracted basis set               ... on
Rotationally invariant grid construction     ... off

Total number of grid points                  ...    68509
Total number of batches                      ...     1084
Average number of points per batch           ...       63
Average number of grid points per atom       ...     2537
UseSFitting                                  ... on

Time for X-Grid setup             =    1.169 sec

--------------
SCF ITERATIONS
--------------
ITER       Energy         Delta-E        Max-DP      RMS-DP      [F,P]     Damp
               ***  Starting incremental Fock matrix formation  ***
  0   -461.8070765552   0.000000000000 0.02436978  0.00031539  0.1736889 0.8500
  1   -461.8699368861  -0.062860330886 0.03090568  0.00032026  0.1395844 0.8500
                               ***Turning on DIIS***
  2   -461.9176098148  -0.047672928629 0.02940671  0.00027040  0.1068137 0.8500
  3   -461.9527838261  -0.035174011390 0.02553486  0.00020560  0.0806507 0.8500
  4   -461.9797753291  -0.026991502918 0.02207760  0.00016485  0.0641243 0.8500
  5   -462.0009611808  -0.021185851774 0.01929737  0.00013839  0.0530132 0.8500
  6   -462.0181402861  -0.017179105274 0.01697889  0.00011843  0.0446168 0.8500
  7   -462.0323338451  -0.014193558958 0.01511048  0.00010267  0.0378271 0.8500
  8   -462.0441930381  -0.011859193077 0.01342815  0.00008891  0.0320294 0.8500
  9   -462.0541297936  -0.009936755438 0.07886866  0.00051038  0.0270599 0.0000
 10   -462.1079424751  -0.053812681467 0.00255996  0.00001905  0.0012121 0.0000
                      *** Initiating the SOSCF procedure ***
                           *** Shutting down DIIS ***
                      *** Re-Reading the Fockian *** 
                      *** Removing any level shift *** 
ITER      Energy       Delta-E        Grad      Rot      Max-DP    RMS-DP
 11   -462.10796269  -0.0000202172  0.000362  0.000362  0.002146  0.000011
               *** Restarting incremental Fock matrix formation ***
 12   -462.10795483   0.0000078638  0.000246  0.000553  0.001643  0.000015
 13   -462.10795570  -0.0000008673  0.000074  0.000414  0.000937  0.000008
 14   -462.10795587  -0.0000001743  0.000047  0.000039  0.000365  0.000005
 15   -462.10795593  -0.0000000626  0.000004  0.000009  0.000115  0.000001
                  ***Gradient check signals convergence***
              ***Rediagonalizing the Fockian in SOSCF/NRSCF***

               *****************************************************
               *                     SUCCESS                       *
               *           SCF CONVERGED AFTER  16 CYCLES          *
               *****************************************************

Old exchange energy                            =    -21.370948706 Eh
New exchange energy                            =    -21.370948019 Eh
Exchange energy change after final integration =      0.000000687 Eh
Total energy after final integration           =   -462.107955256 Eh
Final COS-X integration done in                =    38.463 sec

----------------
TOTAL SCF ENERGY
----------------

Total Energy       :         -462.10795526 Eh          -12574.59674 eV

Components:
Nuclear Repulsion  :          631.46520814 Eh           17183.04188 eV
Electronic Energy  :        -1093.57316339 Eh          -29757.63863 eV
One Electron Energy:        -1875.11454591 Eh          -51024.46083 eV
Two Electron Energy:          781.54138251 Eh           21266.82220 eV
Max COSX asymmetry :            0.00000222 Eh               0.00006 eV

Virial components:
Potential Energy   :         -921.86156343 Eh          -25085.12844 eV
Kinetic Energy     :          459.75360817 Eh           12510.53170 eV
Virial Ratio       :            2.00512089


DFT components:
N(Alpha)           :       42.000032183791 electrons
N(Beta)            :       42.000032183791 electrons
N(Total)           :       84.000064367582 electrons
E(XC)              :      -47.226088424292 Eh       
DFET-embed. en.    :        0.000000000000 Eh       

---------------
SCF CONVERGENCE
---------------

  Last Energy change         ...   -1.0264e-08  Tolerance :   1.0000e-08
  Last MAX-Density change    ...    1.7764e-15  Tolerance :   1.0000e-07
  Last RMS-Density change    ...    1.6438e-17  Tolerance :   5.0000e-09
  Last Orbital Gradient      ...    2.1169e-06  Tolerance :   1.0000e-05
  Last Orbital Rotation      ...    5.2948e-06  Tolerance :   1.0000e-05

             **** THE GBW FILE WAS UPDATED (4_deprot.gbw) ****
             **** DENSITY 4_deprot.scfp WAS UPDATED ****
             **** ENERGY FILE WAS UPDATED (4_deprot.en.tmp) ****
             **** THE GBW FILE WAS UPDATED (4_deprot.gbw) ****
             **** DENSITY 4_deprot.scfp WAS UPDATED ****
----------------
ORBITAL ENERGIES
----------------

  NO   OCC          E(Eh)            E(eV) 
   0   2.0000     -14.429337      -392.6422 
   1   2.0000     -14.429308      -392.6414 
   2   2.0000     -10.296265      -280.1756 
   3   2.0000     -10.296256      -280.1754 
   4   2.0000     -10.280503      -279.7467 
   5   2.0000     -10.279778      -279.7270 
   6   2.0000     -10.254737      -279.0456 
   7   2.0000     -10.251129      -278.9474 
   8   2.0000     -10.251091      -278.9464 
   9   2.0000     -10.251078      -278.9460 
  10   2.0000     -10.251036      -278.9449 
  11   2.0000      -1.149150       -31.2699 
  12   2.0000      -1.045823       -28.4583 
  13   2.0000      -0.941649       -25.6236 
  14   2.0000      -0.891301       -24.2535 
  15   2.0000      -0.870112       -23.6770 
  16   2.0000      -0.819951       -22.3120 
  17   2.0000      -0.819648       -22.3038 
  18   2.0000      -0.763357       -20.7720 
  19   2.0000      -0.750128       -20.4120 
  20   2.0000      -0.676657       -18.4128 
  21   2.0000      -0.665983       -18.1223 
  22   2.0000      -0.625298       -17.0152 
  23   2.0000      -0.587583       -15.9889 
  24   2.0000      -0.574044       -15.6205 
  25   2.0000      -0.561741       -15.2857 
  26   2.0000      -0.560090       -15.2408 
  27   2.0000      -0.538198       -14.6451 
  28   2.0000      -0.535021       -14.5587 
  29   2.0000      -0.529184       -14.3998 
  30   2.0000      -0.504836       -13.7373 
  31   2.0000      -0.498681       -13.5698 
  32   2.0000      -0.488378       -13.2895 
  33   2.0000      -0.486922       -13.2498 
  34   2.0000      -0.466999       -12.7077 
  35   2.0000      -0.459626       -12.5071 
  36   2.0000      -0.448608       -12.2072 
  37   2.0000      -0.444060       -12.0835 
  38   2.0000      -0.435123       -11.8403 
  39   2.0000      -0.366432        -9.9711 
  40   2.0000      -0.320428        -8.7193 
  41   2.0000      -0.312420        -8.5014 
  42   0.0000       0.114032         3.1030 
  43   0.0000       0.114082         3.1043 
  44   0.0000       0.117446         3.1959 
  45   0.0000       0.125324         3.4102 
  46   0.0000       0.146730         3.9927 
  47   0.0000       0.149839         4.0773 
  48   0.0000       0.161914         4.4059 
  49   0.0000       0.167841         4.5672 
  50   0.0000       0.171146         4.6571 
  51   0.0000       0.183709         4.9990 
  52   0.0000       0.184229         5.0131 
  53   0.0000       0.190158         5.1745 
  54   0.0000       0.198397         5.3987 
  55   0.0000       0.209471         5.7000 
  56   0.0000       0.215166         5.8550 
  57   0.0000       0.224637         6.1127 
  58   0.0000       0.227095         6.1796 
  59   0.0000       0.229222         6.2374 
  60   0.0000       0.234359         6.3772 
  61   0.0000       0.241221         6.5640 
  62   0.0000       0.243124         6.6158 
  63   0.0000       0.248004         6.7485 
  64   0.0000       0.255648         6.9565 
  65   0.0000       0.263132         7.1602 
  66   0.0000       0.286341         7.7917 
  67   0.0000       0.288617         7.8537 
  68   0.0000       0.288834         7.8596 
  69   0.0000       0.290726         7.9110 
  70   0.0000       0.317812         8.6481 
  71   0.0000       0.319047         8.6817 
  72   0.0000       0.324820         8.8388 
  73   0.0000       0.328567         8.9408 
  74   0.0000       0.339219         9.2306 
  75   0.0000       0.354960         9.6589 
  76   0.0000       0.364592         9.9211 
  77   0.0000       0.371259        10.1025 
  78   0.0000       0.373188        10.1550 
  79   0.0000       0.389889        10.6094 
  80   0.0000       0.400401        10.8955 
  81   0.0000       0.401035        10.9127 
  82   0.0000       0.426802        11.6139 
  83   0.0000       0.434976        11.8363 
  84   0.0000       0.438362        11.9284 
  85   0.0000       0.445328        12.1180 
  86   0.0000       0.462419        12.5831 
  87   0.0000       0.464341        12.6353 
  88   0.0000       0.483279        13.1507 
  89   0.0000       0.488520        13.2933 
  90   0.0000       0.489172        13.3111 
  91   0.0000       0.503077        13.6894 
  92   0.0000       0.507687        13.8149 
  93   0.0000       0.509789        13.8721 
  94   0.0000       0.511738        13.9251 
  95   0.0000       0.519839        14.1455 
  96   0.0000       0.521479        14.1902 
  97   0.0000       0.525647        14.3036 
  98   0.0000       0.529679        14.4133 
  99   0.0000       0.534910        14.5556 
 100   0.0000       0.540365        14.7041 
 101   0.0000       0.548773        14.9329 
 102   0.0000       0.553102        15.0507 
 103   0.0000       0.554284        15.0828 
 104   0.0000       0.562642        15.3103 
 105   0.0000       0.566574        15.4173 
 106   0.0000       0.583304        15.8725 
 107   0.0000       0.585937        15.9442 
 108   0.0000       0.586595        15.9621 
 109   0.0000       0.592484        16.1223 
 110   0.0000       0.600341        16.3361 
 111   0.0000       0.620868        16.8947 
 112   0.0000       0.627399        17.0724 
 113   0.0000       0.629460        17.1285 
 114   0.0000       0.654838        17.8190 
 115   0.0000       0.674528        18.3548 
 116   0.0000       0.682960        18.5843 
 117   0.0000       0.701688        19.0939 
 118   0.0000       0.703632        19.1468 
 119   0.0000       0.705713        19.2034 
 120   0.0000       0.723536        19.6884 
 121   0.0000       0.723899        19.6983 
 122   0.0000       0.732367        19.9287 
 123   0.0000       0.748483        20.3673 
 124   0.0000       0.760736        20.7007 
 125   0.0000       0.770744        20.9730 
 126   0.0000       0.782050        21.2807 
 127   0.0000       0.801131        21.7999 
 128   0.0000       0.843932        22.9646 
 129   0.0000       0.855791        23.2873 
 130   0.0000       0.859058        23.3762 
 131   0.0000       0.871288        23.7090 
 132   0.0000       0.883802        24.0495 
 133   0.0000       0.895310        24.3626 
 134   0.0000       0.925992        25.1975 
 135   0.0000       0.943450        25.6726 
 136   0.0000       0.949621        25.8405 
 137   0.0000       0.957557        26.0564 
 138   0.0000       0.982531        26.7360 
 139   0.0000       0.993279        27.0285 
 140   0.0000       0.994690        27.0669 
 141   0.0000       1.013198        27.5705 
 142   0.0000       1.036245        28.1977 
 143   0.0000       1.041337        28.3362 
 144   0.0000       1.044012        28.4090 
 145   0.0000       1.052132        28.6300 
 146   0.0000       1.068517        29.0758 
 147   0.0000       1.079771        29.3821 
 148   0.0000       1.094082        29.7715 
 149   0.0000       1.101909        29.9845 
 150   0.0000       1.117874        30.4189 
 151   0.0000       1.131537        30.7907 
 152   0.0000       1.145648        31.1747 
 153   0.0000       1.145892        31.1813 
 154   0.0000       1.156051        31.4577 
 155   0.0000       1.167368        31.7657 
 156   0.0000       1.180490        32.1228 
 157   0.0000       1.214575        33.0503 
 158   0.0000       1.242186        33.8016 
 159   0.0000       1.260939        34.3119 
 160   0.0000       1.267806        34.4987 
 161   0.0000       1.282050        34.8864 
 162   0.0000       1.283493        34.9256 
 163   0.0000       1.297013        35.2935 
 164   0.0000       1.297916        35.3181 
 165   0.0000       1.318965        35.8909 
 166   0.0000       1.324155        36.0321 
 167   0.0000       1.339905        36.4607 
 168   0.0000       1.358466        36.9657 
 169   0.0000       1.370799        37.3013 
 170   0.0000       1.375087        37.4180 
 171   0.0000       1.425173        38.7809 
 172   0.0000       1.425547        38.7911 
 173   0.0000       1.439112        39.1602 
 174   0.0000       1.471593        40.0441 
 175   0.0000       1.526325        41.5334 
 176   0.0000       1.529402        41.6171 
 177   0.0000       1.542773        41.9810 
 178   0.0000       1.552896        42.2565 
 179   0.0000       1.583591        43.0917 
 180   0.0000       1.616663        43.9916 
 181   0.0000       1.621874        44.1334 
 182   0.0000       1.629893        44.3516 
 183   0.0000       1.631720        44.4014 
 184   0.0000       1.652665        44.9713 
 185   0.0000       1.660336        45.1800 
 186   0.0000       1.665690        45.3257 
 187   0.0000       1.666495        45.3476 
 188   0.0000       1.669022        45.4164 
 189   0.0000       1.680786        45.7365 
 190   0.0000       1.688400        45.9437 
 191   0.0000       1.691566        46.0299 
 192   0.0000       1.707562        46.4651 
 193   0.0000       1.710131        46.5350 
 194   0.0000       1.712272        46.5933 
 195   0.0000       1.722640        46.8754 
 196   0.0000       1.723612        46.9019 
 197   0.0000       1.752985        47.7011 
 198   0.0000       1.753647        47.7192 
 199   0.0000       1.756850        47.8063 
 200   0.0000       1.767187        48.0876 
 201   0.0000       1.768183        48.1147 
 202   0.0000       1.804778        49.1105 
 203   0.0000       1.805293        49.1245 
 204   0.0000       1.816875        49.4397 
 205   0.0000       1.824812        49.6556 
 206   0.0000       1.834435        49.9175 
 207   0.0000       1.851703        50.3874 
 208   0.0000       1.874091        50.9966 
 209   0.0000       1.876976        51.0751 
 210   0.0000       1.878259        51.1100 
 211   0.0000       1.915442        52.1218 
 212   0.0000       1.921640        52.2905 
 213   0.0000       1.941102        52.8201 
 214   0.0000       1.967666        53.5429 
 215   0.0000       1.991429        54.1895 
 216   0.0000       2.008224        54.6465 
 217   0.0000       2.023354        55.0582 
 218   0.0000       2.031767        55.2872 
 219   0.0000       2.048990        55.7559 
 220   0.0000       2.063403        56.1481 
 221   0.0000       2.089546        56.8594 
 222   0.0000       2.104917        57.2777 
 223   0.0000       2.134028        58.0698 
 224   0.0000       2.147753        58.4433 
 225   0.0000       2.180265        59.3280 
 226   0.0000       2.188967        59.5648 
 227   0.0000       2.198154        59.8148 
 228   0.0000       2.214605        60.2625 
 229   0.0000       2.223197        60.4963 
 230   0.0000       2.228838        60.6498 
 231   0.0000       2.249102        61.2012 
 232   0.0000       2.284463        62.1634 
 233   0.0000       2.286984        62.2320 
 234   0.0000       2.298701        62.5508 
 235   0.0000       2.311629        62.9026 
 236   0.0000       2.332090        63.4594 
 237   0.0000       2.371875        64.5420 
 238   0.0000       2.382381        64.8279 
 239   0.0000       2.387927        64.9788 
 240   0.0000       2.402977        65.3883 
 241   0.0000       2.407339        65.5070 
 242   0.0000       2.409000        65.5522 
 243   0.0000       2.427603        66.0584 
 244   0.0000       2.450359        66.6777 
 245   0.0000       2.459184        66.9178 
 246   0.0000       2.463725        67.0414 
 247   0.0000       2.472076        67.2686 
 248   0.0000       2.480040        67.4853 
 249   0.0000       2.483613        67.5825 
 250   0.0000       2.487761        67.6954 
 251   0.0000       2.496109        67.9226 
 252   0.0000       2.504437        68.1492 
 253   0.0000       2.533460        68.9389 
 254   0.0000       2.534255        68.9606 
 255   0.0000       2.536444        69.0201 
 256   0.0000       2.556585        69.5682 
 257   0.0000       2.582350        70.2693 
 258   0.0000       2.584034        70.3151 
 259   0.0000       2.606597        70.9291 
 260   0.0000       2.633948        71.6734 
 261   0.0000       2.637107        71.7593 
 262   0.0000       2.647080        72.0307 
 263   0.0000       2.663049        72.4652 
 264   0.0000       2.677622        72.8618 
 265   0.0000       2.689519        73.1855 
 266   0.0000       2.694883        73.3315 
 267   0.0000       2.710109        73.7458 
 268   0.0000       2.722662        74.0874 
 269   0.0000       2.730711        74.3064 
 270   0.0000       2.741329        74.5954 
 271   0.0000       2.762624        75.1748 
 272   0.0000       2.766032        75.2676 
 273   0.0000       2.778064        75.5950 
 274   0.0000       2.789424        75.9041 
 275   0.0000       2.799845        76.1876 
 276   0.0000       2.808479        76.4226 
 277   0.0000       2.818797        76.7034 
 278   0.0000       2.835513        77.1582 
 279   0.0000       2.845191        77.4216 
 280   0.0000       2.873638        78.1957 
 281   0.0000       2.873920        78.2033 
 282   0.0000       2.877623        78.3041 
 283   0.0000       2.913167        79.2713 
 284   0.0000       2.934130        79.8417 
 285   0.0000       2.939608        79.9908 
 286   0.0000       2.954667        80.4006 
 287   0.0000       2.958623        80.5082 
 288   0.0000       2.986204        81.2588 
 289   0.0000       3.006153        81.8016 
 290   0.0000       3.018058        82.1255 
 291   0.0000       3.019668        82.1693 
 292   0.0000       3.034939        82.5849 
 293   0.0000       3.047905        82.9377 
 294   0.0000       3.075128        83.6785 
 295   0.0000       3.079559        83.7990 
 296   0.0000       3.109887        84.6243 
 297   0.0000       3.120969        84.9259 
 298   0.0000       3.131782        85.2201 
 299   0.0000       3.136012        85.3352 
 300   0.0000       3.169339        86.2421 
 301   0.0000       3.171827        86.3098 
 302   0.0000       3.208999        87.3213 
 303   0.0000       3.225190        87.7619 
 304   0.0000       3.238322        88.1192 
 305   0.0000       3.241113        88.1952 
 306   0.0000       3.257775        88.6486 
 307   0.0000       3.263547        88.8056 
 308   0.0000       3.266953        88.8983 
 309   0.0000       3.273148        89.0669 
 310   0.0000       3.280934        89.2787 
 311   0.0000       3.285382        89.3998 
 312   0.0000       3.310362        90.0795 
 313   0.0000       3.323081        90.4256 
 314   0.0000       3.324989        90.4776 
 315   0.0000       3.327651        90.5500 
 316   0.0000       3.332639        90.6857 
 317   0.0000       3.343497        90.9812 
 318   0.0000       3.345248        91.0288 
 319   0.0000       3.378947        91.9458 
 320   0.0000       3.403071        92.6023 
 321   0.0000       3.415482        92.9400 
 322   0.0000       3.428599        93.2969 
 323   0.0000       3.430141        93.3389 
 324   0.0000       3.433951        93.4426 
 325   0.0000       3.444276        93.7235 
 326   0.0000       3.447713        93.8170 
 327   0.0000       3.449569        93.8675 
 328   0.0000       3.471986        94.4775 
 329   0.0000       3.473441        94.5171 
 330   0.0000       3.510410        95.5231 
 331   0.0000       3.518458        95.7421 
 332   0.0000       3.525334        95.9292 
 333   0.0000       3.545869        96.4880 
 334   0.0000       3.564630        96.9985 
 335   0.0000       3.573580        97.2420 
 336   0.0000       3.592570        97.7588 
 337   0.0000       3.625965        98.6675 
 338   0.0000       3.645390        99.1961 
 339   0.0000       3.650413        99.3328 
 340   0.0000       3.651411        99.3599 
 341   0.0000       3.656991        99.5118 
 342   0.0000       3.659634        99.5837 
 343   0.0000       3.668098        99.8140 
 344   0.0000       3.675644       100.0193 
 345   0.0000       3.681652       100.1829 
 346   0.0000       3.718499       101.1855 
 347   0.0000       3.739626       101.7604 
 348   0.0000       3.740436       101.7824 
 349   0.0000       3.758757       102.2810 
 350   0.0000       3.760428       102.3265 
 351   0.0000       3.798683       103.3674 
 352   0.0000       3.806287       103.5743 
 353   0.0000       3.820688       103.9662 
 354   0.0000       3.853314       104.8540 
 355   0.0000       3.874000       105.4169 
 356   0.0000       3.920889       106.6928 
 357   0.0000       3.958237       107.7091 
 358   0.0000       4.001135       108.8764 
 359   0.0000       4.002312       108.9085 
 360   0.0000       4.009597       109.1067 
 361   0.0000       4.050686       110.2248 
 362   0.0000       4.087085       111.2152 
 363   0.0000       4.088808       111.2621 
 364   0.0000       4.106605       111.7464 
 365   0.0000       4.127163       112.3058 
 366   0.0000       4.132048       112.4388 
 367   0.0000       4.139179       112.6328 
 368   0.0000       4.142240       112.7161 
 369   0.0000       4.159895       113.1965 
 370   0.0000       4.169390       113.4549 
 371   0.0000       4.174027       113.5810 
 372   0.0000       4.210183       114.5649 
 373   0.0000       4.259280       115.9009 
 374   0.0000       4.315180       117.4220 
 375   0.0000       4.341446       118.1368 
 376   0.0000       4.397477       119.6614 
 377   0.0000       4.400966       119.7564 
 378   0.0000       4.430792       120.5680 
 379   0.0000       4.442545       120.8878 
 380   0.0000       4.454439       121.2115 
 381   0.0000       4.462626       121.4342 
 382   0.0000       4.470636       121.6522 
 383   0.0000       4.472594       121.7055 
 384   0.0000       4.494395       122.2987 
 385   0.0000       4.495130       122.3187 
 386   0.0000       4.522255       123.0568 
 387   0.0000       4.524811       123.1264 
 388   0.0000       4.548710       123.7767 
 389   0.0000       4.554842       123.9435 
 390   0.0000       4.650455       126.5453 
 391   0.0000       4.655695       126.6879 
 392   0.0000       4.675032       127.2141 
 393   0.0000       4.763145       129.6118 
 394   0.0000       4.800564       130.6300 
 395   0.0000       4.820959       131.1850 
 396   0.0000       4.864305       132.3645 
 397   0.0000       4.889099       133.0392 
 398   0.0000       4.923234       133.9680 
 399   0.0000       4.938705       134.3890 
 400   0.0000       4.952902       134.7753 
 401   0.0000       5.017940       136.5451 
 402   0.0000       5.043311       137.2355 
 403   0.0000       5.053845       137.5221 
 404   0.0000       5.105708       138.9334 
 405   0.0000       5.153057       140.2218 
 406   0.0000       5.213116       141.8561 
 407   0.0000       5.229911       142.3131 
 408   0.0000       5.262693       143.2052 
 409   0.0000       5.301205       144.2531 
 410   0.0000       5.366949       146.0421 
 411   0.0000       5.367051       146.0449 
 412   0.0000       5.467332       148.7737 
 413   0.0000       5.473802       148.9497 
 414   0.0000       5.495482       149.5397 
 415   0.0000       5.506043       149.8270 
 416   0.0000       5.617945       152.8720 
 417   0.0000       5.657709       153.9541 
 418   0.0000       5.738369       156.1490 
 419   0.0000       5.856496       159.3634 
 420   0.0000       5.880149       160.0070 
 421   0.0000       5.906208       160.7161 
 422   0.0000       6.055924       164.7901 
 423   0.0000       6.098655       165.9528 
 424   0.0000       6.115809       166.4196 
 425   0.0000       6.290149       171.1636 
 426   0.0000      22.394940       609.3973 
 427   0.0000      22.406929       609.7235 
 428   0.0000      22.412367       609.8715 
 429   0.0000      22.436654       610.5324 
 430   0.0000      22.457970       611.1124 
 431   0.0000      22.697931       617.6421 
 432   0.0000      22.767623       619.5385 
 433   0.0000      22.828695       621.2004 
 434   0.0000      22.980413       625.3288 
 435   0.0000      32.968747       897.1252 
 436   0.0000      33.204727       903.5466 

                    ********************************
                    * MULLIKEN POPULATION ANALYSIS *
                    ********************************

-----------------------
MULLIKEN ATOMIC CHARGES
-----------------------
   0 C :   -0.059403
   1 C :   -0.059460
   2 N :    0.009275
   3 N :    0.009397
   4 C :   -0.153345
   5 C :   -0.153366
   6 C :   -0.244187
   7 C :   -0.343012
   8 C :   -0.343073
   9 C :   -0.342940
  10 C :   -0.343083
  11 H :    0.167982
  12 H :    0.168028
  13 H :    0.129877
  14 H :    0.129916
  15 H :    0.102852
  16 H :    0.102742
  17 H :    0.102946
  18 H :    0.102777
  19 H :    0.119590
  20 H :    0.119609
  21 H :    0.119441
  22 H :    0.119586
  23 H :    0.134421
  24 H :    0.134515
  25 H :    0.134418
  26 H :    0.134498
Sum of atomic charges:   -0.0000000

--------------------------------
MULLIKEN REDUCED ORBITAL CHARGES
--------------------------------
  0 C s       :     3.194920  s :     3.194920
      pz      :     1.025479  p :     2.700316
      px      :     0.917316
      py      :     0.757521
      dz2     :     0.031514  d :     0.153917
      dxz     :     0.018286
      dyz     :     0.018580
      dx2y2   :     0.040499
      dxy     :     0.045040
      f0      :     0.001073  f :     0.010250
      f+1     :     0.000800
      f-1     :     0.001089
      f+2     :     0.001285
      f-2     :     0.001187
      f+3     :     0.003253
      f-3     :     0.001564
  1 C s       :     3.194986  s :     3.194986
      pz      :     1.026116  p :     2.700286
      px      :     0.917406
      py      :     0.756764
      dz2     :     0.031656  d :     0.153938
      dxz     :     0.018295
      dyz     :     0.018375
      dx2y2   :     0.040583
      dxy     :     0.045029
      f0      :     0.001079  f :     0.010250
      f+1     :     0.000813
      f-1     :     0.001070
      f+2     :     0.001296
      f-2     :     0.001163
      f+3     :     0.003263
      f-3     :     0.001566
  2 N s       :     3.437904  s :     3.437904
      pz      :     1.022162  p :     3.445435
      px      :     1.442232
      py      :     0.981041
      dz2     :     0.027889  d :     0.101868
      dxz     :     0.016911
      dyz     :     0.027886
      dx2y2   :     0.016282
      dxy     :     0.012898
      f0      :     0.000723  f :     0.005518
      f+1     :     0.000650
      f-1     :     0.001303
      f+2     :     0.000767
      f-2     :     0.000480
      f+3     :     0.000795
      f-3     :     0.000801
  3 N s       :     3.437867  s :     3.437867
      pz      :     1.022508  p :     3.445348
      px      :     1.442186
      py      :     0.980655
      dz2     :     0.027896  d :     0.101870
      dxz     :     0.016908
      dyz     :     0.027824
      dx2y2   :     0.016343
      dxy     :     0.012899
      f0      :     0.000732  f :     0.005518
      f+1     :     0.000646
      f-1     :     0.001288
      f+2     :     0.000774
      f-2     :     0.000485
      f+3     :     0.000793
      f-3     :     0.000801
  4 C s       :     3.144352  s :     3.144352
      pz      :     0.817228  p :     2.899949
      px      :     1.070509
      py      :     1.012212
      dz2     :     0.016813  d :     0.097674
      dxz     :     0.021361
      dyz     :     0.030099
      dx2y2   :     0.009017
      dxy     :     0.020385
      f0      :     0.002349  f :     0.011370
      f+1     :     0.002287
      f-1     :     0.001965
      f+2     :     0.001631
      f-2     :     0.000354
      f+3     :     0.002135
      f-3     :     0.000649
  5 C s       :     3.144148  s :     3.144148
      pz      :     0.818659  p :     2.900185
      px      :     1.070591
      py      :     1.010935
      dz2     :     0.016813  d :     0.097664
      dxz     :     0.021191
      dyz     :     0.030074
      dx2y2   :     0.009021
      dxy     :     0.020564
      f0      :     0.002349  f :     0.011369
      f+1     :     0.002268
      f-1     :     0.001960
      f+2     :     0.001640
      f-2     :     0.000378
      f+3     :     0.002129
      f-3     :     0.000644
  6 C s       :     3.716786  s :     3.716786
      pz      :     1.100226  p :     2.404829
      px      :     0.672463
      py      :     0.632140
      dz2     :     0.016136  d :     0.109092
      dxz     :     0.021410
      dyz     :     0.031997
      dx2y2   :     0.009015
      dxy     :     0.030535
      f0      :     0.001378  f :     0.013479
      f+1     :     0.000442
      f-1     :     0.003465
      f+2     :     0.001884
      f-2     :     0.003577
      f+3     :     0.001805
      f-3     :     0.000928
  7 C s       :     3.279848  s :     3.279848
      pz      :     1.022435  p :     3.014126
      px      :     0.966426
      py      :     1.025265
      dz2     :     0.012316  d :     0.046280
      dxz     :     0.007025
      dyz     :     0.005012
      dx2y2   :     0.013493
      dxy     :     0.008435
      f0      :     0.000744  f :     0.002758
      f+1     :     0.000310
      f-1     :     0.000153
      f+2     :    -0.000034
      f-2     :     0.000222
      f+3     :     0.000653
      f-3     :     0.000709
  8 C s       :     3.279913  s :     3.279913
      pz      :     1.021501  p :     3.014117
      px      :     0.963896
      py      :     1.028721
      dz2     :     0.012594  d :     0.046286
      dxz     :     0.006876
      dyz     :     0.004878
      dx2y2   :     0.013050
      dxy     :     0.008889
      f0      :     0.000735  f :     0.002756
      f+1     :     0.000328
      f-1     :     0.000151
      f+2     :    -0.000017
      f-2     :     0.000205
      f+3     :     0.000653
      f-3     :     0.000701
  9 C s       :     3.279866  s :     3.279866
      pz      :     1.021307  p :     3.014041
      px      :     0.967001
      py      :     1.025733
      dz2     :     0.012778  d :     0.046276
      dxz     :     0.006798
      dyz     :     0.004775
      dx2y2   :     0.013479
      dxy     :     0.008447
      f0      :     0.000739  f :     0.002756
      f+1     :     0.000329
      f-1     :     0.000149
      f+2     :    -0.000022
      f-2     :     0.000209
      f+3     :     0.000643
      f-3     :     0.000709
 10 C s       :     3.279905  s :     3.279905
      pz      :     1.022369  p :     3.014137
      px      :     0.963447
      py      :     1.028321
      dz2     :     0.012407  d :     0.046285
      dxz     :     0.007215
      dyz     :     0.004747
      dx2y2   :     0.013161
      dxy     :     0.008755
      f0      :     0.000745  f :     0.002756
      f+1     :     0.000322
      f-1     :     0.000142
      f+2     :    -0.000021
      f-2     :     0.000208
      f+3     :     0.000657
      f-3     :     0.000703
 11 H s       :     0.809200  s :     0.809200
      pz      :     0.009890  p :     0.022818
      px      :     0.004970
      py      :     0.007958
 12 H s       :     0.809153  s :     0.809153
      pz      :     0.009977  p :     0.022819
      px      :     0.004972
      py      :     0.007870
 13 H s       :     0.847115  s :     0.847115
      pz      :     0.015668  p :     0.023007
      px      :     0.003831
      py      :     0.003508
 14 H s       :     0.847078  s :     0.847078
      pz      :     0.015691  p :     0.023006
      px      :     0.003830
      py      :     0.003484
 15 H s       :     0.875226  s :     0.875226
      pz      :     0.013727  p :     0.021922
      px      :     0.004103
      py      :     0.004092
 16 H s       :     0.875341  s :     0.875341
      pz      :     0.013742  p :     0.021916
      px      :     0.004080
      py      :     0.004094
 17 H s       :     0.875133  s :     0.875133
      pz      :     0.013771  p :     0.021921
      px      :     0.004082
      py      :     0.004068
 18 H s       :     0.875305  s :     0.875305
      pz      :     0.013733  p :     0.021918
      px      :     0.004105
      py      :     0.004081
 19 H s       :     0.858316  s :     0.858316
      pz      :     0.005395  p :     0.022094
      px      :     0.004048
      py      :     0.012650
 20 H s       :     0.858303  s :     0.858303
      pz      :     0.005413  p :     0.022088
      px      :     0.004085
      py      :     0.012589
 21 H s       :     0.858466  s :     0.858466
      pz      :     0.005320  p :     0.022094
      px      :     0.004057
      py      :     0.012717
 22 H s       :     0.858323  s :     0.858323
      pz      :     0.005367  p :     0.022091
      px      :     0.004069
      py      :     0.012655
 23 H s       :     0.843690  s :     0.843690
      pz      :     0.004827  p :     0.021889
      px      :     0.011033
      py      :     0.006029
 24 H s       :     0.843594  s :     0.843594
[...]
     70      -0.006145  -0.073167  -0.072377  -0.211611  -0.172896  -0.199454
     71       0.003265   0.039611   0.039424   0.142170   0.116203   0.133635
     72       0.009799  -0.119458  -0.118581   0.347604   0.283881  -0.346588
     73       0.006513  -0.077466  -0.076856   0.215564   0.176004  -0.215328
     74      -0.003106   0.037894   0.037843  -0.130797  -0.106830   0.130216
     75      -0.197431   0.112301  -0.122122  -0.293915   0.360279   0.287632
     76       0.124999  -0.069454   0.075484   0.173173  -0.212220  -0.169781
     77       0.063517  -0.036402   0.039814   0.113017  -0.138555  -0.110479
     78      -0.196082  -0.115368   0.125516  -0.285223   0.349364  -0.288487
     79      -0.128134  -0.073590   0.080020  -0.173830   0.212870  -0.176158
     80      -0.065085  -0.038766   0.042413  -0.112781   0.138154  -0.113896
                 78         79         80    
      0       0.000017  -0.000001   0.000002
      1       0.001523   0.000315   0.000219
      2      -0.002979  -0.000175  -0.000596
      3       0.000024  -0.000005   0.000006
      4      -0.001790   0.000314  -0.000214
      5      -0.003666   0.000179  -0.000597
      6       0.000001  -0.000006  -0.000029
      7      -0.000330   0.000326   0.000841
      8      -0.000007   0.000343   0.002376
      9      -0.000001   0.000000  -0.000017
     10       0.000379   0.000333  -0.000857
     11      -0.000016  -0.000349   0.002370
     12       0.000003   0.000187   0.000110
     13      -0.000283   0.038535   0.048635
     14      -0.000008  -0.047024  -0.047542
     15      -0.000003  -0.000826   0.000907
     16       0.000319   0.038343  -0.048163
     17      -0.000001   0.047450  -0.047732
     18      -0.000000   0.000015  -0.000008
     19       0.000034  -0.001793  -0.000006
     20       0.000085  -0.000008   0.000920
     21      -0.022923  -0.000087  -0.000058
     22       0.034490   0.000100   0.000057
     23      -0.004024  -0.000711  -0.000615
     24       0.022644   0.000097   0.000068
     25       0.036062   0.000104   0.000060
     26      -0.003536  -0.000697  -0.000605
     27       0.027349  -0.000095   0.000066
     28      -0.041530   0.000094  -0.000052
     29      -0.004913   0.000702  -0.000605
     30      -0.027127   0.000089  -0.000060
     31      -0.042533   0.000100  -0.000057
     32      -0.004967   0.000719  -0.000618
     33       0.000006  -0.002022  -0.001930
     34       0.001236  -0.456052  -0.462400
     35      -0.001336   0.535315   0.532032
     36       0.000021   0.009596  -0.009547
     37      -0.001591  -0.453612   0.457048
     38      -0.001747  -0.540243   0.533541
     39      -0.000221   0.000025   0.000010
     40      -0.003677  -0.000927  -0.002029
     41       0.034535  -0.001700   0.001986
     42      -0.000257  -0.000005  -0.000022
     43       0.004175  -0.000946   0.002013
     44       0.042320   0.001684   0.002003
     45      -0.006547  -0.000365  -0.000242
     46       0.002570  -0.000805  -0.000642
     47       0.048232   0.008368   0.007225
     48       0.005754   0.000253   0.000145
     49       0.002615  -0.000845  -0.000681
     50       0.049276   0.008193   0.007089
     51       0.007128  -0.000279   0.000167
     52      -0.003508  -0.000754   0.000597
     53       0.058694  -0.008237   0.007081
     54      -0.007689   0.000352  -0.000228
     55      -0.003469  -0.000782   0.000619
     56       0.058935  -0.008460   0.007259
     57      -0.004119  -0.000258  -0.000239
     58      -0.251767   0.000592   0.000599
     59      -0.110693   0.000695   0.000588
     60       0.013208   0.000229   0.000210
     61      -0.257531   0.000577   0.000593
     62      -0.114573   0.000698   0.000594
     63       0.008735  -0.000245   0.000225
     64       0.302078   0.000573  -0.000588
     65      -0.130078  -0.000687   0.000580
     66      -0.011496   0.000244  -0.000223
     67       0.306647   0.000619  -0.000616
     68      -0.133588  -0.000707   0.000592
     69       0.283564   0.001755   0.001240
     70      -0.166127  -0.000909  -0.000630
     71       0.111471   0.000493   0.000283
     72      -0.288578  -0.001732  -0.001225
     73      -0.179167  -0.000952  -0.000661
     74       0.108506   0.000461   0.000263
     75      -0.341469   0.001759  -0.001235
     76       0.201416  -0.000915   0.000631
     77       0.131262  -0.000489   0.000282
     78       0.342126  -0.001754   0.001234
     79       0.208771  -0.000951   0.000658
     80       0.135174  -0.000491   0.000279


-----------
IR SPECTRUM
-----------

 Mode   freq       eps      Int      T**2         TX        TY        TZ
       cm**-1   L/(mol*cm) km/mol    a.u.
----------------------------------------------------------------------------
  6:     26.22   0.000004    0.02  0.000044  (-0.006607  0.000112 -0.000171)
  7:     35.51   0.000000    0.00  0.000000  (-0.000332  0.000040 -0.000085)
  8:    116.18   0.001922    9.71  0.005162  ( 0.071839  0.000523  0.000686)
  9:    146.98   0.000001    0.01  0.000002  ( 0.001452  0.000076  0.000454)
 10:    161.01   0.000260    1.32  0.000505  (-0.000136 -0.000088  0.022468)
 11:    221.69   0.000023    0.11  0.000032  ( 0.005646  0.000254 -0.000127)
 12:    223.37   0.000029    0.15  0.000041  ( 0.006342  0.000583  0.000417)
 13:    246.17   0.000054    0.27  0.000068  ( 0.000101  0.008232 -0.000353)
 14:    257.84   0.000008    0.04  0.000010  (-0.000384 -0.001483 -0.002693)
 15:    271.03   0.000001    0.00  0.000001  (-0.000175 -0.000594  0.000720)
 16:    299.79   0.000663    3.35  0.000690  (-0.000871  0.026262  0.000098)
 17:    355.28   0.000361    1.82  0.000317  ( 0.000632  0.017788  0.000063)
 18:    403.82   0.002562   12.95  0.001980  (-0.044489 -0.000319 -0.000403)
 19:    444.21   0.000000    0.00  0.000000  ( 0.000031  0.000216  0.000036)
 20:    459.21   0.000001    0.00  0.000000  (-0.000003 -0.000054 -0.000606)
 21:    572.78   0.002258   11.41  0.001230  ( 0.000425 -0.035074 -0.000120)
 22:    635.40   0.000154    0.78  0.000076  (-0.000329 -0.000032  0.008688)
 23:    662.97   0.000688    3.48  0.000324  ( 0.017988  0.000384  0.000245)
 24:    679.08   0.000000    0.00  0.000000  (-0.000239 -0.000081 -0.000010)
 25:    689.40   0.002217   11.20  0.001003  ( 0.000095 -0.031676 -0.000110)
 26:    740.46   0.009505   48.03  0.004006  ( 0.063285  0.000324  0.000835)
 27:    855.44   0.000000    0.00  0.000000  (-0.000318 -0.000016 -0.000116)
 28:    907.02   0.002010   10.16  0.000691  (-0.000165  0.026294 -0.000139)
 29:    910.47   0.000161    0.81  0.000055  (-0.000005 -0.000836 -0.007378)
 30:    942.95   0.000051    0.26  0.000017  ( 0.004118  0.000011  0.000074)
 31:    943.35   0.000097    0.49  0.000032  ( 0.005660 -0.000347 -0.000074)
 32:    962.21   0.000011    0.06  0.000004  ( 0.001878 -0.000386 -0.000144)
 33:    962.34   0.000006    0.03  0.000002  ( 0.001445 -0.000112  0.000074)
 34:   1023.06   0.002132   10.78  0.000650  ( 0.000126 -0.025502 -0.000072)
 35:   1025.63   0.000048    0.24  0.000014  ( 0.000016  0.000175  0.003801)
 36:   1077.91   0.000166    0.84  0.000048  ( 0.000161 -0.006923  0.000049)
 37:   1102.36   0.000651    3.29  0.000184  ( 0.000249 -0.000009 -0.013575)
 38:   1118.84   0.001795    9.07  0.000501  ( 0.000445  0.000082 -0.022373)
 39:   1171.12   0.000005    0.02  0.000001  (-0.001113  0.000171 -0.000016)
 40:   1171.60   0.002513   12.70  0.000669  (-0.025869 -0.000185 -0.000231)
 41:   1199.05   0.000070    0.35  0.000018  ( 0.000048  0.000071 -0.004266)
 42:   1203.56   0.000019    0.10  0.000005  ( 0.000027  0.002245  0.000092)
 43:   1259.20   0.022816  115.30  0.005654  (-0.000547  0.075193  0.000248)
 44:   1305.35   0.001402    7.09  0.000335  (-0.000144  0.018309  0.000055)
 45:   1325.92   0.000446    2.26  0.000105  (-0.000191 -0.000021  0.010249)
 46:   1374.48   0.000000    0.00  0.000000  (-0.000059  0.000028  0.000025)
 47:   1375.03   0.000179    0.90  0.000041  (-0.006364  0.000107 -0.000054)
 48:   1404.24   0.000831    4.20  0.000185  ( 0.000233  0.000134 -0.013584)
 49:   1414.16   0.000292    1.47  0.000064  ( 0.003462 -0.007230 -0.000260)
 50:   1414.47   0.004565   23.07  0.001007  ( 0.027204 -0.016341  0.000170)
 51:   1414.92   0.005391   27.24  0.001189  (-0.029451 -0.017933 -0.000185)
 52:   1425.46   0.000124    0.63  0.000027  ( 0.000896  0.000371  0.005113)
 53:   1432.34   0.010589   53.51  0.002307  (-0.001399  0.048012  0.000090)
 54:   1444.78   0.002631   13.30  0.000568  (-0.000193  0.000030  0.023838)
 55:   1474.30   0.015025   75.93  0.003180  (-0.000500  0.056392  0.000118)
 56:   1487.54   0.000016    0.08  0.000003  ( 0.001666  0.000298 -0.000693)
 57:   1488.22   0.000066    0.34  0.000014  ( 0.003330 -0.001176  0.001213)
 58:   1491.51   0.000269    1.36  0.000056  (-0.007479 -0.000007  0.000506)
 59:   1491.64   0.000343    1.73  0.000072  (-0.008439  0.000373 -0.000644)
 60:   1502.09   0.001012    5.11  0.000210  (-0.000278 -0.008208 -0.011950)
 61:   1502.58   0.003732   18.86  0.000775  ( 0.000440  0.003372 -0.027631)
 62:   1511.72   0.000024    0.12  0.000005  (-0.000200 -0.000909 -0.002036)
 63:   1513.01   0.001803    9.11  0.000372  (-0.000298 -0.000220  0.019278)
 64:   1642.79   0.000073    0.37  0.000014  ( 0.000036  0.000021 -0.003728)
 65:   3063.81   0.000755    3.81  0.000077  ( 0.008743 -0.000530  0.000395)
 66:   3063.85   0.005283   26.70  0.000538  ( 0.023192  0.000181  0.000465)
 67:   3066.66   0.005373   27.15  0.000547  ( 0.000088  0.023374 -0.000651)
 68:   3066.90   0.002667   13.48  0.000271  ( 0.000666 -0.000987 -0.016432)
 69:   3117.64   0.000369    1.86  0.000037  ( 0.000092  0.000033 -0.006076)
 70:   3117.95   0.000017    0.09  0.000002  ( 0.000050 -0.001311 -0.000103)
 71:   3137.45   0.000726    3.67  0.000072  (-0.008496 -0.000027  0.000161)
 72:   3137.49   0.000594    3.00  0.000059  ( 0.007684  0.000182  0.000026)
 73:   3148.42   0.004524   22.86  0.000448  ( 0.000361 -0.021152 -0.000959)
 74:   3148.74   0.014722   74.40  0.001459  ( 0.000226  0.000654 -0.038191)
 75:   3155.93   0.000046    0.23  0.000005  (-0.002091  0.000028 -0.000357)
 76:   3156.03   0.004352   21.99  0.000430  (-0.020743  0.000027 -0.000120)
 77:   3158.29   0.011736   59.31  0.001160  (-0.000157  0.034052 -0.000111)
 78:   3158.44   0.000164    0.83  0.000016  (-0.000041 -0.002994 -0.002690)
 79:   3281.16   0.000027    0.14  0.000003  ( 0.000019 -0.001608 -0.000004)
 80:   3303.08   0.000179    0.91  0.000017  ( 0.000034  0.000011 -0.004115)

* The epsilon (eps) is given for a Dirac delta lineshape.
** The dipole moment derivative (T) already includes vibrational overlap.

The first frequency considered to be a vibration is 6
The total number of vibrations considered is 75


--------------------------
THERMOCHEMISTRY AT 298.15K
--------------------------

Temperature         ... 298.15 K
Pressure            ... 1.00 atm
Total Mass          ... 152.24 AMU

Throughout the following assumptions are being made:
  (1) The electronic state is orbitally nondegenerate
  (2) There are no thermally accessible electronically excited states
  (3) Hindered rotations indicated by low frequency modes are not
      treated as such but are treated as vibrations and this may
      cause some error
  (4) All equations used are the standard statistical mechanics
      equations for an ideal gas
  (5) All vibrations are strictly harmonic

freq.      26.22  E(vib)   ...       0.56 
freq.      35.51  E(vib)   ...       0.54 
freq.     116.18  E(vib)   ...       0.44 
freq.     146.98  E(vib)   ...       0.41 
freq.     161.01  E(vib)   ...       0.39 
freq.     221.69  E(vib)   ...       0.33 
freq.     223.37  E(vib)   ...       0.33 
freq.     246.17  E(vib)   ...       0.31 
freq.     257.84  E(vib)   ...       0.30 
freq.     271.03  E(vib)   ...       0.29 
freq.     299.79  E(vib)   ...       0.26 
freq.     355.28  E(vib)   ...       0.22 
freq.     403.82  E(vib)   ...       0.19 
freq.     444.21  E(vib)   ...       0.17 
freq.     459.21  E(vib)   ...       0.16 
freq.     572.78  E(vib)   ...       0.11 
freq.     635.40  E(vib)   ...       0.09 
freq.     662.97  E(vib)   ...       0.08 
freq.     679.08  E(vib)   ...       0.08 
freq.     689.40  E(vib)   ...       0.07 
freq.     740.46  E(vib)   ...       0.06 
freq.     855.44  E(vib)   ...       0.04 
freq.     907.02  E(vib)   ...       0.03 
freq.     910.47  E(vib)   ...       0.03 
freq.     942.95  E(vib)   ...       0.03 
freq.     943.35  E(vib)   ...       0.03 
freq.     962.21  E(vib)   ...       0.03 
freq.     962.34  E(vib)   ...       0.03 
freq.    1023.06  E(vib)   ...       0.02 
freq.    1025.63  E(vib)   ...       0.02 
freq.    1077.91  E(vib)   ...       0.02 
freq.    1102.36  E(vib)   ...       0.02 
freq.    1118.84  E(vib)   ...       0.01 
freq.    1171.12  E(vib)   ...       0.01 
freq.    1171.60  E(vib)   ...       0.01 
freq.    1199.05  E(vib)   ...       0.01 
freq.    1203.56  E(vib)   ...       0.01 
freq.    1259.20  E(vib)   ...       0.01 
freq.    1305.35  E(vib)   ...       0.01 
freq.    1325.92  E(vib)   ...       0.01 
freq.    1374.48  E(vib)   ...       0.01 
freq.    1375.03  E(vib)   ...       0.01 
freq.    1404.24  E(vib)   ...       0.00 
freq.    1414.16  E(vib)   ...       0.00 
freq.    1414.47  E(vib)   ...       0.00 
freq.    1414.92  E(vib)   ...       0.00 
freq.    1425.46  E(vib)   ...       0.00 
freq.    1432.34  E(vib)   ...       0.00 
freq.    1444.78  E(vib)   ...       0.00 
freq.    1474.30  E(vib)   ...       0.00 
freq.    1487.54  E(vib)   ...       0.00 
freq.    1488.22  E(vib)   ...       0.00 
freq.    1491.51  E(vib)   ...       0.00 
freq.    1491.64  E(vib)   ...       0.00 
freq.    1502.09  E(vib)   ...       0.00 
freq.    1502.58  E(vib)   ...       0.00 
freq.    1511.72  E(vib)   ...       0.00 
freq.    1513.01  E(vib)   ...       0.00 
freq.    1642.79  E(vib)   ...       0.00 
freq.    3063.81  E(vib)   ...       0.00 
freq.    3063.85  E(vib)   ...       0.00 
freq.    3066.66  E(vib)   ...       0.00 
freq.    3066.90  E(vib)   ...       0.00 
freq.    3117.64  E(vib)   ...       0.00 
freq.    3117.95  E(vib)   ...       0.00 
freq.    3137.45  E(vib)   ...       0.00 
freq.    3137.49  E(vib)   ...       0.00 
freq.    3148.42  E(vib)   ...       0.00 
freq.    3148.74  E(vib)   ...       0.00 
freq.    3155.93  E(vib)   ...       0.00 
freq.    3156.03  E(vib)   ...       0.00 
freq.    3158.29  E(vib)   ...       0.00 
freq.    3158.44  E(vib)   ...       0.00 
freq.    3281.16  E(vib)   ...       0.00 
freq.    3303.08  E(vib)   ...       0.00 

------------
INNER ENERGY
------------

The inner energy is: U= E(el) + E(ZPE) + E(vib) + E(rot) + E(trans)
    E(el)   - is the total energy from the electronic structure calculation
              = E(kin-el) + E(nuc-el) + E(el-el) + E(nuc-nuc)
    E(ZPE)  - the the zero temperature vibrational energy from the frequency calculation
    E(vib)  - the the finite temperature correction to E(ZPE) due to population
              of excited vibrational states
    E(rot)  - is the rotational thermal energy
    E(trans)- is the translational thermal energy

Summary of contributions to the inner energy U:
Electronic energy                ...   -462.11319279 Eh
Zero point energy                ...      0.24194797 Eh     151.82 kcal/mol
Thermal vibrational correction   ...      0.00929864 Eh       5.83 kcal/mol
Thermal rotational correction    ...      0.00141627 Eh       0.89 kcal/mol
Thermal translational correction ...      0.00141627 Eh       0.89 kcal/mol
-----------------------------------------------------------------------
Total thermal energy                   -461.85911364 Eh


Summary of corrections to the electronic energy:
(perhaps to be used in another calculation)
Total thermal correction                  0.01213118 Eh       7.61 kcal/mol
Non-thermal (ZPE) correction              0.24194797 Eh     151.82 kcal/mol
-----------------------------------------------------------------------
Total correction                          0.25407915 Eh     159.44 kcal/mol


--------
ENTHALPY
--------

The enthalpy is H = U + kB*T
                kB is Boltzmann's constant
Total free energy                 ...   -461.85911364 Eh 
Thermal Enthalpy correction       ...      0.00094421 Eh       0.59 kcal/mol
-----------------------------------------------------------------------
Total Enthalpy                    ...   -461.85816943 Eh


Note: Only C1 symmetry has been detected, increase convergence thresholds 
      if your molecule has a higher symmetry. Symmetry factor of 1.0 is   
      used for the rotational entropy correction. 
 

Note: Rotational entropy computed according to Herzberg 
Infrared and Raman Spectra, Chapter V,1, Van Nostrand Reinhold, 1945 
Point Group:  C1, Symmetry Number:   1  
Rotational constants in cm-1:     0.091398     0.018770     0.018091 

Vibrational entropy computed according to the QRRHO of S. Grimme
Chem.Eur.J. 2012 18 9955


-------
ENTROPY
-------

The entropy contributions are T*S = T*(S(el)+S(vib)+S(rot)+S(trans))
     S(el)   - electronic entropy
     S(vib)  - vibrational entropy
     S(rot)  - rotational entropy
     S(trans)- translational entropy
The entropies will be listed as multiplied by the temperature to get
units of energy

Electronic entropy                ...      0.00000000 Eh      0.00 kcal/mol
Vibrational entropy               ...      0.01627586 Eh     10.21 kcal/mol
Rotational entropy                ...      0.01441128 Eh      9.04 kcal/mol
Translational entropy             ...      0.01946649 Eh     12.22 kcal/mol
-----------------------------------------------------------------------
Final entropy term                ...      0.05015363 Eh     31.47 kcal/mol

In case the symmetry of your molecule has not been determined correctly
or in case you have a reason to use a different symmetry number we print 
out the resulting rotational entropy values for sn=1,12 :
 --------------------------------------------------------
|  sn= 1 | S(rot)=       0.01441128 Eh      9.04 kcal/mol|
|  sn= 2 | S(rot)=       0.01375683 Eh      8.63 kcal/mol|
|  sn= 3 | S(rot)=       0.01337399 Eh      8.39 kcal/mol|
|  sn= 4 | S(rot)=       0.01310237 Eh      8.22 kcal/mol|
|  sn= 5 | S(rot)=       0.01289168 Eh      8.09 kcal/mol|
|  sn= 6 | S(rot)=       0.01271954 Eh      7.98 kcal/mol|
|  sn= 7 | S(rot)=       0.01257399 Eh      7.89 kcal/mol|
|  sn= 8 | S(rot)=       0.01244791 Eh      7.81 kcal/mol|
|  sn= 9 | S(rot)=       0.01233670 Eh      7.74 kcal/mol|
|  sn=10 | S(rot)=       0.01223723 Eh      7.68 kcal/mol|
|  sn=11 | S(rot)=       0.01214724 Eh      7.62 kcal/mol|
|  sn=12 | S(rot)=       0.01206508 Eh      7.57 kcal/mol|
 --------------------------------------------------------


-------------------
GIBBS FREE ENERGY
-------------------

The Gibbs free energy is G = H - T*S

Total enthalpy                    ...   -461.85816943 Eh 
Total entropy correction          ...     -0.05015363 Eh    -31.47 kcal/mol
-----------------------------------------------------------------------
Final Gibbs free energy         ...   -461.90832307 Eh

For completeness - the Gibbs free energy minus the electronic energy
G-E(el)                           ...      0.20486973 Eh    128.56 kcal/mol


Timings for individual modules:

Sum of individual times         ...     2725.066 sec (=  45.418 min)
GTO integral calculation        ...        4.641 sec (=   0.077 min)   0.2 %
SCF iterations                  ...      826.227 sec (=  13.770 min)  30.3 %
SCF Gradient evaluation         ...      209.934 sec (=   3.499 min)   7.7 %
Geometry relaxation             ...        0.324 sec (=   0.005 min)   0.0 %
Analytical frequency calculation...     1683.939 sec (=  28.066 min)  61.8 %
                             ****ORCA TERMINATED NORMALLY****
TOTAL RUN TIME: 0 days 0 hours 45 minutes 27 seconds 431 msec
