
                                 *****************
                                 * O   R   C   A *
                                 *****************

                                            #,                                       
                                            ###                                      
                                            ####                                     
                                            #####                                    
                                            ######                                   
                                           ########,                                 
                                     ,,################,,,,,                         
                               ,,#################################,,                 
                          ,,##########################################,,             
                       ,#########################################, ''#####,          
                    ,#############################################,,   '####,        
                  ,##################################################,,,,####,       
                ,###########''''           ''''###############################       
              ,#####''   ,,,,##########,,,,          '''####'''          '####       
            ,##' ,,,,###########################,,,                        '##       
           ' ,,###''''                  '''############,,,                           
         ,,##''                                '''############,,,,        ,,,,,,###''
      ,#''                                            '''#######################'''  
     '                                                          ''''####''''         
             ,#######,   #######,   ,#######,      ##                                
            ,#'     '#,  ##    ##  ,#'     '#,    #''#        ######   ,####,        
            ##       ##  ##   ,#'  ##            #'  '#       #        #'  '#        
            ##       ##  #######   ##           ,######,      #####,   #    #        
            '#,     ,#'  ##    ##  '#,     ,#' ,#      #,         ##   #,  ,#        
             '#######'   ##     ##  '#######'  #'      '#     #####' # '####'        



                  #######################################################
                  #                        -***-                        #
                  #          Department of theory and spectroscopy      #
                  #    Directorship and core code : Frank Neese         #
                  #        Max Planck Institute fuer Kohlenforschung    #
                  #                Kaiser Wilhelm Platz 1               #
                  #                 D-45470 Muelheim/Ruhr               #
                  #                      Germany                        #
                  #                                                     #
                  #                  All rights reserved                #
                  #                        -***-                        #
                  #######################################################


                         Program Version 5.0.4 -  RELEASE  -


 With contributions from (in alphabetic order):
   Daniel Aravena         : Magnetic Suceptibility
   Michael Atanasov       : Ab Initio Ligand Field Theory (pilot matlab implementation)
   Alexander A. Auer      : GIAO ZORA, VPT2 properties, NMR spectrum
   Ute Becker             : Parallelization
   Giovanni Bistoni       : ED, misc. LED, open-shell LED, HFLD
   Martin Brehm           : Molecular dynamics
   Dmytro Bykov           : SCF Hessian
   Vijay G. Chilkuri      : MRCI spin determinant printing, contributions to CSF-ICE
   Dipayan Datta          : RHF DLPNO-CCSD density
   Achintya Kumar Dutta   : EOM-CC, STEOM-CC
   Dmitry Ganyushin       : Spin-Orbit,Spin-Spin,Magnetic field MRCI
   Miquel Garcia          : C-PCM and meta-GGA Hessian, CC/C-PCM, Gaussian charge scheme
   Yang Guo               : DLPNO-NEVPT2, F12-NEVPT2, CIM, IAO-localization
   Andreas Hansen         : Spin unrestricted coupled pair/coupled cluster methods
   Benjamin Helmich-Paris : MC-RPA, TRAH-SCF, COSX integrals
   Lee Huntington         : MR-EOM, pCC
   Robert Izsak           : Overlap fitted RIJCOSX, COSX-SCS-MP3, EOM
   Marcus Kettner         : VPT2
   Christian Kollmar      : KDIIS, OOCD, Brueckner-CCSD(T), CCSD density, CASPT2, CASPT2-K
   Simone Kossmann        : Meta GGA functionals, TD-DFT gradient, OOMP2, MP2 Hessian
   Martin Krupicka        : Initial AUTO-CI
   Lucas Lang             : DCDCAS
   Marvin Lechner         : AUTO-CI (C++ implementation), FIC-MRCC
   Dagmar Lenk            : GEPOL surface, SMD
   Dimitrios Liakos       : Extrapolation schemes; Compound Job, initial MDCI parallelization
   Dimitrios Manganas     : Further ROCIS development; embedding schemes
   Dimitrios Pantazis     : SARC Basis sets
   Anastasios Papadopoulos: AUTO-CI, single reference methods and gradients
   Taras Petrenko         : DFT Hessian,TD-DFT gradient, ASA, ECA, R-Raman, ABS, FL, XAS/XES, NRVS
   Peter Pinski           : DLPNO-MP2, DLPNO-MP2 Gradient
   Christoph Reimann      : Effective Core Potentials
   Marius Retegan         : Local ZFS, SOC
   Christoph Riplinger    : Optimizer, TS searches, QM/MM, DLPNO-CCSD(T), (RO)-DLPNO pert. Triples
   Tobias Risthaus        : Range-separated hybrids, TD-DFT gradient, RPA, STAB
   Michael Roemelt        : Original ROCIS implementation
   Masaaki Saitow         : Open-shell DLPNO-CCSD energy and density
   Barbara Sandhoefer     : DKH picture change effects
   Avijit Sen             : IP-ROCIS
   Kantharuban Sivalingam : CASSCF convergence, NEVPT2, FIC-MRCI
   Bernardo de Souza      : ESD, SOC TD-DFT
   Georgi Stoychev        : AutoAux, RI-MP2 NMR, DLPNO-MP2 response
   Willem Van den Heuvel  : Paramagnetic NMR
   Boris Wezisla          : Elementary symmetry handling
   Frank Wennmohs         : Technical directorship


 We gratefully acknowledge several colleagues who have allowed us to
 interface, adapt or use parts of their codes:
   Stefan Grimme, W. Hujo, H. Kruse, P. Pracht,  : VdW corrections, initial TS optimization,
                  C. Bannwarth, S. Ehlert          DFT functionals, gCP, sTDA/sTD-DF
   Ed Valeev, F. Pavosevic, A. Kumar             : LibInt (2-el integral package), F12 methods
   Garnet Chan, S. Sharma, J. Yang, R. Olivares  : DMRG
   Ulf Ekstrom                                   : XCFun DFT Library
   Mihaly Kallay                                 : mrcc  (arbitrary order and MRCC methods)
   Jiri Pittner, Ondrej Demel                    : Mk-CCSD
   Frank Weinhold                                : gennbo (NPA and NBO analysis)
   Christopher J. Cramer and Donald G. Truhlar   : smd solvation model
   Lars Goerigk                                  : TD-DFT with DH, B97 family of functionals
   V. Asgeirsson, H. Jonsson                     : NEB implementation
   FAccTs GmbH                                   : IRC, NEB, NEB-TS, DLPNO-Multilevel, CI-OPT
                                                   MM, QMMM, 2- and 3-layer-ONIOM, Crystal-QMMM,
                                                   LR-CPCM, SF, NACMEs, symmetry and pop. for TD-DFT,
                                                   nearIR, NL-DFT gradient (VV10), updates on ESD,
                                                   ML-optimized integration grids
   S Lehtola, MJT Oliveira, MAL Marques          : LibXC Library
   Liviu Ungur et al                             : ANISO software


 Your calculation uses the libint2 library for the computation of 2-el integrals
 For citations please refer to: http://libint.valeyev.net

 Your ORCA version has been built with support for libXC version: 5.1.0
 For citations please refer to: https://tddft.org/programs/libxc/

 This ORCA versions uses:
   CBLAS   interface :  Fast vector & matrix operations
   LAPACKE interface :  Fast linear algebra routines
   SCALAPACK package :  Parallel linear algebra routines
   Shared memory     :  Shared parallel matrices
   BLAS/LAPACK       :  OpenBLAS 0.3.15  USE64BITINT DYNAMIC_ARCH NO_AFFINITY SkylakeX SINGLE_THREADED
        Core in use  :  SkylakeX
   Copyright (c) 2011-2014, The OpenBLAS Project




***************************************
The coordinates will be read from file: 5_deprot.xyz
***************************************


Your calculation utilizes the atom-pairwise dispersion correction
based on tight binding partial charges (D4)
Cite in your paper:
E.Caldeweyher, C.Bannwarth, S.Grimme, J.Chem.Phys., (2017), 147, 034112.
E.Caldeweyher, S.Ehlert, A.Hansen, H.Neugebauer, S.Grimme, J.Chem.Phys., (2018), in progress.
   

XCFun DFT library Copyright 2009-2010 Ulf Ekstrom and contributors.
See http://admol.org/xcfun for more information.
This is free software; see the source code for copying conditions.
There is ABSOLUTELY NO WARRANTY; not even for MERCHANTABILITY or FITNESS FOR A PARTICULAR PURPOSE.
For details see the documentation.
Scientific users of this library should cite U. Ekstrom, L. Visscher, R. Bast, A. J. Thorvaldsen and K. Ruud;
J.Chem.Theor.Comp. 2010, DOI: 10.1021/ct100117s
XCFun Version 0.99 

================================================================================

----- Orbital basis set information -----
Your calculation utilizes the basis: def2-TZVP
   F. Weigend and R. Ahlrichs, Phys. Chem. Chem. Phys. 7, 3297 (2005).

----- AuxJ basis set information -----
Your calculation utilizes the auxiliary basis: def2/J
   F. Weigend, Phys. Chem. Chem. Phys. 8, 1057 (2006).

================================================================================
                                        WARNINGS
                       Please study these warnings very carefully!
================================================================================


WARNING: Geometry Optimization
  ===> : Switching off AutoStart
         For restart on a previous wavefunction, please use MOREAD

INFO   : the flag for use of the SHARK integral package has been found!

================================================================================
                                       INPUT FILE
================================================================================
NAME = 5_deprot.inp
|  1> # ORCA 5.0.4 - /users/bwb16179/postgrad/2024_06/pKa_Reviewer_Comments/Gas_Z=0/5_deprot.inp # write input file
|  2> # Basic Mode
|  3> #
|  4> ! Opt Freq wB97X Def2-TZVP D4 SlowConv TightSCF Defgrid2 Def2/J RIJCOSX 
|  5> 
|  6> %PAL NPROCS 4 END
|  7> 
|  8> %maxcore 4500
|  9> 
| 10> %geom
| 11> Maxiter 150
| 12> END
| 13> 
| 14> * xyzfile 0 1 5_deprot.xyz
| 15> 
| 16>                          ****END OF INPUT****
================================================================================

                       *****************************
                       * Geometry Optimization Run *
                       *****************************

Geometry optimization settings:
Update method            Update   .... BFGS
Choice of coordinates    CoordSys .... Z-matrix Internals
Initial Hessian          InHess   .... Almoef's Model

Convergence Tolerances:
Energy Change            TolE     ....  5.0000e-06 Eh
Max. Gradient            TolMAXG  ....  3.0000e-04 Eh/bohr
RMS Gradient             TolRMSG  ....  1.0000e-04 Eh/bohr
Max. Displacement        TolMAXD  ....  4.0000e-03 bohr
RMS Displacement         TolRMSD  ....  2.0000e-03 bohr
Strict Convergence                ....  False
------------------------------------------------------------------------------
                        ORCA OPTIMIZATION COORDINATE SETUP
------------------------------------------------------------------------------

The optimization will be done in new redundant internal coordinates
Making redundant internal coordinates   ...  (new redundants) done
Evaluating the initial hessian          ...  (Almloef) done
Evaluating the coordinates              ...  done
Calculating the B-matrix                .... done
Calculating the G-matrix                .... done
Diagonalizing the G-matrix              .... done
Small eigenvalue found = 9.810e-03
Small eigenvalue found = 2.323e-02
The first mode is                       ....   83
The number of degrees of freedom        ....   93

    -----------------------------------------------------------------
                    Redundant Internal Coordinates


    -----------------------------------------------------------------
         Definition                    Initial Value    Approx d2E/dq
    -----------------------------------------------------------------
      1. B(C   1,C   0)                  1.3536         0.714283   
      2. B(N   2,C   0)                  1.3866         0.566577   
      3. B(N   3,C   1)                  1.3883         0.563205   
      4. B(C   4,N   2)                  1.3598         0.625164   
      5. B(C   4,N   3)                  1.3571         0.631423   
      6. B(H   5,C   0)                  1.0862         0.365189   
      7. B(H   6,C   1)                  1.0873         0.363656   
      8. B(C   7,N   2)                  1.4827         0.398127   
      9. B(C   8,N   3)                  1.4796         0.402715   
     10. B(C   9,C   7)                  1.5303         0.373167   
     11. B(C  10,C   8)                  1.5321         0.370754   
     12. B(C  11,C   8)                  1.5324         0.370245   
     13. B(C  12,C   7)                  1.5282         0.375995   
     14. B(H  13,C   9)                  1.1015         0.345187   
     15. B(H  14,C  10)                  1.1008         0.346074   
     16. B(H  15,C  11)                  1.1017         0.345012   
     17. B(H  16,C  12)                  1.1012         0.345526   
     18. B(H  17,C   9)                  1.0988         0.348701   
     19. B(H  18,C  10)                  1.1009         0.345917   
     20. B(H  19,C  11)                  1.1006         0.346341   
     21. B(H  20,C  12)                  1.1012         0.345539   
     22. B(H  21,C   9)                  1.1013         0.345432   
     23. B(H  22,C  10)                  1.1005         0.346454   
     24. B(H  23,C  11)                  1.1012         0.345647   
     25. B(H  24,C  12)                  1.0999         0.347209   
     26. B(C  25,C   7)                  1.5310         0.372252   
     27. B(C  26,C   8)                  1.5271         0.377540   
     28. B(H  27,C  25)                  1.1014         0.345375   
     29. B(H  28,C  26)                  1.1011         0.345684   
     30. B(H  29,C  25)                  1.0991         0.348232   
     31. B(H  30,C  26)                  1.0998         0.347406   
     32. B(H  31,C  26)                  1.0971         0.350859   
     33. B(H  32,C  25)                  1.1015         0.345151   
     34. A(C   1,C   0,N   2)          106.2129         0.435235   
     35. A(N   2,C   0,H   5)          124.2387         0.346269   
     36. A(C   1,C   0,H   5)          129.5460         0.362369   
     37. A(C   0,C   1,H   6)          129.7502         0.362108   
     38. A(C   0,C   1,N   3)          106.2910         0.434768   
     39. A(N   3,C   1,H   6)          123.9570         0.345677   
     40. A(C   4,N   2,C   7)          121.3757         0.396610   
     41. A(C   0,N   2,C   4)          112.1376         0.422184   
     42. A(C   0,N   2,C   7)          126.4775         0.389835   
     43. A(C   4,N   3,C   8)          124.1485         0.398105   
     44. A(C   1,N   3,C   8)          123.5859         0.390209   
     45. A(C   1,N   3,C   4)          112.0936         0.422485   
     46. A(N   2,C   4,N   3)          103.2599         0.430456   
     47. A(C  12,C   7,C  25)          109.8863         0.363532   
     48. A(C   9,C   7,C  25)          110.3699         0.363063   
     49. A(N   2,C   7,C   9)          108.4070         0.364974   
     50. A(N   2,C   7,C  25)          108.2854         0.364821   
     51. A(C   9,C   7,C  12)          109.7495         0.363685   
     52. A(N   2,C   7,C  12)          110.1143         0.365446   
     53. A(N   3,C   8,C  10)          109.3080         0.365285   
     54. A(N   3,C   8,C  26)          109.4704         0.366422   
     55. A(C  11,C   8,C  26)          109.9353         0.363451   
     56. A(C  10,C   8,C  26)          109.3088         0.363537   
     57. A(C  10,C   8,C  11)          110.4324         0.362327   
     58. A(N   3,C   8,C  11)          108.3661         0.365199   
     59. A(H  13,C   9,H  17)          108.1842         0.287466   
     60. A(C   7,C   9,H  17)          109.9393         0.322554   
     61. A(C   7,C   9,H  13)          110.5999         0.322019   
     62. A(H  17,C   9,H  21)          109.2785         0.287498   
     63. A(H  13,C   9,H  21)          108.4339         0.287043   
     64. A(C   7,C   9,H  21)          110.3542         0.322057   
     65. A(H  14,C  10,H  18)          108.3836         0.287222   
     66. A(C   8,C  10,H  18)          110.6601         0.321789   
     67. A(C   8,C  10,H  14)          112.3396         0.321813   
     68. A(H  18,C  10,H  22)          108.2789         0.287271   
     69. A(H  14,C  10,H  22)          107.3519         0.287291   
     70. A(C   8,C  10,H  22)          109.6891         0.321870   
     71. A(H  15,C  11,H  19)          108.2359         0.287139   
     72. A(C   8,C  11,H  19)          110.0744         0.321781   
     73. A(C   8,C  11,H  15)          111.1686         0.321578   
     74. A(H  19,C  11,H  23)          108.5432         0.287221   
     75. A(H  15,C  11,H  23)          108.1545         0.287049   
     76. A(C   8,C  11,H  23)          110.5806         0.321675   
     77. A(H  16,C  12,H  20)          108.8146         0.287101   
     78. A(C   7,C  12,H  20)          111.8716         0.322472   
     79. A(C   7,C  12,H  16)          111.7515         0.322470   
     80. A(H  20,C  12,H  24)          107.5321         0.287319   
     81. A(H  16,C  12,H  24)          107.6380         0.287318   
     82. A(C   7,C  12,H  24)          109.0568         0.322726   
     83. A(H  29,C  25,H  32)          108.2393         0.287401   
     84. A(H  27,C  25,H  32)          108.4833         0.287031   
     85. A(C   7,C  25,H  32)          110.5687         0.321884   
     86. A(H  27,C  25,H  29)          109.1633         0.287430   
     87. A(C   7,C  25,H  29)          109.8332         0.322353   
     88. A(C   7,C  25,H  27)          110.5009         0.321918   
     89. A(H  30,C  26,H  31)          107.2963         0.288032   
     90. A(H  28,C  26,H  31)          109.4690         0.287808   
     91. A(C   8,C  26,H  31)          111.2447         0.323498   
     92. A(H  28,C  26,H  30)          108.8731         0.287364   
     93. A(C   8,C  26,H  30)          110.8650         0.322974   
     94. A(C   8,C  26,H  28)          109.0467         0.322711   
     95. D(H   6,C   1,C   0,N   2)    179.7439         0.036059   
     96. D(N   3,C   1,C   0,N   2)      0.2321         0.036059   
     97. D(N   3,C   1,C   0,H   5)   -179.2238         0.036059   
     98. D(H   6,C   1,C   0,H   5)      0.2879         0.036059   
     99. D(C   7,N   2,C   0,H   5)     -1.3895         0.025672   
    100. D(C   4,N   2,C   0,H   5)    179.7097         0.025672   
    101. D(C   4,N   2,C   0,C   1)      0.2171         0.025672   
    102. D(C   7,N   2,C   0,C   1)    179.1180         0.025672   
    103. D(C   8,N   3,C   1,H   6)      4.4289         0.025349   
    104. D(C   4,N   3,C   1,H   6)    179.8335         0.025349   
    105. D(C   4,N   3,C   1,C   0)     -0.6190         0.025349   
    106. D(C   8,N   3,C   1,C   0)   -176.0237         0.025349   
    107. D(N   2,C   4,N   3,C   1)      0.7226         0.029331   
    108. D(N   2,C   4,N   3,C   8)    176.0969         0.029331   
    109. D(N   3,C   4,N   2,C   7)   -179.5352         0.028709   
    110. D(N   3,C   4,N   2,C   0)     -0.5704         0.028709   
    111. D(C  12,C   7,N   2,C   0)      3.0861         0.013536   
    112. D(C  25,C   7,N   2,C   4)     61.7262         0.013536   
    113. D(C  12,C   7,N   2,C   4)   -178.1064         0.013536   
    114. D(C  25,C   7,N   2,C   0)   -117.0813         0.013536   
    115. D(C   9,C   7,N   2,C   0)    123.1616         0.013536   
    116. D(C   9,C   7,N   2,C   4)    -58.0309         0.013536   
    117. D(C  26,C   8,N   3,C   4)     18.9937         0.013843   
    118. D(C  11,C   8,N   3,C   4)   -100.9021         0.013843   
    119. D(C  11,C   8,N   3,C   1)     73.9516         0.013843   
    120. D(C  26,C   8,N   3,C   1)   -166.1527         0.013843   
    121. D(C  10,C   8,N   3,C   4)    138.6951         0.013843   
    122. D(C  10,C   8,N   3,C   1)    -46.4513         0.013843   
    123. D(H  13,C   9,C   7,C  12)     58.4808         0.011121   
    124. D(H  13,C   9,C   7,N   2)    -61.8220         0.011121   
    125. D(H  13,C   9,C   7,C  25)    179.7345         0.011121   
    126. D(H  21,C   9,C   7,C  25)     59.7510         0.011121   
    127. D(H  21,C   9,C   7,C  12)    -61.5027         0.011121   
    128. D(H  21,C   9,C   7,N   2)    178.1944         0.011121   
    129. D(H  17,C   9,C   7,C  25)    -60.8588         0.011121   
    130. D(H  17,C   9,C   7,C  12)    177.8875         0.011121   
    131. D(H  17,C   9,C   7,N   2)     57.5847         0.011121   
    132. D(H  22,C  10,C   8,C  26)    -56.2010         0.010986   
    133. D(H  22,C  10,C   8,C  11)     64.8676         0.010986   
    134. D(H  22,C  10,C   8,N   3)   -176.0019         0.010986   
    135. D(H  18,C  10,C   8,C  26)     63.2016         0.010986   
    136. D(H  18,C  10,C   8,C  11)   -175.7298         0.010986   
    137. D(H  18,C  10,C   8,N   3)    -56.5993         0.010986   
    138. D(H  14,C  10,C   8,C  26)   -175.5093         0.010986   
    139. D(H  14,C  10,C   8,C  11)    -54.4408         0.010986   
    140. D(H  14,C  10,C   8,N   3)     64.6898         0.010986   
    141. D(H  23,C  11,C   8,C  10)    -59.9743         0.010957   
    142. D(H  23,C  11,C   8,N   3)   -179.6748         0.010957   
    143. D(H  19,C  11,C   8,C  26)    -59.2058         0.010957   
    144. D(H  19,C  11,C   8,C  10)   -179.9009         0.010957   
    145. D(H  19,C  11,C   8,N   3)     60.3986         0.010957   
    146. D(H  15,C  11,C   8,C  26)   -179.1261         0.010957   
    147. D(H  15,C  11,C   8,C  10)     60.1788         0.010957   
    148. D(H  23,C  11,C   8,C  26)     60.7208         0.010957   
    149. D(H  15,C  11,C   8,N   3)    -59.5217         0.010957   
    150. D(H  24,C  12,C   7,N   2)    179.0941         0.011280   
    151. D(H  20,C  12,C   7,C  25)     57.1118         0.011280   
    152. D(H  20,C  12,C   7,C   9)    178.6559         0.011280   
    153. D(H  20,C  12,C   7,N   2)    -62.0837         0.011280   
    154. D(H  16,C  12,C   7,C  25)    179.4099         0.011280   
    155. D(H  16,C  12,C   7,C   9)    -59.0460         0.011280   
    156. D(H  24,C  12,C   7,C   9)     59.8337         0.011280   
    157. D(H  16,C  12,C   7,N   2)     60.2144         0.011280   
    158. D(H  24,C  12,C   7,C  25)    -61.7104         0.011280   
    159. D(H  32,C  25,C   7,C  12)    -59.3066         0.011069   
    160. D(H  32,C  25,C   7,C   9)    179.5210         0.011069   
    161. D(H  32,C  25,C   7,N   2)     61.0032         0.011069   
    162. D(H  29,C  25,C   7,C  12)   -178.6946         0.011069   
    163. D(H  29,C  25,C   7,C   9)     60.1330         0.011069   
    164. D(H  29,C  25,C   7,N   2)    -58.3848         0.011069   
    165. D(H  27,C  25,C   7,C  12)     60.8137         0.011069   
    166. D(H  27,C  25,C   7,C   9)    -60.3587         0.011069   
    167. D(H  27,C  25,C   7,N   2)   -178.8765         0.011069   
    168. D(H  31,C  26,C   8,C  11)     59.1820         0.011368   
    169. D(H  31,C  26,C   8,C  10)   -179.4479         0.011368   
    170. D(H  31,C  26,C   8,N   3)    -59.7470         0.011368   
    171. D(H  30,C  26,C   8,C  11)    178.4939         0.011368   
    172. D(H  30,C  26,C   8,C  10)    -60.1360         0.011368   
    173. D(H  30,C  26,C   8,N   3)     59.5649         0.011368   
    174. D(H  28,C  26,C   8,C  11)    -61.6504         0.011368   
    175. D(H  28,C  26,C   8,C  10)     59.7197         0.011368   
    176. D(H  28,C  26,C   8,N   3)    179.4206         0.011368   
    -----------------------------------------------------------------

Number of atoms                         .... 33
Number of degrees of freedom            .... 176

         *************************************************************
         *                GEOMETRY OPTIMIZATION CYCLE   1            *
         *************************************************************
---------------------------------
CARTESIAN COORDINATES (ANGSTROEM)
---------------------------------
  C      0.967851    0.417539   -1.373226
  C      0.708926   -0.906792   -1.267208
  N      0.305668    1.027149   -0.318418
  N     -0.106752   -1.056208   -0.153842
  C     -0.361003    0.129489    0.455482
  H      1.556805    0.949880   -2.114531
  H      1.035144   -1.731554   -1.896196
  C      0.302613    2.474840    0.001738
  C     -0.552441   -2.368540    0.364063
  C     -1.148169    2.961045    0.027174
  C     -1.049162   -3.230712   -0.800903
  C      0.635548   -3.041944    1.059457
  C      1.088134    3.248746   -1.056350
  H     -1.617974    2.830683   -0.960561
  H     -0.245402   -3.476975   -1.511619
  H      1.475431   -3.186466    0.361355
  H      0.652196    3.124883   -2.060023
  H     -1.725019    2.380776    0.760520
  H     -1.852610   -2.716002   -1.350093
  H      0.986392   -2.418766    1.896050
  H      2.145409    2.942341   -1.088073
  H     -1.189756    4.028640    0.294416
  H     -1.448599   -4.180819   -0.415051
  H      0.344649   -4.027586    1.454958
  H      1.061018    4.320654   -0.811176
  C      0.952347    2.664471    1.374961
  C     -1.690785   -2.162405    1.360955
  H      0.951080    3.728677    1.658633
  H     -2.023887   -3.143434    1.733909
  H      0.400460    2.088800    2.131330
  H     -2.542178   -1.655365    0.883952
  H     -1.371571   -1.539280    2.205582
  H      1.994397    2.307576    1.362664

----------------------------
CARTESIAN COORDINATES (A.U.)
----------------------------
  NO LB      ZA    FRAG     MASS         X           Y           Z
   0 C     6.0000    0    12.011    1.828973    0.789034   -2.595021
   1 C     6.0000    0    12.011    1.339676   -1.713589   -2.394676
   2 N     7.0000    0    14.007    0.577629    1.941030   -0.601723
   3 N     7.0000    0    14.007   -0.201732   -1.995944   -0.290719
   4 C     6.0000    0    12.011   -0.682197    0.244699    0.860736
   5 H     1.0000    0     1.008    2.941935    1.795013   -3.995884
   6 H     1.0000    0     1.008    1.956139   -3.272163   -3.583291
   7 C     6.0000    0    12.011    0.571856    4.676770    0.003284
   8 C     6.0000    0    12.011   -1.043962   -4.475892    0.687979
   9 C     6.0000    0    12.011   -2.169725    5.595564    0.051351
  10 C     6.0000    0    12.011   -1.982629   -6.105161   -1.513487
  11 C     6.0000    0    12.011    1.201012   -5.748441    2.002084
  12 C     6.0000    0    12.011    2.056275    6.139240   -1.996212
  13 H     1.0000    0     1.008   -3.057528    5.349216   -1.815197
  14 H     1.0000    0     1.008   -0.463743   -6.570531   -2.856546
  15 H     1.0000    0     1.008    2.788161   -6.021548    0.682862
  16 H     1.0000    0     1.008    1.232472    5.905173   -3.892879
  17 H     1.0000    0     1.008   -3.259813    4.499015    1.437175
  18 H     1.0000    0     1.008   -3.500926   -5.132500   -2.551306
  19 H     1.0000    0     1.008    1.864011   -4.570805    3.583015
  20 H     1.0000    0     1.008    4.054235    5.560219   -2.056160
  21 H     1.0000    0     1.008   -2.248313    7.613026    0.556366
  22 H     1.0000    0     1.008   -2.737455   -7.900603   -0.784333
  23 H     1.0000    0     1.008    0.651292   -7.611035    2.749472
  24 H     1.0000    0     1.008    2.005033    8.164853   -1.532900
  25 C     6.0000    0    12.011    1.799675    5.035120    2.598300
  26 C     6.0000    0    12.011   -3.195121   -4.086353    2.571832
  27 H     1.0000    0     1.008    1.797281    7.046178    3.134362
  28 H     1.0000    0     1.008   -3.824592   -5.940229    3.276613
  29 H     1.0000    0     1.008    0.756760    3.947260    4.027630
  30 H     1.0000    0     1.008   -4.804020   -3.128187    1.670427
  31 H     1.0000    0     1.008   -2.591894   -2.908818    4.167946
  32 H     1.0000    0     1.008    3.768864    4.360687    2.575062

--------------------------------
INTERNAL COORDINATES (ANGSTROEM)
--------------------------------
 C      0   0   0     0.000000000000     0.00000000     0.00000000
 C      1   0   0     1.353563655507     0.00000000     0.00000000
 N      1   2   0     1.386625614379   106.21292411     0.00000000
 N      2   1   3     1.388250550404   106.29097051     0.23209978
 C      4   2   1     1.357128101465   112.09364001   359.38098513
 H      1   2   3     1.086179937866   129.54604424   180.54405555
 H      2   1   3     1.087325362673   129.75022665   179.74386408
 C      3   1   2     1.482672731537   126.47745785   179.11798579
 C      4   2   1     1.479553835442   123.58588265   183.97629696
 C      8   3   1     1.530297586630   108.40703929   123.16160029
 C      9   4   2     1.532063344180   109.30795696   313.54872259
 C      9   4   2     1.532437152569   108.36606418    73.95159477
 C      8   3   1     1.528242112370   110.11430213     3.08613036
 H     10   8   3     1.101513240635   110.59994637   298.17797508
 H     11   9   4     1.100814623552   112.33955298    64.68977156
 H     12   9   4     1.101651698395   111.16864566   300.47834225
 H     13   8   3     1.101246327368   111.75147197    60.21439560
 H     10   8   3     1.098755837562   109.93933053    57.58467409
 H     11   9   4     1.100938113113   110.66006626   303.40073385
 H     12   9   4     1.100604461044   110.07435831    60.39862344
 H     13   8   3     1.101236032093   111.87163997   297.91625471
 H     10   8   3     1.101320502469   110.35416085   178.19444453
 H     11   9   4     1.100515785585   109.68906880   183.99812978
 H     12   9   4     1.101150953033   110.58063752   180.32524894
 H     13   8   3     1.099923782903   109.05683937   179.09408543
 C      8   3   1     1.530965575918   108.28537028   242.91871281
 C      9   4   2     1.527125522092   109.47042412   193.84730828
 H     26   8   3     1.101365434045   110.50090967   181.12348282
 H     27   9   4     1.101121940278   109.04669245   179.42055015
 H     26   8   3     1.099122570586   109.83321840   301.61521953
 H     27   9   4     1.099768823007   110.86495419    59.56485398
 H     27   9   4     1.097076621094   111.24468940   300.25300957
 H     26   8   3     1.101541401734   110.56867842    61.00317136

---------------------------
INTERNAL COORDINATES (A.U.)
---------------------------
 C      0   0   0     0.000000000000     0.00000000     0.00000000
 C      1   0   0     2.557864613738     0.00000000     0.00000000
 N      1   2   0     2.620342661457   106.21292411     0.00000000
 N      2   1   3     2.623413345528   106.29097051     0.23209978
 C      4   2   1     2.564600440417   112.09364001   359.38098513
 H      1   2   3     2.052582614726   129.54604424   180.54405555
 H      2   1   3     2.054747153919   129.75022665   179.74386408
 C      3   1   2     2.801845408837   126.47745785   179.11798579
 C      4   2   1     2.795951549377   123.58588265   183.97629696
 C      8   3   1     2.891843342131   108.40703929   123.16160029
 C      9   4   2     2.895180140320   109.30795696   313.54872259
 C      9   4   2     2.895886535801   108.36606418    73.95159477
 C      8   3   1     2.887959058705   110.11430213     3.08613036
 H     10   8   3     2.081558357688   110.59994637   298.17797508
 H     11   9   4     2.080238162728   112.33955298    64.68977156
 H     12   9   4     2.081820004936   111.16864566   300.47834225
 H     13   8   3     2.081053964713   111.75147197    60.21439560
 H     10   8   3     2.076347621040   109.93933053    57.58467409
 H     11   9   4     2.080471524179   110.66006626   303.40073385
 H     12   9   4     2.079841013144   110.07435831    60.39862344
 H     13   8   3     2.081034509461   111.87163997   297.91625471
 H     10   8   3     2.081194135338   110.35416085   178.19444453
 H     11   9   4     2.079673440813   109.68906880   183.99812978
 H     12   9   4     2.080873733339   110.58063752   180.32524894
 H     13   8   3     2.078554717874   109.05683937   179.09408543
 C      8   3   1     2.893105658946   108.28537028   242.91871281
 C      9   4   2     2.885849008876   109.47042412   193.84730828
 H     26   8   3     2.081279043712   110.50090967   181.12348282
 H     27   9   4     2.080818907177   109.04669245   179.42055015
 H     26   8   3     2.077040646019   109.83321840   301.61521953
 H     27   9   4     2.078261886108   110.86495419    59.56485398
 H     27   9   4     2.073174361794   111.24468940   300.25300957
 H     26   8   3     2.081611574453   110.56867842    61.00317136

---------------------
BASIS SET INFORMATION
---------------------
There are 3 groups of distinct atoms

 Group   1 Type C   : 11s6p2d1f contracted to 5s3p2d1f pattern {62111/411/11/1}
 Group   2 Type N   : 11s6p2d1f contracted to 5s3p2d1f pattern {62111/411/11/1}
 Group   3 Type H   : 5s1p contracted to 3s1p pattern {311/1}

Atom   0C    basis set group =>   1
Atom   1C    basis set group =>   1
Atom   2N    basis set group =>   2
Atom   3N    basis set group =>   2
Atom   4C    basis set group =>   1
Atom   5H    basis set group =>   3
Atom   6H    basis set group =>   3
Atom   7C    basis set group =>   1
Atom   8C    basis set group =>   1
Atom   9C    basis set group =>   1
Atom  10C    basis set group =>   1
Atom  11C    basis set group =>   1
Atom  12C    basis set group =>   1
Atom  13H    basis set group =>   3
Atom  14H    basis set group =>   3
Atom  15H    basis set group =>   3
Atom  16H    basis set group =>   3
Atom  17H    basis set group =>   3
Atom  18H    basis set group =>   3
Atom  19H    basis set group =>   3
Atom  20H    basis set group =>   3
Atom  21H    basis set group =>   3
Atom  22H    basis set group =>   3
Atom  23H    basis set group =>   3
Atom  24H    basis set group =>   3
Atom  25C    basis set group =>   1
Atom  26C    basis set group =>   1
Atom  27H    basis set group =>   3
Atom  28H    basis set group =>   3
Atom  29H    basis set group =>   3
Atom  30H    basis set group =>   3
Atom  31H    basis set group =>   3
Atom  32H    basis set group =>   3
---------------------------------
AUXILIARY/J BASIS SET INFORMATION
---------------------------------
There are 3 groups of distinct atoms

 Group   1 Type C   : 12s5p4d2f1g contracted to 6s4p3d1f1g pattern {711111/2111/211/2/1}
 Group   2 Type N   : 12s5p4d2f1g contracted to 6s4p3d1f1g pattern {711111/2111/211/2/1}
 Group   3 Type H   : 5s2p1d contracted to 3s1p1d pattern {311/2/1}

Atom   0C    basis set group =>   1
Atom   1C    basis set group =>   1
Atom   2N    basis set group =>   2
Atom   3N    basis set group =>   2
Atom   4C    basis set group =>   1
Atom   5H    basis set group =>   3
Atom   6H    basis set group =>   3
Atom   7C    basis set group =>   1
Atom   8C    basis set group =>   1
Atom   9C    basis set group =>   1
Atom  10C    basis set group =>   1
Atom  11C    basis set group =>   1
Atom  12C    basis set group =>   1
Atom  13H    basis set group =>   3
Atom  14H    basis set group =>   3
Atom  15H    basis set group =>   3
Atom  16H    basis set group =>   3
Atom  17H    basis set group =>   3
Atom  18H    basis set group =>   3
Atom  19H    basis set group =>   3
Atom  20H    basis set group =>   3
Atom  21H    basis set group =>   3
Atom  22H    basis set group =>   3
Atom  23H    basis set group =>   3
Atom  24H    basis set group =>   3
Atom  25C    basis set group =>   1
Atom  26C    basis set group =>   1
Atom  27H    basis set group =>   3
Atom  28H    basis set group =>   3
Atom  29H    basis set group =>   3
Atom  30H    basis set group =>   3
Atom  31H    basis set group =>   3
Atom  32H    basis set group =>   3


           ************************************************************
           *        Program running with 4 parallel MPI-processes     *
           *              working on a common directory               *
           ************************************************************
------------------------------------------------------------------------------
                           ORCA GTO INTEGRAL CALCULATION
                           -- RI-GTO INTEGRALS CHOSEN --
------------------------------------------------------------------------------
------------------------------------------------------------------------------
                   ___                                                        
                  /   \      - P O W E R E D   B Y -                         
                 /     \                                                     
                 |  |  |   _    _      __       _____    __    __             
                 |  |  |  | |  | |    /  \     |  _  \  |  |  /  |          
                  \  \/   | |  | |   /    \    | | | |  |  | /  /          
                 / \  \   | |__| |  /  /\  \   | |_| |  |  |/  /          
                |  |  |   |  __  | /  /__\  \  |    /   |      \           
                |  |  |   | |  | | |   __   |  |    \   |  |\   \          
                \     /   | |  | | |  |  |  |  | |\  \  |  | \   \       
                 \___/    |_|  |_| |__|  |__|  |_| \__\ |__|  \__/        
                                                                              
                      - O R C A' S   B I G   F R I E N D -                    
                                      &                                       
                       - I N T E G R A L  F E E D E R -                       
                                                                              
 v1 FN, 2020, v2 2021                                                         
------------------------------------------------------------------------------


Reading SHARK input file 5_deprot.SHARKINP.tmp ... ok
----------------------
SHARK INTEGRAL PACKAGE
----------------------

Number of atoms                             ...     33
Number of basis functions                   ...    523
Number of shells                            ...    223
Maximum angular momentum                    ...      3
Integral batch strategy                     ... SHARK/LIBINT Hybrid
RI-J (if used) integral strategy            ... SPLIT-RIJ (Revised 2003 algorithm where possible)
Printlevel                                  ...      1
Contraction scheme used                     ... SEGMENTED contraction
Coulomb Range Separation                    ... NOT USED
Exchange Range Separation                   ... Long Range
   Mu parameter                             ...  0.300000
   Scaling (regular/separated)              ...  0.157706  0.842294
Finite Nucleus Model                        ... NOT USED
Auxiliary Coulomb fitting basis             ... AVAILABLE
   # of basis functions in Aux-J            ...    857
   # of shells in Aux-J                     ...    295
   Maximum angular momentum in Aux-J        ...      4
Auxiliary J/K fitting basis                 ... NOT available
Auxiliary Correlation fitting basis         ... NOT available
Auxiliary 'external' fitting basis          ... NOT available
Integral threshold                          ...     2.500000e-11
Primitive cut-off                           ...     2.500000e-12
Primitive pair pre-selection threshold      ...     2.500000e-12

Calculating pre-screening integrals         ... done (  0.1 sec) Dimension = 223
Organizing shell pair data                  ... done (  0.2 sec)
Shell pair information
Total number of shell pairs                 ...     24976
Shell pairs after pre-screening             ...     20492
Total number of primitive shell pairs       ...     72736
Primitive shell pairs kept                  ...     42566
          la=0 lb=0:   6292 shell pairs
          la=1 lb=0:   6073 shell pairs
          la=1 lb=1:   1497 shell pairs
          la=2 lb=0:   2709 shell pairs
          la=2 lb=1:   1305 shell pairs
          la=2 lb=2:    311 shell pairs
          la=3 lb=0:   1303 shell pairs
          la=3 lb=1:    633 shell pairs
          la=3 lb=2:    293 shell pairs
          la=3 lb=3:     76 shell pairs

Calculating one electron integrals          ... done (  0.1 sec)
Calculating RI/J V-Matrix + Cholesky decomp.... done (  0.0 sec)
Calculating Nuclear repulsion               ... done (  0.0 sec) ENN=    855.777631883669 Eh

SHARK setup successfully completed in   0.7 seconds

Maximum memory used throughout the entire GTOINT-calculation: 32.0 MB


           ************************************************************
           *        Program running with 4 parallel MPI-processes     *
           *              working on a common directory               *
           ************************************************************
-------------------------------------------------------------------------------
                                 ORCA SCF
-------------------------------------------------------------------------------

------------
SCF SETTINGS
------------
Hamiltonian:
 Density Functional     Method          .... DFT(GTOs)
 Exchange Functional    Exchange        .... WB97X
 Correlation Functional Correlation     .... WB97X
 Gradients option       PostSCFGGA      .... off
 Hybrid DFT is turned on
   Fraction HF Exchange ScalHFX         ....  0.157706
   Scaling of DF-GGA-X  ScalDFX         ....  0.000000
   Scaling of DF-GGA-C  ScalDFC         ....  1.000000
   Scaling of DF-LDA-C  ScalLDAC        ....  1.000000
   Perturbative correction              ....  0.000000
   Density functional embedding theory  .... OFF
 Long-range corrected/Screened/Range-Separated Hybrid DFT is turned on
   Amount of maximum screened exact exchange              ....  0.842294
   Range separation parameter mu (erf(mu*r12)/r12)        ....  0.300000
 RI-approximation to the Coulomb term is turned on
   Number of AuxJ basis functions       .... 857
   RIJ-COSX (HFX calculated with COS-X)).... on


General Settings:
 Integral files         IntName         .... 5_deprot
 Hartree-Fock type      HFTyp           .... RHF
 Total Charge           Charge          ....    0
 Multiplicity           Mult            ....    1
 Number of Electrons    NEL             ....  100
 Basis Dimension        Dim             ....  523
 Nuclear Repulsion      ENuc            ....    855.7776318837 Eh

Convergence Acceleration:
 DIIS                   CNVDIIS         .... on
   Start iteration      DIISMaxIt       ....     0
   Startup error        DIISStart       ....  0.200000
   # of expansion vecs  DIISMaxEq       ....     5
   Bias factor          DIISBfac        ....   1.050
   Max. coefficient     DIISMaxC        ....  10.000
 Trust-Rad. Augm. Hess. CNVTRAH         .... auto
   Auto Start mean grad. ratio tolernc. ....  1.125000
   Auto Start start iteration           ....    20
   Auto Start num. interpolation iter.  ....    10
   Max. Number of Micro iterations      ....    16
   Max. Number of Macro iterations      .... Maxiter - #DIIS iter
   Number of Davidson start vectors     ....     2
   Converg. threshold I  (grad. norm)   ....   1.000e-05
   Converg. threshold II (energy diff.) ....   1.000e-08
   Grad. Scal. Fac. for Micro threshold ....   0.100
   Minimum threshold for Micro iter.    ....   0.010
   NR start threshold (gradient norm)   ....   0.001
   Initial trust radius                 ....   0.400
   Minimum AH scaling param. (alpha)    ....   1.000
   Maximum AH scaling param. (alpha)    .... 1000.000
   Orbital update algorithm             .... Taylor
   White noise on init. David. guess    .... on
   Maximum white noise                  ....   0.010
   Quad. conv. algorithm                .... NR
 SOSCF                  CNVSOSCF        .... on
   Start iteration      SOSCFMaxIt      ....   150
   Startup grad/error   SOSCFStart      ....  0.001000
 Level Shifting         CNVShift        .... on
   Level shift para.    LevelShift      ....    0.2500
   Turn off err/grad.   ShiftErr        ....    0.0000
 Zerner damping         CNVZerner       .... off
 Static damping         CNVDamp         .... on
   Fraction old density DampFac         ....    0.8500
   Max. Damping (<1)    DampMax         ....    0.9800
   Min. Damping (>=0)   DampMin         ....    0.0000
   Turn off err/grad.   DampErr         ....    0.0300
 Fernandez-Rico         CNVRico         .... off

SCF Procedure:
 Maximum # iterations   MaxIter         ....   125
 SCF integral mode      SCFMode         .... Direct
   Integral package                     .... SHARK and LIBINT hybrid scheme
 Reset frequency        DirectResetFreq ....    20
 Integral Threshold     Thresh          ....  2.500e-11 Eh
 Primitive CutOff       TCut            ....  2.500e-12 Eh

Convergence Tolerance:
 Convergence Check Mode ConvCheckMode   .... Total+1el-Energy
 Convergence forced     ConvForced      .... 0
 Energy Change          TolE            ....  1.000e-08 Eh
 1-El. energy change                    ....  1.000e-05 Eh
 Orbital Gradient       TolG            ....  1.000e-05
 Orbital Rotation angle TolX            ....  1.000e-05
 DIIS Error             TolErr          ....  5.000e-07


Diagonalization of the overlap matrix:
Smallest eigenvalue                        ... 5.570e-05
Time for diagonalization                   ...    0.049 sec
Threshold for overlap eigenvalues          ... 1.000e-08
Number of eigenvalues below threshold      ... 0
Time for construction of square roots      ...    0.024 sec
Total time needed                          ...    0.076 sec

Time for model grid setup =    0.283 sec

------------------------------
INITIAL GUESS: MODEL POTENTIAL
------------------------------
Loading Hartree-Fock densities                     ... done
Calculating cut-offs                               ... done
Initializing the effective Hamiltonian             ... done
Setting up the integral package (SHARK)            ... done
Starting the Coulomb interaction                   ... done (   0.6 sec)
Reading the grid                                   ... done
Mapping shells                                     ... done
Starting the XC term evaluation                    ... done (   0.4 sec)
  promolecular density results
     # of electrons  =     99.989930567
     EX              =    -75.262178861
     EC              =     -3.312739406
     EX+EC           =    -78.574918267
Transforming the Hamiltonian                       ... done (   0.0 sec)
Diagonalizing the Hamiltonian                      ... done (   0.0 sec)
Back transforming the eigenvectors                 ... done (   0.0 sec)
Now organizing SCF variables                       ... done
                      ------------------
                      INITIAL GUESS DONE (   1.4 sec)
                      ------------------
-------------------
DFT GRID GENERATION
-------------------

General Integration Accuracy     IntAcc      ... 4.388
Radial Grid Type                 RadialGrid  ... OptM3 with GC (2021)
Angular Grid (max. ang.)         AngularGrid ... 4 (Lebedev-302)
Angular grid pruning method      GridPruning ... 4 (adaptive)
Weight generation scheme         WeightScheme... Becke
Basis function cutoff            BFCut       ... 1.0000e-11
Integration weight cutoff        WCut        ... 1.0000e-14
Angular grids for H and He will be reduced by one unit
Partially contracted basis set               ... off
Rotationally invariant grid construction     ... off

Total number of grid points                  ...   141196
Total number of batches                      ...     2227
Average number of points per batch           ...       63
Average number of grid points per atom       ...     4279
Time for grid setup =    1.211 sec

--------------------
COSX GRID GENERATION
--------------------

GRIDX 1
-------
General Integration Accuracy     IntAcc      ... 3.816
Radial Grid Type                 RadialGrid  ... OptM3 with GC (2021)
Angular Grid (max. ang.)         AngularGrid ... 1 (Lebedev-50)
Angular grid pruning method      GridPruning ... 4 (adaptive)
Weight generation scheme         WeightScheme... Becke
Basis function cutoff            BFCut       ... 1.0000e-11
Integration weight cutoff        WCut        ... 1.0000e-14
Angular grids for H and He will be reduced by one unit
Partially contracted basis set               ... on
Rotationally invariant grid construction     ... off

Total number of grid points                  ...    18063
Total number of batches                      ...      300
Average number of points per batch           ...       60
Average number of grid points per atom       ...      547
UseSFitting                                  ... on

GRIDX 2
-------
General Integration Accuracy     IntAcc      ... 4.020
Radial Grid Type                 RadialGrid  ... OptM3 with GC (2021)
Angular Grid (max. ang.)         AngularGrid ... 2 (Lebedev-110)
Angular grid pruning method      GridPruning ... 4 (adaptive)
Weight generation scheme         WeightScheme... Becke
Basis function cutoff            BFCut       ... 1.0000e-11
Integration weight cutoff        WCut        ... 1.0000e-14
Angular grids for H and He will be reduced by one unit
Partially contracted basis set               ... on
Rotationally invariant grid construction     ... off

Total number of grid points                  ...    37571
Total number of batches                      ...      602
Average number of points per batch           ...       62
Average number of grid points per atom       ...     1139
UseSFitting                                  ... on

GRIDX 3
-------
General Integration Accuracy     IntAcc      ... 4.338
Radial Grid Type                 RadialGrid  ... OptM3 with GC (2021)
Angular Grid (max. ang.)         AngularGrid ... 3 (Lebedev-194)
Angular grid pruning method      GridPruning ... 4 (adaptive)
Weight generation scheme         WeightScheme... Becke
Basis function cutoff            BFCut       ... 1.0000e-11
Integration weight cutoff        WCut        ... 1.0000e-14
Angular grids for H and He will be reduced by one unit
Partially contracted basis set               ... on
Rotationally invariant grid construction     ... off

Total number of grid points                  ...    81741
Total number of batches                      ...     1296
Average number of points per batch           ...       63
Average number of grid points per atom       ...     2477
UseSFitting                                  ... on

Time for X-Grid setup             =    2.241 sec

--------------
SCF ITERATIONS
--------------
ITER       Energy         Delta-E        Max-DP      RMS-DP      [F,P]     Damp
               ***  Starting incremental Fock matrix formation  ***
  0   -540.3545205310   0.000000000000 0.03116647  0.00031788  0.1747544 0.8500
  1   -540.4372484945  -0.082727963417 0.03820365  0.00032221  0.1399271 0.8500
                               ***Turning on DIIS***
  2   -540.4995167426  -0.062268248164 0.03524127  0.00027026  0.1065282 0.8500
  3   -540.5451128541  -0.045596111510 0.02909645  0.00020099  0.0799633 0.8500
  4   -540.5799196030  -0.034806748904 0.02438714  0.00015863  0.0634040 0.8500
  5   -540.6071407522  -0.027221149119 0.02101414  0.00013229  0.0523487 0.8500
  6   -540.6291676151  -0.022026862959 0.01834137  0.00011294  0.0440190 0.8500
  7   -540.6473427002  -0.018175085047 0.01623590  0.00009790  0.0372947 0.8500
  8   -540.6625150983  -0.015172398160 0.01431424  0.00008471  0.0315595 0.8500
  9   -540.6752208170  -0.012705718710 0.08333225  0.00048556  0.0266497 0.0000
 10   -540.7439132948  -0.068692477792 0.00170340  0.00001802  0.0012516 0.0000
                      *** Initiating the SOSCF procedure ***
                           *** Shutting down DIIS ***
                      *** Re-Reading the Fockian *** 
                      *** Removing any level shift *** 
ITER      Energy       Delta-E        Grad      Rot      Max-DP    RMS-DP
 11   -540.74393990  -0.0000266027  0.000402  0.000402  0.001879  0.000011
               *** Restarting incremental Fock matrix formation ***
 12   -540.74395279  -0.0000128885  0.000236  0.000534  0.001371  0.000012
 13   -540.74395377  -0.0000009861  0.000104  0.000504  0.000986  0.000007
 14   -540.74395397  -0.0000001965  0.000034  0.000055  0.000376  0.000004
 15   -540.74395404  -0.0000000729  0.000004  0.000008  0.000112  0.000001
                  ***Gradient check signals convergence***
              ***Rediagonalizing the Fockian in SOSCF/NRSCF***

               *****************************************************
               *                     SUCCESS                       *
               *           SCF CONVERGED AFTER  16 CYCLES          *
               *****************************************************

Old exchange energy                            =    -25.326445720 Eh
New exchange energy                            =    -25.326433685 Eh
Exchange energy change after final integration =      0.000012035 Eh
Total energy after final integration           =   -540.743942018 Eh
Final COS-X integration done in                =    59.044 sec

----------------
TOTAL SCF ENERGY
----------------

Total Energy       :         -540.74394202 Eh          -14714.39073 eV

Components:
Nuclear Repulsion  :          855.77763188 Eh           23286.89325 eV
Electronic Energy  :        -1396.52157390 Eh          -38001.28397 eV
One Electron Energy:        -2427.66945235 Eh          -66060.24424 eV
Two Electron Energy:         1031.14787844 Eh           28058.96026 eV
Max COSX asymmetry :            0.00000130 Eh               0.00004 eV

Virial components:
Potential Energy   :        -1078.67720733 Eh          -29352.29905 eV
Kinetic Energy     :          537.93326531 Eh           14637.90833 eV
Virial Ratio       :            2.00522495


DFT components:
N(Alpha)           :       50.000105774025 electrons
N(Beta)            :       50.000105774025 electrons
N(Total)           :      100.000211548051 electrons
E(XC)              :      -55.633272746351 Eh       
DFET-embed. en.    :        0.000000000000 Eh       

---------------
SCF CONVERGENCE
---------------

  Last Energy change         ...   -1.1577e-08  Tolerance :   1.0000e-08
  Last MAX-Density change    ...    1.5543e-15  Tolerance :   1.0000e-07
  Last RMS-Density change    ...    1.2209e-17  Tolerance :   5.0000e-09
  Last Orbital Gradient      ...    2.3523e-06  Tolerance :   1.0000e-05
  Last Orbital Rotation      ...    7.4227e-06  Tolerance :   1.0000e-05

             **** THE GBW FILE WAS UPDATED (5_deprot.gbw) ****
             **** DENSITY 5_deprot.scfp WAS UPDATED ****
             **** ENERGY FILE WAS UPDATED (5_deprot.en.tmp) ****
             **** THE GBW FILE WAS UPDATED (5_deprot.gbw) ****
             **** DENSITY 5_deprot.scfp WAS UPDATED ****
----------------
ORBITAL ENERGIES
----------------

  NO   OCC          E(Eh)            E(eV) 
   0   2.0000     -14.428867      -392.6294 
   1   2.0000     -14.427444      -392.5907 
   2   2.0000     -10.306103      -280.4433 
   3   2.0000     -10.305548      -280.4282 
   4   2.0000     -10.277812      -279.6735 
   5   2.0000     -10.275244      -279.6036 
   6   2.0000     -10.253734      -279.0183 
   7   2.0000     -10.251297      -278.9520 
   8   2.0000     -10.249830      -278.9121 
   9   2.0000     -10.247068      -278.8369 
  10   2.0000     -10.239622      -278.6343 
  11   2.0000     -10.238708      -278.6094 
  12   2.0000     -10.236297      -278.5438 
  13   2.0000      -1.146544       -31.1991 
  14   2.0000      -1.046203       -28.4686 
  15   2.0000      -0.956611       -26.0307 
  16   2.0000      -0.906248       -24.6603 
  17   2.0000      -0.870053       -23.6754 
  18   2.0000      -0.822003       -22.3678 
  19   2.0000      -0.818422       -22.2704 
  20   2.0000      -0.811091       -22.0709 
  21   2.0000      -0.809619       -22.0309 
  22   2.0000      -0.756707       -20.5910 
  23   2.0000      -0.721111       -19.6224 
  24   2.0000      -0.658056       -17.9066 
  25   2.0000      -0.651278       -17.7222 
  26   2.0000      -0.619624       -16.8608 
  27   2.0000      -0.580372       -15.7927 
  28   2.0000      -0.577973       -15.7274 
  29   2.0000      -0.560495       -15.2519 
  30   2.0000      -0.557153       -15.1609 
  31   2.0000      -0.552128       -15.0242 
  32   2.0000      -0.533304       -14.5119 
  33   2.0000      -0.527696       -14.3594 
  34   2.0000      -0.522688       -14.2231 
  35   2.0000      -0.503557       -13.7025 
  36   2.0000      -0.497622       -13.5410 
  37   2.0000      -0.485340       -13.2068 
  38   2.0000      -0.481298       -13.0968 
  39   2.0000      -0.471441       -12.8286 
  40   2.0000      -0.466742       -12.7007 
  41   2.0000      -0.466457       -12.6929 
  42   2.0000      -0.460851       -12.5404 
  43   2.0000      -0.446435       -12.1481 
  44   2.0000      -0.438149       -11.9226 
  45   2.0000      -0.434931       -11.8351 
  46   2.0000      -0.430468       -11.7136 
  47   2.0000      -0.364632        -9.9221 
  48   2.0000      -0.316495        -8.6123 
  49   2.0000      -0.305699        -8.3185 
  50   0.0000       0.108100         2.9416 
  51   0.0000       0.114635         3.1194 
  52   0.0000       0.119454         3.2505 
  53   0.0000       0.125761         3.4221 
  54   0.0000       0.146881         3.9968 
  55   0.0000       0.150907         4.1064 
  56   0.0000       0.157945         4.2979 
  57   0.0000       0.164368         4.4727 
  58   0.0000       0.170363         4.6358 
  59   0.0000       0.173790         4.7291 
  60   0.0000       0.178543         4.8584 
  61   0.0000       0.184390         5.0175 
  62   0.0000       0.192474         5.2375 
  63   0.0000       0.195733         5.3262 
  64   0.0000       0.208764         5.6808 
  65   0.0000       0.210312         5.7229 
  66   0.0000       0.215231         5.8567 
  67   0.0000       0.223706         6.0874 
  68   0.0000       0.228233         6.2105 
  69   0.0000       0.233594         6.3564 
  70   0.0000       0.240318         6.5394 
  71   0.0000       0.241530         6.5724 
  72   0.0000       0.244434         6.6514 
  73   0.0000       0.246729         6.7139 
  74   0.0000       0.249312         6.7841 
  75   0.0000       0.251444         6.8421 
  76   0.0000       0.254966         6.9380 
  77   0.0000       0.257643         7.0108 
  78   0.0000       0.265961         7.2372 
  79   0.0000       0.267008         7.2656 
  80   0.0000       0.279201         7.5975 
  81   0.0000       0.284727         7.7478 
  82   0.0000       0.296689         8.0733 
  83   0.0000       0.316508         8.6126 
  84   0.0000       0.320944         8.7333 
  85   0.0000       0.323775         8.8104 
  86   0.0000       0.331407         9.0180 
  87   0.0000       0.337835         9.1930 
  88   0.0000       0.346965         9.4414 
  89   0.0000       0.365648         9.9498 
  90   0.0000       0.374222        10.1831 
  91   0.0000       0.378926        10.3111 
  92   0.0000       0.382923        10.4199 
  93   0.0000       0.398562        10.8454 
  94   0.0000       0.403456        10.9786 
  95   0.0000       0.418007        11.3746 
  96   0.0000       0.423483        11.5236 
  97   0.0000       0.429787        11.6951 
  98   0.0000       0.434983        11.8365 
  99   0.0000       0.446132        12.1399 
 100   0.0000       0.449571        12.2335 
 101   0.0000       0.453439        12.3387 
 102   0.0000       0.457220        12.4416 
 103   0.0000       0.464434        12.6379 
 104   0.0000       0.474672        12.9165 
 105   0.0000       0.478501        13.0207 
 106   0.0000       0.484212        13.1761 
 107   0.0000       0.496786        13.5182 
 108   0.0000       0.502725        13.6799 
 109   0.0000       0.509609        13.8672 
 110   0.0000       0.514291        13.9946 
 111   0.0000       0.515825        14.0363 
 112   0.0000       0.522798        14.2261 
 113   0.0000       0.523681        14.2501 
 114   0.0000       0.531649        14.4669 
 115   0.0000       0.533783        14.5250 
 116   0.0000       0.538449        14.6520 
 117   0.0000       0.541661        14.7393 
 118   0.0000       0.548822        14.9342 
 119   0.0000       0.550607        14.9828 
 120   0.0000       0.552531        15.0351 
 121   0.0000       0.557175        15.1615 
 122   0.0000       0.559896        15.2355 
 123   0.0000       0.564766        15.3681 
 124   0.0000       0.569954        15.5092 
 125   0.0000       0.572598        15.5812 
 126   0.0000       0.580778        15.8038 
 127   0.0000       0.585238        15.9251 
 128   0.0000       0.589915        16.0524 
 129   0.0000       0.604904        16.4603 
 130   0.0000       0.609814        16.5939 
 131   0.0000       0.613316        16.6892 
 132   0.0000       0.618301        16.8248 
 133   0.0000       0.625378        17.0174 
 134   0.0000       0.627356        17.0712 
 135   0.0000       0.639927        17.4133 
 136   0.0000       0.644639        17.5415 
 137   0.0000       0.667707        18.1692 
 138   0.0000       0.672282        18.2937 
 139   0.0000       0.678359        18.4591 
 140   0.0000       0.694705        18.9039 
 141   0.0000       0.716014        19.4837 
 142   0.0000       0.723568        19.6893 
 143   0.0000       0.737052        20.0562 
 144   0.0000       0.742224        20.1969 
 145   0.0000       0.756109        20.5748 
 146   0.0000       0.778387        21.1810 
 147   0.0000       0.782351        21.2889 
 148   0.0000       0.795563        21.6484 
 149   0.0000       0.805379        21.9155 
 150   0.0000       0.816362        22.2143 
 151   0.0000       0.825097        22.4520 
 152   0.0000       0.839084        22.8326 
 153   0.0000       0.848151        23.0794 
 154   0.0000       0.861989        23.4559 
 155   0.0000       0.876013        23.8375 
 156   0.0000       0.886579        24.1250 
 157   0.0000       0.903153        24.5761 
 158   0.0000       0.905943        24.6520 
 159   0.0000       0.931386        25.3443 
 160   0.0000       0.940340        25.5879 
 161   0.0000       0.942784        25.6545 
 162   0.0000       0.954310        25.9681 
 163   0.0000       0.957038        26.0423 
 164   0.0000       0.967054        26.3149 
 165   0.0000       0.975981        26.5578 
 166   0.0000       0.985581        26.8190 
 167   0.0000       0.997774        27.1508 
 168   0.0000       1.006687        27.3934 
 169   0.0000       1.014156        27.5966 
 170   0.0000       1.022860        27.8334 
 171   0.0000       1.054412        28.6920 
 172   0.0000       1.062714        28.9179 
 173   0.0000       1.066841        29.0302 
 174   0.0000       1.091696        29.7066 
 175   0.0000       1.097999        29.8781 
 176   0.0000       1.102369        29.9970 
 177   0.0000       1.109107        30.1803 
 178   0.0000       1.113164        30.2907 
 179   0.0000       1.132048        30.8046 
 180   0.0000       1.140408        31.0321 
 181   0.0000       1.148480        31.2517 
 182   0.0000       1.163560        31.6621 
 183   0.0000       1.170829        31.8599 
 184   0.0000       1.182540        32.1786 
 185   0.0000       1.200902        32.6782 
 186   0.0000       1.208464        32.8840 
 187   0.0000       1.217453        33.1286 
 188   0.0000       1.222025        33.2530 
 189   0.0000       1.223799        33.3013 
 190   0.0000       1.230996        33.4971 
 191   0.0000       1.243095        33.8263 
 192   0.0000       1.255929        34.1756 
 193   0.0000       1.273590        34.6562 
 194   0.0000       1.303691        35.4752 
 195   0.0000       1.313436        35.7404 
 196   0.0000       1.327949        36.1353 
 197   0.0000       1.341928        36.5157 
 198   0.0000       1.354806        36.8661 
 199   0.0000       1.366249        37.1775 
 200   0.0000       1.367734        37.2179 
 201   0.0000       1.372295        37.3420 
 202   0.0000       1.376298        37.4510 
 203   0.0000       1.389235        37.8030 
 204   0.0000       1.404257        38.2118 
 205   0.0000       1.415559        38.5193 
 206   0.0000       1.450961        39.4827 
 207   0.0000       1.459116        39.7046 
 208   0.0000       1.467761        39.9398 
 209   0.0000       1.502999        40.8987 
 210   0.0000       1.512280        41.1512 
 211   0.0000       1.529513        41.6202 
 212   0.0000       1.558150        42.3994 
 213   0.0000       1.579083        42.9690 
 214   0.0000       1.589152        43.2430 
 215   0.0000       1.599366        43.5210 
 216   0.0000       1.603673        43.6382 
 217   0.0000       1.632371        44.4191 
 218   0.0000       1.645558        44.7779 
 219   0.0000       1.649679        44.8900 
 220   0.0000       1.653164        44.9849 
 221   0.0000       1.658827        45.1390 
 222   0.0000       1.669151        45.4199 
 223   0.0000       1.672199        45.5028 
 224   0.0000       1.678440        45.6727 
 225   0.0000       1.688462        45.9454 
 226   0.0000       1.700957        46.2854 
 227   0.0000       1.703190        46.3462 
 228   0.0000       1.708971        46.5035 
 229   0.0000       1.712114        46.5890 
 230   0.0000       1.716254        46.7017 
 231   0.0000       1.720892        46.8278 
 232   0.0000       1.722284        46.8657 
 233   0.0000       1.727246        47.0007 
 234   0.0000       1.735838        47.2345 
 235   0.0000       1.746403        47.5220 
 236   0.0000       1.757151        47.8145 
 237   0.0000       1.761474        47.9321 
 238   0.0000       1.764781        48.0221 
 239   0.0000       1.773051        48.2472 
 240   0.0000       1.777295        48.3627 
 241   0.0000       1.782003        48.4908 
 242   0.0000       1.803791        49.0836 
 243   0.0000       1.819918        49.5225 
 244   0.0000       1.831049        49.8254 
 245   0.0000       1.841179        50.1010 
 246   0.0000       1.859224        50.5921 
 247   0.0000       1.866419        50.7879 
 248   0.0000       1.869358        50.8678 
 249   0.0000       1.876357        51.0583 
 250   0.0000       1.894278        51.5459 
 251   0.0000       1.904440        51.8225 
 252   0.0000       1.922074        52.3023 
 253   0.0000       1.929925        52.5159 
 254   0.0000       1.948103        53.0106 
 255   0.0000       1.976622        53.7866 
 256   0.0000       1.980892        53.9028 
 257   0.0000       1.996477        54.3269 
 258   0.0000       2.008620        54.6573 
 259   0.0000       2.030768        55.2600 
 260   0.0000       2.052553        55.8528 
 261   0.0000       2.056361        55.9564 
 262   0.0000       2.068655        56.2910 
 263   0.0000       2.081601        56.6432 
 264   0.0000       2.099525        57.1310 
 265   0.0000       2.112516        57.4845 
 266   0.0000       2.133133        58.0455 
 267   0.0000       2.140253        58.2393 
 268   0.0000       2.154614        58.6300 
 269   0.0000       2.177174        59.2439 
 270   0.0000       2.203720        59.9663 
 271   0.0000       2.209777        60.1311 
 272   0.0000       2.223922        60.5160 
 273   0.0000       2.242878        61.0318 
 274   0.0000       2.245743        61.1098 
 275   0.0000       2.265995        61.6609 
 276   0.0000       2.283246        62.1303 
 277   0.0000       2.299667        62.5771 
 278   0.0000       2.307044        62.7779 
 279   0.0000       2.319055        63.1047 
 280   0.0000       2.342542        63.7438 
 281   0.0000       2.357218        64.1431 
 282   0.0000       2.362128        64.2768 
 283   0.0000       2.371068        64.5200 
 284   0.0000       2.385635        64.9164 
 285   0.0000       2.386740        64.9465 
 286   0.0000       2.399505        65.2938 
 287   0.0000       2.410054        65.5809 
 288   0.0000       2.413116        65.6642 
 289   0.0000       2.420749        65.8719 
 290   0.0000       2.428160        66.0736 
 291   0.0000       2.433271        66.2127 
 292   0.0000       2.453462        66.7621 
 293   0.0000       2.459415        66.9241 
 294   0.0000       2.466913        67.1281 
 295   0.0000       2.473803        67.3156 
 296   0.0000       2.480106        67.4871 
 297   0.0000       2.486719        67.6671 
 298   0.0000       2.493546        67.8528 
 299   0.0000       2.497048        67.9481 
 300   0.0000       2.500452        68.0408 
 301   0.0000       2.515067        68.4384 
 302   0.0000       2.519934        68.5709 
 303   0.0000       2.531615        68.8888 
 304   0.0000       2.533773        68.9475 
 305   0.0000       2.562527        69.7299 
 306   0.0000       2.563822        69.7651 
 307   0.0000       2.569517        69.9201 
 308   0.0000       2.576823        70.1189 
 309   0.0000       2.581681        70.2511 
 310   0.0000       2.615246        71.1645 
 311   0.0000       2.624528        71.4170 
 312   0.0000       2.629688        71.5575 
 313   0.0000       2.646527        72.0157 
 314   0.0000       2.655156        72.2505 
 315   0.0000       2.665583        72.5342 
 316   0.0000       2.674210        72.7690 
 317   0.0000       2.685982        73.0893 
 318   0.0000       2.695376        73.3449 
 319   0.0000       2.702939        73.5507 
 320   0.0000       2.716710        73.9254 
 321   0.0000       2.719741        74.0079 
 322   0.0000       2.724850        74.1469 
 323   0.0000       2.727301        74.2136 
 324   0.0000       2.740872        74.5829 
 325   0.0000       2.744045        74.6693 
 326   0.0000       2.761448        75.1428 
 327   0.0000       2.764254        75.2192 
 328   0.0000       2.776395        75.5495 
 329   0.0000       2.779539        75.6351 
 330   0.0000       2.799280        76.1723 
 331   0.0000       2.803395        76.2842 
 332   0.0000       2.804288        76.3086 
 333   0.0000       2.823816        76.8399 
 334   0.0000       2.846351        77.4531 
 335   0.0000       2.850126        77.5559 
 336   0.0000       2.859898        77.8218 
 337   0.0000       2.864045        77.9346 
 338   0.0000       2.900703        78.9321 
 339   0.0000       2.908882        79.1547 
 340   0.0000       2.923523        79.5531 
 341   0.0000       2.925536        79.6079 
 342   0.0000       2.931489        79.7699 
 343   0.0000       2.940935        80.0269 
 344   0.0000       2.945312        80.1460 
 345   0.0000       2.955003        80.4097 
 346   0.0000       2.964447        80.6667 
 347   0.0000       2.987428        81.2920 
 348   0.0000       2.992279        81.4240 
 349   0.0000       3.007582        81.8405 
 350   0.0000       3.016056        82.0711 
 351   0.0000       3.039161        82.6998 
 352   0.0000       3.055792        83.1523 
 353   0.0000       3.074625        83.6648 
 354   0.0000       3.083229        83.8989 
 355   0.0000       3.104438        84.4760 
 356   0.0000       3.113830        84.7316 
 357   0.0000       3.119264        84.8795 
 358   0.0000       3.141320        85.4797 
 359   0.0000       3.168794        86.2273 
 360   0.0000       3.179596        86.5212 
 361   0.0000       3.193690        86.9047 
 362   0.0000       3.210561        87.3638 
 363   0.0000       3.227733        87.8311 
 364   0.0000       3.237245        88.0899 
 365   0.0000       3.245128        88.3044 
 366   0.0000       3.265002        88.8452 
 367   0.0000       3.272690        89.0544 
 368   0.0000       3.277791        89.1932 
 369   0.0000       3.297638        89.7333 
 370   0.0000       3.305075        89.9357 
 371   0.0000       3.311961        90.1231 
 372   0.0000       3.318529        90.3018 
 373   0.0000       3.322623        90.4132 
 374   0.0000       3.327771        90.5533 
 375   0.0000       3.340404        90.8970 
 376   0.0000       3.345786        91.0435 
 377   0.0000       3.349145        91.1349 
 378   0.0000       3.356847        91.3445 
 379   0.0000       3.363732        91.5318 
 380   0.0000       3.378051        91.9214 
 381   0.0000       3.387597        92.1812 
 382   0.0000       3.401539        92.5606 
 383   0.0000       3.413787        92.8939 
 384   0.0000       3.419337        93.0449 
 385   0.0000       3.432343        93.3988 
 386   0.0000       3.437794        93.5471 
 387   0.0000       3.444329        93.7250 
 388   0.0000       3.447123        93.8010 
 389   0.0000       3.452095        93.9363 
 390   0.0000       3.461274        94.1861 
 391   0.0000       3.466764        94.3355 
 392   0.0000       3.473394        94.5158 
 393   0.0000       3.479585        94.6843 
 394   0.0000       3.484854        94.8277 
 395   0.0000       3.494004        95.0767 
 396   0.0000       3.495614        95.1205 
 397   0.0000       3.503198        95.3269 
 398   0.0000       3.507076        95.4324 
 399   0.0000       3.525181        95.9251 
 400   0.0000       3.528621        96.0187 
 401   0.0000       3.545018        96.4648 
 402   0.0000       3.564840        97.0042 
 403   0.0000       3.581437        97.4559 
 404   0.0000       3.593223        97.7766 
 405   0.0000       3.598271        97.9139 
 406   0.0000       3.605469        98.1098 
 407   0.0000       3.629336        98.7592 
 408   0.0000       3.656319        99.4935 
 409   0.0000       3.662611        99.6647 
 410   0.0000       3.673160        99.9518 
 411   0.0000       3.691453       100.4495 
 412   0.0000       3.719683       101.2177 
 413   0.0000       3.730716       101.5180 
 414   0.0000       3.753301       102.1325 
 415   0.0000       3.754210       102.1572 
 416   0.0000       3.757904       102.2578 
 417   0.0000       3.777941       102.8030 
 418   0.0000       3.780752       102.8795 
 419   0.0000       3.789490       103.1173 
 420   0.0000       3.800595       103.4195 
 421   0.0000       3.830399       104.2304 
 422   0.0000       3.836327       104.3918 
 423   0.0000       3.867165       105.2309 
 424   0.0000       3.876761       105.4920 
 425   0.0000       3.890201       105.8578 
 426   0.0000       3.905274       106.2679 
 427   0.0000       3.958044       107.7039 
 428   0.0000       3.958747       107.7230 
 429   0.0000       3.971932       108.0818 
 430   0.0000       3.984028       108.4109 
 431   0.0000       4.000574       108.8612 
 432   0.0000       4.055689       110.3609 
 433   0.0000       4.082603       111.0933 
 434   0.0000       4.118731       112.0764 
 435   0.0000       4.136413       112.5575 
 436   0.0000       4.144610       112.7806 
 437   0.0000       4.154439       113.0480 
 438   0.0000       4.164755       113.3288 
 439   0.0000       4.189777       114.0096 
 440   0.0000       4.197077       114.2083 
 441   0.0000       4.207866       114.5018 
 442   0.0000       4.213988       114.6685 
 443   0.0000       4.218066       114.7794 
 444   0.0000       4.226006       114.9955 
 445   0.0000       4.232683       115.1772 
 446   0.0000       4.246492       115.5529 
 447   0.0000       4.256596       115.8279 
 448   0.0000       4.270370       116.2027 
 449   0.0000       4.291171       116.7687 
 450   0.0000       4.311897       117.3327 
 451   0.0000       4.352191       118.4291 
 452   0.0000       4.397687       119.6672 
 453   0.0000       4.402881       119.8085 
 454   0.0000       4.405752       119.8866 
 455   0.0000       4.419840       120.2700 
 456   0.0000       4.447246       121.0157 
 457   0.0000       4.472060       121.6910 
 458   0.0000       4.481282       121.9419 
 459   0.0000       4.489187       122.1570 
 460   0.0000       4.505767       122.6081 
 461   0.0000       4.510468       122.7361 
 462   0.0000       4.519398       122.9791 
 463   0.0000       4.521040       123.0238 
 464   0.0000       4.525901       123.1560 
 465   0.0000       4.541080       123.5691 
 466   0.0000       4.561706       124.1303 
 467   0.0000       4.585535       124.7787 
 468   0.0000       4.588701       124.8649 
 469   0.0000       4.594211       125.0148 
 470   0.0000       4.603578       125.2697 
 471   0.0000       4.648697       126.4975 
 472   0.0000       4.714495       128.2879 
 473   0.0000       4.748671       129.2179 
 474   0.0000       4.809538       130.8742 
 475   0.0000       4.827551       131.3643 
 476   0.0000       4.844156       131.8162 
 477   0.0000       4.885147       132.9316 
 478   0.0000       4.921446       133.9194 
 479   0.0000       4.957525       134.9011 
 480   0.0000       4.971740       135.2879 
 481   0.0000       5.006414       136.2314 
 482   0.0000       5.026815       136.7866 
 483   0.0000       5.041988       137.1995 
 484   0.0000       5.068556       137.9224 
 485   0.0000       5.073662       138.0614 
 486   0.0000       5.083134       138.3191 
 487   0.0000       5.090933       138.5313 
 488   0.0000       5.121463       139.3621 
 489   0.0000       5.184595       141.0800 
 490   0.0000       5.215684       141.9260 
 491   0.0000       5.223864       142.1486 
 492   0.0000       5.324718       144.8930 
 493   0.0000       5.348331       145.5355 
 494   0.0000       5.375506       146.2749 
 495   0.0000       5.418122       147.4346 
 496   0.0000       5.430130       147.7614 
 497   0.0000       5.487193       149.3141 
 498   0.0000       5.508151       149.8844 
 499   0.0000       5.522344       150.2706 
 500   0.0000       5.650335       153.7534 
 501   0.0000       5.759050       156.7117 
 502   0.0000       5.785171       157.4225 
 503   0.0000       5.861573       159.5015 
 504   0.0000       5.950204       161.9133 
 505   0.0000       6.041795       164.4056 
 506   0.0000       6.092871       165.7954 
 507   0.0000       6.130148       166.8098 
 508   0.0000       6.163800       167.7255 
 509   0.0000       6.309855       171.6999 
 510   0.0000      22.438979       610.5956 
 511   0.0000      22.453241       610.9837 
 512   0.0000      22.469295       611.4206 
 513   0.0000      22.473118       611.5246 
 514   0.0000      22.477486       611.6435 
 515   0.0000      22.510122       612.5316 
 516   0.0000      22.525140       612.9402 
 517   0.0000      22.807972       620.6365 
 518   0.0000      22.834437       621.3566 
 519   0.0000      22.882520       622.6650 
 520   0.0000      22.994003       625.6986 
 521   0.0000      33.147736       901.9957 
 522   0.0000      33.275778       905.4800 

                    ********************************
                    * MULLIKEN POPULATION ANALYSIS *
                    ********************************

-----------------------
MULLIKEN ATOMIC CHARGES
-----------------------
   0 C :   -0.158454
   1 C :   -0.143541
   2 N :    0.046405
   3 N :    0.046119
   4 C :   -0.272253
   5 H :    0.164800
   6 H :    0.160564
   7 C :    0.059550
   8 C :    0.010633
   9 C :   -0.368559
  10 C :   -0.355917
  11 C :   -0.367255
  12 C :   -0.398434
  13 H :    0.112405
  14 H :    0.107988
  15 H :    0.114630
  16 H :    0.135426
  17 H :    0.154647
  18 H :    0.134350
[...]
     46      -0.001315   0.000797   0.000431
     47      -0.007182   0.002422   0.001339
     48      -0.000088  -0.002230   0.002878
     49      -0.000051  -0.001056   0.001568
     50      -0.000227  -0.004920   0.006465
     51       0.004040   0.000086  -0.000436
     52       0.003721  -0.000029  -0.000165
     53      -0.005077  -0.000049   0.000429
     54      -0.004115  -0.003008  -0.001281
     55       0.002710   0.002399   0.001111
     56      -0.004392  -0.003155  -0.001576
     57      -0.017989   0.000570   0.000217
     58      -0.028506   0.000861   0.000340
     59      -0.040226   0.001469   0.000599
     60      -0.000361   0.008505  -0.011045
     61       0.000092  -0.003292   0.004517
     62      -0.000012  -0.000400   0.000639
     63      -0.000075  -0.000316   0.000368
     64       0.003487   0.001468  -0.001448
     65       0.000886   0.000361  -0.000265
     66      -0.005195  -0.001127  -0.000521
     67      -0.014979  -0.002650  -0.001273
     68       0.004959   0.001730   0.000894
     69      -0.009455  -0.000309  -0.000172
     70      -0.030599   0.000586   0.000096
     71       0.013143  -0.000151  -0.000062
     72      -0.000001   0.000599  -0.000834
     73       0.000954  -0.003542   0.004238
     74       0.000193  -0.001594   0.002079
     75      -0.000127  -0.000047   0.000112
     76      -0.000298  -0.000040  -0.000011
     77       0.000109  -0.000024  -0.000015
     78       0.049003  -0.000025  -0.000030
     79       0.044882  -0.000003  -0.000006
     80       0.063209   0.000101  -0.000046
     81       0.000015   0.000126  -0.000183
     82       0.002538   0.001369  -0.001230
     83       0.000639   0.000604  -0.000576
     84      -0.063705   0.000967   0.000714
     85      -0.213905   0.001809   0.001274
     86       0.086777  -0.001031  -0.000628
     87       0.001469   0.000144  -0.000290
     88       0.001402   0.000111  -0.000220
     89      -0.002118  -0.000298   0.000588
     90      -0.267492  -0.000374  -0.000179
     91       0.173914   0.000149  -0.000031
     92      -0.144715  -0.000008  -0.000007
     93      -0.260422  -0.000317   0.000182
     94      -0.504016  -0.000445   0.000373
     95      -0.696193  -0.000486   0.000774
     96       0.000186   0.000352  -0.000880
     97      -0.000137  -0.000176   0.000366
     98       0.000006   0.000056  -0.000073


-----------
IR SPECTRUM
-----------

 Mode   freq       eps      Int      T**2         TX        TY        TZ
       cm**-1   L/(mol*cm) km/mol    a.u.
----------------------------------------------------------------------------
  6:     12.31   0.000100    0.51  0.002536  (-0.041062  0.007400 -0.028193)
  7:     34.01   0.000142    0.72  0.001302  (-0.028721  0.004346 -0.021407)
  8:     99.89   0.001231    6.22  0.003845  (-0.050228  0.005984 -0.035862)
  9:    148.94   0.000152    0.77  0.000319  ( 0.010071 -0.001724 -0.014635)
 10:    173.37   0.000028    0.14  0.000051  (-0.005715 -0.002612 -0.003342)
 11:    226.23   0.000041    0.21  0.000057  (-0.001200  0.006446 -0.003742)
 12:    247.97   0.000002    0.01  0.000003  (-0.000742 -0.001009 -0.000978)
 13:    271.91   0.000199    1.01  0.000229  (-0.003646 -0.014117 -0.004001)
 14:    280.82   0.000076    0.39  0.000085  (-0.003009 -0.007775 -0.003907)
 15:    285.52   0.000141    0.71  0.000154  (-0.002241 -0.011616  0.003747)
 16:    298.58   0.000006    0.03  0.000006  ( 0.001000 -0.002229  0.000222)
 17:    312.61   0.000087    0.44  0.000086  (-0.000161 -0.008718  0.003217)
 18:    342.16   0.000260    1.31  0.000237  ( 0.009146 -0.002789  0.012052)
 19:    344.57   0.000050    0.25  0.000046  (-0.004887 -0.001913  0.004253)
 20:    350.10   0.000399    2.02  0.000356  (-0.017490 -0.003499 -0.006126)
 21:    365.69   0.000072    0.36  0.000061  ( 0.000391  0.007563 -0.002021)
 22:    373.51   0.000580    2.93  0.000485  ( 0.001219  0.021854 -0.002359)
 23:    414.80   0.000126    0.64  0.000095  (-0.003681 -0.009008  0.000026)
 24:    450.72   0.001046    5.28  0.000724  (-0.021936  0.002338 -0.015406)
 25:    474.96   0.000193    0.98  0.000127  ( 0.007372  0.000900 -0.008475)
 26:    479.59   0.000028    0.14  0.000018  (-0.002581 -0.003211 -0.001179)
 27:    531.64   0.001212    6.12  0.000711  ( 0.005361  0.026077 -0.001594)
 28:    583.68   0.000283    1.43  0.000152  ( 0.005689 -0.000689 -0.010894)
 29:    654.62   0.003866   19.54  0.001843  (-0.009096 -0.041891  0.002334)
 30:    669.95   0.000361    1.83  0.000168  ( 0.010718 -0.000317  0.007297)
 31:    678.07   0.000413    2.09  0.000190  (-0.009835  0.005438 -0.007987)
 32:    737.35   0.009410   47.55  0.003982  (-0.051551  0.007590 -0.035600)
 33:    844.91   0.000083    0.42  0.000031  ( 0.002133  0.001680 -0.004819)
 34:    855.88   0.000117    0.59  0.000043  ( 0.000842  0.006426  0.000818)
 35:    856.82   0.000876    4.43  0.000319  ( 0.002356  0.017680 -0.001010)
 36:    947.67   0.000083    0.42  0.000027  (-0.004509 -0.002605 -0.000430)
 37:    952.87   0.000047    0.24  0.000015  ( 0.002669 -0.001738  0.002277)
 38:    957.60   0.000057    0.29  0.000019  (-0.001315 -0.004089  0.000296)
 39:    958.11   0.000205    1.04  0.000067  (-0.004816 -0.003074  0.005854)
 40:    975.83   0.000025    0.12  0.000008  (-0.001388 -0.001067 -0.002192)
 41:    977.24   0.000006    0.03  0.000002  ( 0.000065 -0.001290  0.000566)
 42:   1010.96   0.002652   13.40  0.000819  ( 0.004481  0.028225 -0.001362)
 43:   1022.82   0.000333    1.68  0.000102  ( 0.005799  0.000629 -0.008215)
 44:   1058.69   0.000034    0.17  0.000010  ( 0.001518  0.002121 -0.001776)
 45:   1061.18   0.000113    0.57  0.000033  ( 0.000535  0.002924 -0.004940)
 46:   1062.40   0.000168    0.85  0.000049  ( 0.004289  0.004730  0.002933)
 47:   1065.55   0.000021    0.10  0.000006  ( 0.002085 -0.000375  0.001256)
 48:   1122.13   0.002582   13.05  0.000718  ( 0.015267 -0.004525 -0.021553)
 49:   1172.34   0.001410    7.13  0.000375  (-0.002169 -0.019150 -0.001984)
 50:   1232.38   0.000466    2.35  0.000118  ( 0.003874 -0.001080 -0.010090)
 51:   1261.48   0.001546    7.81  0.000382  ( 0.001096  0.019415  0.002057)
 52:   1267.71   0.001047    5.29  0.000258  (-0.001351 -0.015570  0.003664)
 53:   1278.64   0.002333   11.79  0.000569  ( 0.010014 -0.018985  0.010419)
 54:   1280.95   0.001444    7.30  0.000352  ( 0.015286 -0.001065  0.010812)
 55:   1287.69   0.029946  151.34  0.007257  (-0.017437 -0.083321  0.003312)
 56:   1342.18   0.001402    7.08  0.000326  ( 0.004122  0.017415 -0.002385)
 57:   1380.80   0.001109    5.60  0.000251  (-0.007430 -0.002483  0.013756)
 58:   1391.29   0.000687    3.47  0.000154  ( 0.006145 -0.002942 -0.010380)
 59:   1409.39   0.003530   17.84  0.000782  ( 0.020351 -0.003431  0.018859)
 60:   1411.69   0.004219   21.32  0.000933  (-0.026041  0.004103 -0.015415)
 61:   1414.80   0.002705   13.67  0.000597  ( 0.016140  0.002572 -0.018152)
 62:   1419.53   0.008602   43.47  0.001891  ( 0.021844 -0.009276 -0.036440)
 63:   1438.46   0.004561   23.05  0.000989  ( 0.006396  0.030527 -0.004077)
 64:   1440.46   0.001276    6.45  0.000277  (-0.008441 -0.012850  0.006337)
 65:   1455.64   0.012097   61.14  0.002593  (-0.006782 -0.050458 -0.001206)
 66:   1474.67   0.000161    0.81  0.000034  (-0.003661 -0.001220 -0.004384)
 67:   1477.26   0.000027    0.13  0.000006  (-0.001934  0.000914 -0.001028)
 68:   1487.10   0.000036    0.18  0.000008  (-0.000991 -0.002528 -0.000356)
 69:   1488.22   0.000111    0.56  0.000023  ( 0.000184  0.003916 -0.002802)
 70:   1494.99   0.000018    0.09  0.000004  (-0.001768  0.000177  0.000813)
 71:   1497.60   0.000329    1.66  0.000069  ( 0.004721 -0.000159 -0.006805)
 72:   1501.74   0.000887    4.48  0.000184  (-0.004745  0.001464 -0.012635)
 73:   1504.40   0.000897    4.53  0.000186  (-0.004919  0.003876  0.012117)
 74:   1511.42   0.001813    9.16  0.000374  (-0.012480  0.014094  0.004464)
 75:   1511.85   0.001211    6.12  0.000250  (-0.013672  0.000482 -0.007930)
 76:   1523.14   0.001647    8.32  0.000337  (-0.007164 -0.015719  0.006245)
 77:   1530.69   0.001464    7.40  0.000298  (-0.000350  0.016945  0.003347)
 78:   1643.98   0.000209    1.06  0.000040  (-0.002299  0.002811  0.005146)
 79:   3063.86   0.003722   18.81  0.000379  ( 0.015871 -0.008190  0.007754)
 80:   3064.97   0.004800   24.26  0.000489  ( 0.013995  0.000347  0.017111)
 81:   3065.63   0.003295   16.65  0.000335  ( 0.015604 -0.006309 -0.007216)
 82:   3071.05   0.003445   17.41  0.000350  (-0.003378  0.011187  0.014611)
 83:   3071.55   0.003719   18.79  0.000378  (-0.004788 -0.017922  0.005805)
 84:   3078.86   0.004213   21.29  0.000427  (-0.012938 -0.015380  0.004806)
 85:   3139.77   0.000493    2.49  0.000049  (-0.005734  0.000887 -0.003922)
 86:   3141.74   0.001996   10.09  0.000198  (-0.007359 -0.005828  0.010494)
 87:   3143.36   0.005349   27.03  0.000531  (-0.002815  0.019518  0.011924)
 88:   3145.18   0.005779   29.20  0.000573  ( 0.020171 -0.005128  0.011842)
 89:   3149.63   0.005316   26.87  0.000527  ( 0.020239  0.002137 -0.010610)
 90:   3151.11   0.001361    6.88  0.000135  (-0.010568 -0.004044  0.002595)
 91:   3152.01   0.002207   11.16  0.000219  (-0.002070 -0.004930 -0.013783)
 92:   3155.28   0.009483   47.92  0.000938  ( 0.004734 -0.027514 -0.012586)
 93:   3157.33   0.011505   58.14  0.001137  ( 0.000895 -0.031073  0.013072)
 94:   3165.80   0.001059    5.35  0.000104  (-0.008285 -0.005976 -0.000141)
 95:   3170.34   0.003155   15.94  0.000311  ( 0.005012  0.014285 -0.009020)
 96:   3182.28   0.002401   12.13  0.000235  ( 0.009436  0.008365  0.008741)
 97:   3298.92   0.000160    0.81  0.000015  ( 0.001436  0.003469 -0.001021)
 98:   3322.45   0.000245    1.24  0.000023  ( 0.002206 -0.002672 -0.003311)

* The epsilon (eps) is given for a Dirac delta lineshape.
** The dipole moment derivative (T) already includes vibrational overlap.

The first frequency considered to be a vibration is 6
The total number of vibrations considered is 93


--------------------------
THERMOCHEMISTRY AT 298.15K
--------------------------

Temperature         ... 298.15 K
Pressure            ... 1.00 atm
Total Mass          ... 180.29 AMU

Throughout the following assumptions are being made:
  (1) The electronic state is orbitally nondegenerate
  (2) There are no thermally accessible electronically excited states
  (3) Hindered rotations indicated by low frequency modes are not
      treated as such but are treated as vibrations and this may
      cause some error
  (4) All equations used are the standard statistical mechanics
      equations for an ideal gas
  (5) All vibrations are strictly harmonic

freq.      12.31  E(vib)   ...       0.58 
freq.      34.01  E(vib)   ...       0.55 
freq.      99.89  E(vib)   ...       0.46 
freq.     148.94  E(vib)   ...       0.40 
freq.     173.37  E(vib)   ...       0.38 
freq.     226.23  E(vib)   ...       0.33 
freq.     247.97  E(vib)   ...       0.31 
freq.     271.91  E(vib)   ...       0.29 
freq.     280.82  E(vib)   ...       0.28 
freq.     285.52  E(vib)   ...       0.28 
freq.     298.58  E(vib)   ...       0.26 
freq.     312.61  E(vib)   ...       0.25 
freq.     342.16  E(vib)   ...       0.23 
freq.     344.57  E(vib)   ...       0.23 
freq.     350.10  E(vib)   ...       0.23 
freq.     365.69  E(vib)   ...       0.22 
freq.     373.51  E(vib)   ...       0.21 
freq.     414.80  E(vib)   ...       0.19 
freq.     450.72  E(vib)   ...       0.17 
freq.     474.96  E(vib)   ...       0.15 
freq.     479.59  E(vib)   ...       0.15 
freq.     531.64  E(vib)   ...       0.13 
freq.     583.68  E(vib)   ...       0.11 
freq.     654.62  E(vib)   ...       0.08 
freq.     669.95  E(vib)   ...       0.08 
freq.     678.07  E(vib)   ...       0.08 
freq.     737.35  E(vib)   ...       0.06 
freq.     844.91  E(vib)   ...       0.04 
freq.     855.88  E(vib)   ...       0.04 
freq.     856.82  E(vib)   ...       0.04 
freq.     947.67  E(vib)   ...       0.03 
freq.     952.87  E(vib)   ...       0.03 
freq.     957.60  E(vib)   ...       0.03 
freq.     958.11  E(vib)   ...       0.03 
freq.     975.83  E(vib)   ...       0.03 
freq.     977.24  E(vib)   ...       0.03 
freq.    1010.96  E(vib)   ...       0.02 
freq.    1022.82  E(vib)   ...       0.02 
freq.    1058.69  E(vib)   ...       0.02 
freq.    1061.18  E(vib)   ...       0.02 
freq.    1062.40  E(vib)   ...       0.02 
freq.    1065.55  E(vib)   ...       0.02 
freq.    1122.13  E(vib)   ...       0.01 
freq.    1172.34  E(vib)   ...       0.01 
freq.    1232.38  E(vib)   ...       0.01 
freq.    1261.48  E(vib)   ...       0.01 
freq.    1267.71  E(vib)   ...       0.01 
freq.    1278.64  E(vib)   ...       0.01 
freq.    1280.95  E(vib)   ...       0.01 
freq.    1287.69  E(vib)   ...       0.01 
freq.    1342.18  E(vib)   ...       0.01 
freq.    1380.80  E(vib)   ...       0.01 
freq.    1391.29  E(vib)   ...       0.00 
freq.    1409.39  E(vib)   ...       0.00 
freq.    1411.69  E(vib)   ...       0.00 
freq.    1414.80  E(vib)   ...       0.00 
freq.    1419.53  E(vib)   ...       0.00 
freq.    1438.46  E(vib)   ...       0.00 
freq.    1440.46  E(vib)   ...       0.00 
freq.    1455.64  E(vib)   ...       0.00 
freq.    1474.67  E(vib)   ...       0.00 
freq.    1477.26  E(vib)   ...       0.00 
freq.    1487.10  E(vib)   ...       0.00 
freq.    1488.22  E(vib)   ...       0.00 
freq.    1494.99  E(vib)   ...       0.00 
freq.    1497.60  E(vib)   ...       0.00 
freq.    1501.74  E(vib)   ...       0.00 
freq.    1504.40  E(vib)   ...       0.00 
freq.    1511.42  E(vib)   ...       0.00 
freq.    1511.85  E(vib)   ...       0.00 
freq.    1523.14  E(vib)   ...       0.00 
freq.    1530.69  E(vib)   ...       0.00 
freq.    1643.98  E(vib)   ...       0.00 
freq.    3063.86  E(vib)   ...       0.00 
freq.    3064.97  E(vib)   ...       0.00 
freq.    3065.63  E(vib)   ...       0.00 
freq.    3071.05  E(vib)   ...       0.00 
freq.    3071.55  E(vib)   ...       0.00 
freq.    3078.86  E(vib)   ...       0.00 
freq.    3139.77  E(vib)   ...       0.00 
freq.    3141.74  E(vib)   ...       0.00 
freq.    3143.36  E(vib)   ...       0.00 
freq.    3145.18  E(vib)   ...       0.00 
freq.    3149.63  E(vib)   ...       0.00 
freq.    3151.11  E(vib)   ...       0.00 
freq.    3152.01  E(vib)   ...       0.00 
freq.    3155.28  E(vib)   ...       0.00 
freq.    3157.33  E(vib)   ...       0.00 
freq.    3165.80  E(vib)   ...       0.00 
freq.    3170.34  E(vib)   ...       0.00 
freq.    3182.28  E(vib)   ...       0.00 
freq.    3298.92  E(vib)   ...       0.00 
freq.    3322.45  E(vib)   ...       0.00 

------------
INNER ENERGY
------------

The inner energy is: U= E(el) + E(ZPE) + E(vib) + E(rot) + E(trans)
    E(el)   - is the total energy from the electronic structure calculation
              = E(kin-el) + E(nuc-el) + E(el-el) + E(nuc-nuc)
    E(ZPE)  - the the zero temperature vibrational energy from the frequency calculation
    E(vib)  - the the finite temperature correction to E(ZPE) due to population
              of excited vibrational states
    E(rot)  - is the rotational thermal energy
    E(trans)- is the translational thermal energy

Summary of contributions to the inner energy U:
Electronic energy                ...   -540.75102821 Eh
Zero point energy                ...      0.29843500 Eh     187.27 kcal/mol
Thermal vibrational correction   ...      0.01150177 Eh       7.22 kcal/mol
Thermal rotational correction    ...      0.00141627 Eh       0.89 kcal/mol
Thermal translational correction ...      0.00141627 Eh       0.89 kcal/mol
-----------------------------------------------------------------------
Total thermal energy                   -540.43825890 Eh


Summary of corrections to the electronic energy:
(perhaps to be used in another calculation)
Total thermal correction                  0.01433431 Eh       8.99 kcal/mol
Non-thermal (ZPE) correction              0.29843500 Eh     187.27 kcal/mol
-----------------------------------------------------------------------
Total correction                          0.31276931 Eh     196.27 kcal/mol


--------
ENTHALPY
--------

The enthalpy is H = U + kB*T
                kB is Boltzmann's constant
Total free energy                 ...   -540.43825890 Eh 
Thermal Enthalpy correction       ...      0.00094421 Eh       0.59 kcal/mol
-----------------------------------------------------------------------
Total Enthalpy                    ...   -540.43731469 Eh


Note: Only C1 symmetry has been detected, increase convergence thresholds 
      if your molecule has a higher symmetry. Symmetry factor of 1.0 is   
      used for the rotational entropy correction. 
 

Note: Rotational entropy computed according to Herzberg 
Infrared and Raman Spectra, Chapter V,1, Van Nostrand Reinhold, 1945 
Point Group:  C1, Symmetry Number:   1  
Rotational constants in cm-1:     0.055995     0.015167     0.014146 

Vibrational entropy computed according to the QRRHO of S. Grimme
Chem.Eur.J. 2012 18 9955


-------
ENTROPY
-------

The entropy contributions are T*S = T*(S(el)+S(vib)+S(rot)+S(trans))
     S(el)   - electronic entropy
     S(vib)  - vibrational entropy
     S(rot)  - rotational entropy
     S(trans)- translational entropy
The entropies will be listed as multiplied by the temperature to get
units of energy

Electronic entropy                ...      0.00000000 Eh      0.00 kcal/mol
Vibrational entropy               ...      0.01978670 Eh     12.42 kcal/mol
Rotational entropy                ...      0.01485934 Eh      9.32 kcal/mol
Translational entropy             ...      0.01970603 Eh     12.37 kcal/mol
-----------------------------------------------------------------------
Final entropy term                ...      0.05435206 Eh     34.11 kcal/mol

In case the symmetry of your molecule has not been determined correctly
or in case you have a reason to use a different symmetry number we print 
out the resulting rotational entropy values for sn=1,12 :
 --------------------------------------------------------
|  sn= 1 | S(rot)=       0.01485934 Eh      9.32 kcal/mol|
|  sn= 2 | S(rot)=       0.01420488 Eh      8.91 kcal/mol|
|  sn= 3 | S(rot)=       0.01382205 Eh      8.67 kcal/mol|
|  sn= 4 | S(rot)=       0.01355043 Eh      8.50 kcal/mol|
|  sn= 5 | S(rot)=       0.01333974 Eh      8.37 kcal/mol|
|  sn= 6 | S(rot)=       0.01316759 Eh      8.26 kcal/mol|
|  sn= 7 | S(rot)=       0.01302205 Eh      8.17 kcal/mol|
|  sn= 8 | S(rot)=       0.01289597 Eh      8.09 kcal/mol|
|  sn= 9 | S(rot)=       0.01278476 Eh      8.02 kcal/mol|
|  sn=10 | S(rot)=       0.01268528 Eh      7.96 kcal/mol|
|  sn=11 | S(rot)=       0.01259529 Eh      7.90 kcal/mol|
|  sn=12 | S(rot)=       0.01251314 Eh      7.85 kcal/mol|
 --------------------------------------------------------


-------------------
GIBBS FREE ENERGY
-------------------

The Gibbs free energy is G = H - T*S

Total enthalpy                    ...   -540.43731469 Eh 
Total entropy correction          ...     -0.05435206 Eh    -34.11 kcal/mol
-----------------------------------------------------------------------
Final Gibbs free energy         ...   -540.49166675 Eh

For completeness - the Gibbs free energy minus the electronic energy
G-E(el)                           ...      0.25936145 Eh    162.75 kcal/mol


Timings for individual modules:

Sum of individual times         ...     3876.322 sec (=  64.605 min)
GTO integral calculation        ...        3.824 sec (=   0.064 min)   0.1 %
SCF iterations                  ...     1027.210 sec (=  17.120 min)  26.5 %
SCF Gradient evaluation         ...      227.289 sec (=   3.788 min)   5.9 %
Geometry relaxation             ...        0.255 sec (=   0.004 min)   0.0 %
Analytical frequency calculation...     2617.745 sec (=  43.629 min)  67.5 %
                             ****ORCA TERMINATED NORMALLY****
TOTAL RUN TIME: 0 days 1 hours 4 minutes 38 seconds 171 msec
