
                                 *****************
                                 * O   R   C   A *
                                 *****************

                                            #,                                       
                                            ###                                      
                                            ####                                     
                                            #####                                    
                                            ######                                   
                                           ########,                                 
                                     ,,################,,,,,                         
                               ,,#################################,,                 
                          ,,##########################################,,             
                       ,#########################################, ''#####,          
                    ,#############################################,,   '####,        
                  ,##################################################,,,,####,       
                ,###########''''           ''''###############################       
              ,#####''   ,,,,##########,,,,          '''####'''          '####       
            ,##' ,,,,###########################,,,                        '##       
           ' ,,###''''                  '''############,,,                           
         ,,##''                                '''############,,,,        ,,,,,,###''
      ,#''                                            '''#######################'''  
     '                                                          ''''####''''         
             ,#######,   #######,   ,#######,      ##                                
            ,#'     '#,  ##    ##  ,#'     '#,    #''#        ######   ,####,        
            ##       ##  ##   ,#'  ##            #'  '#       #        #'  '#        
            ##       ##  #######   ##           ,######,      #####,   #    #        
            '#,     ,#'  ##    ##  '#,     ,#' ,#      #,         ##   #,  ,#        
             '#######'   ##     ##  '#######'  #'      '#     #####' # '####'        



                  #######################################################
                  #                        -***-                        #
                  #          Department of theory and spectroscopy      #
                  #    Directorship and core code : Frank Neese         #
                  #        Max Planck Institute fuer Kohlenforschung    #
                  #                Kaiser Wilhelm Platz 1               #
                  #                 D-45470 Muelheim/Ruhr               #
                  #                      Germany                        #
                  #                                                     #
                  #                  All rights reserved                #
                  #                        -***-                        #
                  #######################################################


                         Program Version 5.0.4 -  RELEASE  -


 With contributions from (in alphabetic order):
   Daniel Aravena         : Magnetic Suceptibility
   Michael Atanasov       : Ab Initio Ligand Field Theory (pilot matlab implementation)
   Alexander A. Auer      : GIAO ZORA, VPT2 properties, NMR spectrum
   Ute Becker             : Parallelization
   Giovanni Bistoni       : ED, misc. LED, open-shell LED, HFLD
   Martin Brehm           : Molecular dynamics
   Dmytro Bykov           : SCF Hessian
   Vijay G. Chilkuri      : MRCI spin determinant printing, contributions to CSF-ICE
   Dipayan Datta          : RHF DLPNO-CCSD density
   Achintya Kumar Dutta   : EOM-CC, STEOM-CC
   Dmitry Ganyushin       : Spin-Orbit,Spin-Spin,Magnetic field MRCI
   Miquel Garcia          : C-PCM and meta-GGA Hessian, CC/C-PCM, Gaussian charge scheme
   Yang Guo               : DLPNO-NEVPT2, F12-NEVPT2, CIM, IAO-localization
   Andreas Hansen         : Spin unrestricted coupled pair/coupled cluster methods
   Benjamin Helmich-Paris : MC-RPA, TRAH-SCF, COSX integrals
   Lee Huntington         : MR-EOM, pCC
   Robert Izsak           : Overlap fitted RIJCOSX, COSX-SCS-MP3, EOM
   Marcus Kettner         : VPT2
   Christian Kollmar      : KDIIS, OOCD, Brueckner-CCSD(T), CCSD density, CASPT2, CASPT2-K
   Simone Kossmann        : Meta GGA functionals, TD-DFT gradient, OOMP2, MP2 Hessian
   Martin Krupicka        : Initial AUTO-CI
   Lucas Lang             : DCDCAS
   Marvin Lechner         : AUTO-CI (C++ implementation), FIC-MRCC
   Dagmar Lenk            : GEPOL surface, SMD
   Dimitrios Liakos       : Extrapolation schemes; Compound Job, initial MDCI parallelization
   Dimitrios Manganas     : Further ROCIS development; embedding schemes
   Dimitrios Pantazis     : SARC Basis sets
   Anastasios Papadopoulos: AUTO-CI, single reference methods and gradients
   Taras Petrenko         : DFT Hessian,TD-DFT gradient, ASA, ECA, R-Raman, ABS, FL, XAS/XES, NRVS
   Peter Pinski           : DLPNO-MP2, DLPNO-MP2 Gradient
   Christoph Reimann      : Effective Core Potentials
   Marius Retegan         : Local ZFS, SOC
   Christoph Riplinger    : Optimizer, TS searches, QM/MM, DLPNO-CCSD(T), (RO)-DLPNO pert. Triples
   Tobias Risthaus        : Range-separated hybrids, TD-DFT gradient, RPA, STAB
   Michael Roemelt        : Original ROCIS implementation
   Masaaki Saitow         : Open-shell DLPNO-CCSD energy and density
   Barbara Sandhoefer     : DKH picture change effects
   Avijit Sen             : IP-ROCIS
   Kantharuban Sivalingam : CASSCF convergence, NEVPT2, FIC-MRCI
   Bernardo de Souza      : ESD, SOC TD-DFT
   Georgi Stoychev        : AutoAux, RI-MP2 NMR, DLPNO-MP2 response
   Willem Van den Heuvel  : Paramagnetic NMR
   Boris Wezisla          : Elementary symmetry handling
   Frank Wennmohs         : Technical directorship


 We gratefully acknowledge several colleagues who have allowed us to
 interface, adapt or use parts of their codes:
   Stefan Grimme, W. Hujo, H. Kruse, P. Pracht,  : VdW corrections, initial TS optimization,
                  C. Bannwarth, S. Ehlert          DFT functionals, gCP, sTDA/sTD-DF
   Ed Valeev, F. Pavosevic, A. Kumar             : LibInt (2-el integral package), F12 methods
   Garnet Chan, S. Sharma, J. Yang, R. Olivares  : DMRG
   Ulf Ekstrom                                   : XCFun DFT Library
   Mihaly Kallay                                 : mrcc  (arbitrary order and MRCC methods)
   Jiri Pittner, Ondrej Demel                    : Mk-CCSD
   Frank Weinhold                                : gennbo (NPA and NBO analysis)
   Christopher J. Cramer and Donald G. Truhlar   : smd solvation model
   Lars Goerigk                                  : TD-DFT with DH, B97 family of functionals
   V. Asgeirsson, H. Jonsson                     : NEB implementation
   FAccTs GmbH                                   : IRC, NEB, NEB-TS, DLPNO-Multilevel, CI-OPT
                                                   MM, QMMM, 2- and 3-layer-ONIOM, Crystal-QMMM,
                                                   LR-CPCM, SF, NACMEs, symmetry and pop. for TD-DFT,
                                                   nearIR, NL-DFT gradient (VV10), updates on ESD,
                                                   ML-optimized integration grids
   S Lehtola, MJT Oliveira, MAL Marques          : LibXC Library
   Liviu Ungur et al                             : ANISO software


 Your calculation uses the libint2 library for the computation of 2-el integrals
 For citations please refer to: http://libint.valeyev.net

 Your ORCA version has been built with support for libXC version: 5.1.0
 For citations please refer to: https://tddft.org/programs/libxc/

 This ORCA versions uses:
   CBLAS   interface :  Fast vector & matrix operations
   LAPACKE interface :  Fast linear algebra routines
   SCALAPACK package :  Parallel linear algebra routines
   Shared memory     :  Shared parallel matrices
   BLAS/LAPACK       :  OpenBLAS 0.3.15  USE64BITINT DYNAMIC_ARCH NO_AFFINITY SkylakeX SINGLE_THREADED
        Core in use  :  SkylakeX
   Copyright (c) 2011-2014, The OpenBLAS Project




***************************************
The coordinates will be read from file: 6_deprot.xyz
***************************************


Your calculation utilizes the atom-pairwise dispersion correction
based on tight binding partial charges (D4)
Cite in your paper:
E.Caldeweyher, C.Bannwarth, S.Grimme, J.Chem.Phys., (2017), 147, 034112.
E.Caldeweyher, S.Ehlert, A.Hansen, H.Neugebauer, S.Grimme, J.Chem.Phys., (2018), in progress.
   

XCFun DFT library Copyright 2009-2010 Ulf Ekstrom and contributors.
See http://admol.org/xcfun for more information.
This is free software; see the source code for copying conditions.
There is ABSOLUTELY NO WARRANTY; not even for MERCHANTABILITY or FITNESS FOR A PARTICULAR PURPOSE.
For details see the documentation.
Scientific users of this library should cite U. Ekstrom, L. Visscher, R. Bast, A. J. Thorvaldsen and K. Ruud;
J.Chem.Theor.Comp. 2010, DOI: 10.1021/ct100117s
XCFun Version 0.99 

================================================================================

----- Orbital basis set information -----
Your calculation utilizes the basis: def2-TZVP
   F. Weigend and R. Ahlrichs, Phys. Chem. Chem. Phys. 7, 3297 (2005).

----- AuxJ basis set information -----
Your calculation utilizes the auxiliary basis: def2/J
   F. Weigend, Phys. Chem. Chem. Phys. 8, 1057 (2006).

================================================================================
                                        WARNINGS
                       Please study these warnings very carefully!
================================================================================


WARNING: Geometry Optimization
  ===> : Switching off AutoStart
         For restart on a previous wavefunction, please use MOREAD

INFO   : the flag for use of the SHARK integral package has been found!

================================================================================
                                       INPUT FILE
================================================================================
NAME = 6_deprot.inp
|  1> # ORCA 5.0.4 - /users/bwb16179/postgrad/2024_06/pKa_Reviewer_Comments/Gas_Z=0/6_deprot.inp # write input file
|  2> # Basic Mode
|  3> #
|  4> ! Opt Freq wB97X Def2-TZVP D4 SlowConv TightSCF Defgrid2 Def2/J RIJCOSX 
|  5> 
|  6> %PAL NPROCS 4 END
|  7> 
|  8> %maxcore 4500
|  9> 
| 10> %geom
| 11> Maxiter 150
| 12> END
| 13> 
| 14> * xyzfile 0 1 6_deprot.xyz
| 15> 
| 16>                          ****END OF INPUT****
================================================================================

                       *****************************
                       * Geometry Optimization Run *
                       *****************************

Geometry optimization settings:
Update method            Update   .... BFGS
Choice of coordinates    CoordSys .... Z-matrix Internals
Initial Hessian          InHess   .... Almoef's Model

Convergence Tolerances:
Energy Change            TolE     ....  5.0000e-06 Eh
Max. Gradient            TolMAXG  ....  3.0000e-04 Eh/bohr
RMS Gradient             TolRMSG  ....  1.0000e-04 Eh/bohr
Max. Displacement        TolMAXD  ....  4.0000e-03 bohr
RMS Displacement         TolRMSD  ....  2.0000e-03 bohr
Strict Convergence                ....  False
------------------------------------------------------------------------------
                        ORCA OPTIMIZATION COORDINATE SETUP
------------------------------------------------------------------------------

The optimization will be done in new redundant internal coordinates
Making redundant internal coordinates   ...  (new redundants) done
Evaluating the initial hessian          ...  (Almloef) done
Evaluating the coordinates              ...  done
Calculating the B-matrix                .... done
Calculating the G-matrix                .... done
Diagonalizing the G-matrix              .... done
Small eigenvalue found = 1.113e-02
Small eigenvalue found = 1.911e-02
Small eigenvalue found = 2.535e-02
The first mode is                       ....   77
The number of degrees of freedom        ....   93

    -----------------------------------------------------------------
                    Redundant Internal Coordinates


    -----------------------------------------------------------------
         Definition                    Initial Value    Approx d2E/dq
    -----------------------------------------------------------------
      1. B(C   1,C   0)                  1.3606         0.696151   
      2. B(N   3,C   2)                  1.3560         0.634118   
      3. B(N   3,C   0)                  1.3954         0.548554   
      4. B(N   4,C   1)                  1.3956         0.548109   
      5. B(N   4,C   2)                  1.3557         0.634720   
      6. B(C   5,C   0)                  1.4928         0.428327   
      7. B(C   6,C   1)                  1.4928         0.428241   
      8. B(H   7,C   5)                  1.0987         0.348732   
      9. B(H   8,C   6)                  1.0988         0.348695   
     10. B(H   9,C   6)                  1.1024         0.344045   
     11. B(H  10,C   5)                  1.1022         0.344315   
     12. B(H  11,C   5)                  1.1022         0.344268   
     13. B(H  12,C   6)                  1.1022         0.344280   
     14. B(C  17,C  13)                  1.5259         0.379283   
     15. B(C  17,N   3)                  1.4653         0.424354   
     16. B(C  17,C  16)                  1.5228         0.383652   
     17. B(C  18,C  15)                  1.5262         0.378810   
     18. B(C  18,C  14)                  1.5224         0.384179   
     19. B(C  18,N   4)                  1.4650         0.424857   
     20. B(H  19,C  13)                  1.1011         0.345734   
     21. B(H  20,C  14)                  1.1000         0.347135   
     22. B(H  21,C  15)                  1.1016         0.345022   
     23. B(H  22,C  16)                  1.1002         0.346843   
     24. B(H  23,C  13)                  1.1014         0.345364   
     25. B(H  24,C  14)                  1.0988         0.348657   
     26. B(H  25,C  15)                  1.1013         0.345450   
     27. B(H  26,C  16)                  1.0990         0.348410   
     28. B(H  27,C  13)                  1.1010         0.345850   
     29. B(H  28,C  14)                  1.1009         0.345950   
     30. B(H  29,C  15)                  1.1012         0.345618   
     31. B(H  30,C  16)                  1.1009         0.345961   
     32. B(H  31,C  17)                  1.1024         0.344086   
     33. B(H  32,C  18)                  1.1027         0.343623   
     34. A(N   3,C   0,C   5)          123.8318         0.395144   
     35. A(C   1,C   0,C   5)          130.4057         0.414789   
     36. A(C   1,C   0,N   3)          105.7625         0.430717   
     37. A(C   0,C   1,N   4)          105.7623         0.430654   
     38. A(C   0,C   1,C   6)          130.4868         0.414774   
     39. A(N   4,C   1,C   6)          123.7505         0.395074   
     40. A(N   3,C   2,N   4)          102.7736         0.431961   
     41. A(C   2,N   3,C  17)          122.6061         0.402090   
     42. A(C   0,N   3,C  17)          124.3792         0.391985   
     43. A(C   0,N   3,C   2)          112.8489         0.420821   
     44. A(C   2,N   4,C  18)          122.9032         0.402241   
     45. A(C   1,N   4,C   2)          112.8456         0.420831   
     46. A(C   1,N   4,C  18)          124.0285         0.392011   
     47. A(C   0,C   5,H  10)          112.0286         0.329267   
     48. A(H  10,C   5,H  11)          107.6150         0.286779   
     49. A(H   7,C   5,H  10)          107.4399         0.287357   
     50. A(C   0,C   5,H   7)          110.1629         0.329961   
     51. A(H   7,C   5,H  11)          107.4861         0.287350   
     52. A(C   0,C   5,H  11)          111.8913         0.329260   
     53. A(H   8,C   6,H   9)          107.4576         0.287317   
     54. A(C   1,C   6,H   8)          110.1860         0.329945   
     55. A(H   9,C   6,H  12)          107.5176         0.286745   
     56. A(H   8,C   6,H  12)          107.4728         0.287347   
     57. A(C   1,C   6,H  12)          111.9274         0.329251   
     58. A(C   1,C   6,H   9)          112.0580         0.329214   
     59. A(H  19,C  13,H  27)          108.8091         0.287169   
     60. A(H  23,C  13,H  27)          108.0416         0.287121   
     61. A(C  17,C  13,H  27)          109.5540         0.322980   
     62. A(H  19,C  13,H  23)          108.3145         0.287106   
     63. A(C  17,C  13,H  23)          111.1657         0.322905   
     64. A(C  17,C  13,H  19)          110.8777         0.322962   
     65. A(H  20,C  14,H  28)          108.7401         0.287363   
     66. A(C  18,C  14,H  28)          109.8692         0.323675   
     67. A(H  24,C  14,H  28)          109.3547         0.287560   
     68. A(H  20,C  14,H  24)          107.7801         0.287714   
     69. A(C  18,C  14,H  24)          110.1299         0.324090   
     70. A(C  18,C  14,H  20)          110.9193         0.323857   
     71. A(H  25,C  15,H  29)          108.7468         0.287102   
     72. A(H  21,C  15,H  29)          108.1945         0.287046   
     73. A(C  18,C  15,H  29)          110.9713         0.322878   
     74. A(H  21,C  15,H  25)          108.0436         0.287025   
     75. A(C  18,C  15,H  25)          109.6212         0.322852   
     76. A(C  18,C  15,H  21)          111.1791         0.322787   
     77. A(H  22,C  16,H  30)          108.6339         0.287327   
     78. A(C  17,C  16,H  30)          110.1601         0.323604   
     79. A(H  26,C  16,H  30)          109.3136         0.287529   
     80. A(H  22,C  16,H  26)          107.7767         0.287644   
     81. A(C  17,C  16,H  26)          110.0369         0.323979   
     82. A(C  17,C  16,H  22)          110.8648         0.323739   
     83. A(C  16,C  17,H  31)          108.3059         0.323316   
     84. A(C  13,C  17,H  31)          108.5266         0.322709   
     85. A(N   3,C  17,H  31)          106.4123         0.326752   
     86. A(C  13,C  17,C  16)          112.1788         0.365958   
     87. A(N   3,C  17,C  16)          110.9195         0.370750   
     88. A(N   3,C  17,C  13)          110.2799         0.370020   
     89. A(C  14,C  18,C  15)          112.1095         0.365966   
     90. A(C  15,C  18,H  32)          108.6085         0.322572   
     91. A(C  14,C  18,H  32)          108.2226         0.323317   
     92. A(N   4,C  18,C  15)          110.2284         0.370016   
     93. A(N   4,C  18,H  32)          106.3772         0.326743   
     94. A(N   4,C  18,C  14)          111.0767         0.370913   
     95. D(N   4,C   1,C   0,N   3)      0.8176         0.034101   
     96. D(N   4,C   1,C   0,C   5)   -179.1594         0.034101   
     97. D(C   6,C   1,C   0,N   3)   -179.3803         0.034101   
     98. D(C   6,C   1,C   0,C   5)      0.6428         0.034101   
     99. D(C  17,N   3,C   0,C   1)   -176.0609         0.023977   
    100. D(C   2,N   3,C   0,C   1)     -0.6479         0.023977   
    101. D(C  17,N   3,C   0,C   5)      3.9180         0.023977   
    102. D(C   2,N   3,C   0,C   5)    179.3310         0.023977   
    103. D(C   0,N   3,C   2,N   4)      0.1687         0.029601   
    104. D(C  17,N   3,C   2,N   4)    175.6749         0.029601   
    105. D(C  18,N   4,C   1,C   6)      4.6914         0.023936   
    106. D(C  18,N   4,C   1,C   0)   -175.4896         0.023936   
    107. D(C   2,N   4,C   1,C   6)    179.3964         0.023936   
    108. D(C   1,N   4,C   2,N   3)      0.3795         0.029662   
    109. D(C   2,N   4,C   1,C   0)     -0.7846         0.023936   
    110. D(C  18,N   4,C   2,N   3)    175.1530         0.029662   
    111. D(H  10,C   5,C   0,N   3)    -59.7566         0.013552   
    112. D(H  11,C   5,C   0,C   1)   -118.8260         0.013552   
    113. D(H   7,C   5,C   0,C   1)      0.6798         0.013552   
    114. D(H  11,C   5,C   0,N   3)     61.2007         0.013552   
    115. D(H   7,C   5,C   0,N   3)   -179.2935         0.013552   
    116. D(H  10,C   5,C   0,C   1)    120.2167         0.013552   
    117. D(H  12,C   6,C   1,N   4)    -57.2920         0.013547   
    118. D(H  12,C   6,C   1,C   0)    122.9369         0.013547   
    119. D(H   9,C   6,C   1,N   4)     63.5861         0.013547   
    120. D(H   8,C   6,C   1,N   4)   -176.8200         0.013547   
    121. D(H   8,C   6,C   1,C   0)      3.4090         0.013547   
    122. D(H   9,C   6,C   1,C   0)   -116.1849         0.013547   
    123. D(C  13,C  17,N   3,C   0)     96.2955         0.015353   
    124. D(C  13,C  17,N   3,C   2)    -78.6856         0.015353   
    125. D(H  31,C  17,C  16,H  30)     61.4582         0.011720   
    126. D(H  31,C  17,C  16,H  22)    -58.8199         0.011720   
    127. D(C  13,C  17,C  16,H  30)    -58.2967         0.011720   
    128. D(C  13,C  17,C  16,H  26)     62.2951         0.011720   
    129. D(C  16,C  17,N   3,C   0)   -138.8082         0.015353   
    130. D(N   3,C  17,C  16,H  30)    177.8861         0.011720   
    131. D(N   3,C  17,C  16,H  26)    -61.5220         0.011720   
    132. D(N   3,C  17,C  16,H  22)     57.6080         0.011720   
    133. D(H  31,C  17,C  13,H  27)    178.5049         0.011468   
    134. D(H  31,C  17,C  13,H  23)     59.1671         0.011468   
    135. D(H  31,C  17,C  13,H  19)    -61.3850         0.011468   
    136. D(C  16,C  17,C  13,H  27)    -61.8691         0.011468   
    137. D(C  16,C  17,C  13,H  23)    178.7931         0.011468   
    138. D(C  16,C  17,C  13,H  19)     58.2410         0.011468   
    139. D(N   3,C  17,C  13,H  23)    -57.0332         0.011468   
    140. D(C  13,C  17,C  16,H  22)   -178.5748         0.011720   
    141. D(N   3,C  17,C  13,H  19)   -177.5853         0.011468   
    142. D(H  31,C  17,N   3,C   2)    163.8000         0.015353   
    143. D(H  31,C  17,N   3,C   0)    -21.2190         0.015353   
    144. D(H  31,C  17,C  16,H  26)   -177.9500         0.011720   
    145. D(C  16,C  17,N   3,C   2)     46.2107         0.015353   
    146. D(N   3,C  17,C  13,H  27)     62.3046         0.011468   
    147. D(C  15,C  18,C  14,H  20)   -179.1220         0.011750   
    148. D(N   4,C  18,C  14,H  28)    177.3171         0.011750   
    149. D(N   4,C  18,C  14,H  24)    -62.1667         0.011750   
    150. D(N   4,C  18,C  14,H  20)     57.0616         0.011750   
    151. D(H  32,C  18,N   4,C   2)    159.8729         0.015390   
    152. D(H  32,C  18,N   4,C   1)    -25.9408         0.015390   
    153. D(C  15,C  18,N   4,C   2)    -82.5623         0.015390   
    154. D(C  15,C  18,N   4,C   1)     91.6240         0.015390   
    155. D(C  14,C  18,N   4,C   2)     42.3201         0.015390   
    156. D(C  15,C  18,C  14,H  24)     61.6497         0.011750   
    157. D(C  14,C  18,N   4,C   1)   -143.4936         0.015390   
    158. D(H  32,C  18,C  15,H  29)    -60.7218         0.011440   
    159. D(H  32,C  18,C  15,H  21)     59.7506         0.011440   
    160. D(C  14,C  18,C  15,H  29)     58.8118         0.011440   
    161. D(C  14,C  18,C  15,H  25)    -61.3237         0.011440   
    162. D(C  14,C  18,C  15,H  21)    179.2843         0.011440   
    163. D(N   4,C  18,C  15,H  29)   -176.8986         0.011440   
    164. D(N   4,C  18,C  15,H  25)     62.9658         0.011440   
    165. D(N   4,C  18,C  15,H  21)    -56.4262         0.011440   
    166. D(H  32,C  18,C  14,H  28)     60.8930         0.011750   
    167. D(H  32,C  18,C  14,H  24)   -178.5909         0.011750   
    168. D(H  32,C  18,C  15,H  25)    179.1426         0.011440   
    169. D(H  32,C  18,C  14,H  20)    -59.3626         0.011750   
    170. D(C  15,C  18,C  14,H  28)    -58.8665         0.011750   
    -----------------------------------------------------------------

Number of atoms                         .... 33
Number of degrees of freedom            .... 170

         *************************************************************
         *                GEOMETRY OPTIMIZATION CYCLE   1            *
         *************************************************************
---------------------------------
CARTESIAN COORDINATES (ANGSTROEM)
---------------------------------
  C      0.708806    0.729700   -2.930457
  C      0.986618   -0.573921   -2.657465
  C      1.469042    0.634043   -0.769853
  N      1.020662    1.435288   -1.767657
  N      1.435391   -0.597270   -1.336145
  C      0.181327    1.366949   -4.173052
  C      0.866939   -1.790454   -3.514349
  H      0.002400    0.604101   -4.943286
  H      0.547237   -1.510547   -4.527620
  H      0.125518   -2.504074   -3.118923
  H     -0.773419    1.888723   -3.996812
  H      0.889919    2.100256   -4.591488
  H      1.826287   -2.325404   -3.605943
  C     -0.526558    3.113038   -0.863991
  C      1.519224   -1.816036    0.802894
  C      3.448646   -1.905688   -0.829672
  C      1.970704    3.519241   -0.865514
  C      0.795810    2.871812   -1.586098
  C      1.935610   -1.797508   -0.661320
  H     -0.726149    4.190913   -0.760398
  H      0.425452   -1.752827    0.901006
  H      3.731808   -1.903617   -1.894300
  H      2.908134    3.353659   -1.417122
  H     -1.366943    2.656370   -1.410097
  H      1.953706   -0.955693    1.330507
  H      3.937086   -1.045747   -0.345108
  H      2.087747    3.079221    0.134710
  H     -0.486263    2.661453    0.139318
  H      1.863730   -2.747428    1.278113
  H      3.830608   -2.832585   -0.374095
  H      1.805983    4.603493   -0.769316
  H      0.727372    3.306559   -2.596820
  H      1.463138   -2.657180   -1.165097

----------------------------
CARTESIAN COORDINATES (A.U.)
----------------------------
  NO LB      ZA    FRAG     MASS         X           Y           Z
   0 C     6.0000    0    12.011    1.339449    1.378933   -5.537761
   1 C     6.0000    0    12.011    1.864438   -1.084554   -5.021881
   2 C     6.0000    0    12.011    2.776087    1.198168   -1.454811
   3 N     7.0000    0    14.007    1.928772    2.712301   -3.340388
   4 N     7.0000    0    14.007    2.712496   -1.128677   -2.524948
   5 C     6.0000    0    12.011    0.342658    2.583159   -7.885925
   6 C     6.0000    0    12.011    1.638277   -3.383468   -6.641157
   7 H     1.0000    0     1.008    0.004535    1.141585   -9.341457
   8 H     1.0000    0     1.008    1.034128   -2.854520   -8.555962
   9 H     1.0000    0     1.008    0.237195   -4.732014   -5.893910
  10 H     1.0000    0     1.008   -1.461550    3.569169   -7.552880
  11 H     1.0000    0     1.008    1.681703    3.968909   -8.676655
  12 H     1.0000    0     1.008    3.451182   -4.394377   -6.814245
  13 C     6.0000    0    12.011   -0.995050    5.882789   -1.632706
  14 C     6.0000    0    12.011    2.870917   -3.431811    1.517250
  15 C     6.0000    0    12.011    6.516996   -3.601228   -1.567853
  16 C     6.0000    0    12.011    3.724091    6.650402   -1.635584
  17 C     6.0000    0    12.011    1.503863    5.426938   -2.997291
  18 C     6.0000    0    12.011    3.657773   -3.396798   -1.249714
  19 H     1.0000    0     1.008   -1.372223    7.919678   -1.436944
  20 H     1.0000    0     1.008    0.803988   -3.312363    1.702655
  21 H     1.0000    0     1.008    7.052095   -3.597315   -3.579708
  22 H     1.0000    0     1.008    5.495577    6.337497   -2.677972
  23 H     1.0000    0     1.008   -2.583148    5.019812   -2.664697
  24 H     1.0000    0     1.008    3.691969   -1.805998    2.514294
  25 H     1.0000    0     1.008    7.440014   -1.976175   -0.652160
  26 H     1.0000    0     1.008    3.945270    5.818884    0.254565
  27 H     1.0000    0     1.008   -0.918904    5.029417    0.263273
  28 H     1.0000    0     1.008    3.521939   -5.191886    2.415284
  29 H     1.0000    0     1.008    7.238800   -5.352810   -0.706937
  30 H     1.0000    0     1.008    3.412813    8.699341   -1.453797
  31 H     1.0000    0     1.008    1.374534    6.248491   -4.907279
  32 H     1.0000    0     1.008    2.764930   -5.021342   -2.201714

--------------------------------
INTERNAL COORDINATES (ANGSTROEM)
--------------------------------
 C      0   0   0     0.000000000000     0.00000000     0.00000000
 C      1   0   0     1.360563063974     0.00000000     0.00000000
 C      2   1   0     2.292376278802    72.74017232     0.00000000
 N      3   2   1     1.355968656290    68.64510226   359.60675098
 N      3   2   1     1.355710412674    34.12922872   179.20931348
 C      1   2   3     1.492770148907   130.40566842   180.39284947
 C      2   1   3     1.492824769551   130.48682516   180.24993381
 H      6   1   2     1.098732158986   110.16287891     0.67981369
 H      7   2   1     1.098760855188   110.18597929     3.40901953
 H      7   2   1     1.102415677101   112.05804403   243.81507682
 H      6   1   2     1.102201691703   112.02856946   120.21666758
 H      6   1   2     1.102238841998   111.89129886   241.17404347
 H      7   2   1     1.102229353828   111.92735005   122.93693532
 C      4   3   2     2.454658230886   109.96256742   138.43641006
 C      5   3   2     2.463312074863    94.92217312   197.70909490
 C      5   3   2     2.453908771222   112.19098999   136.09331898
 C      4   3   2     2.461564929150    95.90886615   200.69781851
 C      4   3   2     1.465306553238   122.60607885   175.90353978
 C      5   3   2     1.464984329346   122.90316078   174.77346820
 H     14   4   3     1.101082464012   144.88340654   122.42274759
 H     15   5   3     1.099981149933    90.86983718    86.19727450
 H     16   5   3     1.101643220679    90.59689553   244.97556654
 H     17   4   3     1.100210793116    91.01350306    89.79469269
 H     14   4   3     1.101373857364    90.86022925   247.01088487
 H     15   5   3     1.098790318369    92.46586383   338.35871735
 H     16   5   3     1.101305782777    92.19718598   353.05801466
 H     17   4   3     1.098983491425    92.04554481   341.96535641
 H     14   4   3     1.100991211923    91.83764779   355.09321704
 H     15   5   3     1.100912594015   143.52023060   210.32035585
 H     16   5   3     1.101173656142   144.96294101   121.00513073
 H     17   4   3     1.100903929755   143.90765590   214.31849773
 H     18   4   3     1.102382726251   106.41231306   163.79998220
 H     19   5   3     1.102749746813   106.37724467   159.87286486

---------------------------
INTERNAL COORDINATES (A.U.)
---------------------------
 C      0   0   0     0.000000000000     0.00000000     0.00000000
 C      1   0   0     2.571091578839     0.00000000     0.00000000
 C      2   1   0     4.331963362834    72.74017232     0.00000000
 N      3   2   1     2.562409406569    68.64510226   359.60675098
 N      3   2   1     2.561921396860    34.12922872   179.20931348
 C      1   2   3     2.820926762327   130.40566842   180.39284947
 C      2   1   3     2.821029980386   130.48682516   180.24993381
 H      6   1   2     2.076302875015   110.16287891     0.67981369
 H      7   2   1     2.076357102979   110.18597929     3.40901953
 H      7   2   1     2.083263715461   112.05804403   243.81507682
 H      6   1   2     2.082859341663   112.02856946   120.21666758
 H      6   1   2     2.082929545547   111.89129886   241.17404347
 H      7   2   1     2.082911615504   111.92735005   122.93693532
 C      4   3   2     4.638631808750   109.96256742   138.43641006
 C      5   3   2     4.654985203872    94.92217312   197.70909490
 C      5   3   2     4.637215535236   112.19098999   136.09331898
 C      4   3   2     4.651683576959    95.90886615   200.69781851
 C      4   3   2     2.769028087859   122.60607885   175.90353978
 C      5   3   2     2.768419172951   122.90316078   174.77346820
 H     14   4   3     2.080744307846   144.88340654   122.42274759
 H     15   5   3     2.078663125850    90.86983718    86.19727450
 H     16   5   3     2.081803984375    90.59689553   244.97556654
 H     17   4   3     2.079097088573    91.01350306    89.79469269
 H     14   4   3     2.081294961479    90.86022925   247.01088487
 H     15   5   3     2.076412780322    92.46586383   338.35871735
 H     16   5   3     2.081166319151    92.19718598   353.05801466
 H     17   4   3     2.076777824494    92.04554481   341.96535641
 H     14   4   3     2.080571866388    91.83764779   355.09321704
 H     15   5   3     2.080423300073   143.52023060   210.32035585
 H     16   5   3     2.080916635998   144.96294101   121.00513073
 H     17   4   3     2.080406926994   143.90765590   214.31849773
 H     18   4   3     2.083201447380   106.41231306   163.79998220
 H     19   5   3     2.083895015728   106.37724467   159.87286486

---------------------
BASIS SET INFORMATION
---------------------
There are 3 groups of distinct atoms

 Group   1 Type C   : 11s6p2d1f contracted to 5s3p2d1f pattern {62111/411/11/1}
 Group   2 Type N   : 11s6p2d1f contracted to 5s3p2d1f pattern {62111/411/11/1}
 Group   3 Type H   : 5s1p contracted to 3s1p pattern {311/1}

Atom   0C    basis set group =>   1
Atom   1C    basis set group =>   1
Atom   2C    basis set group =>   1
Atom   3N    basis set group =>   2
Atom   4N    basis set group =>   2
Atom   5C    basis set group =>   1
Atom   6C    basis set group =>   1
Atom   7H    basis set group =>   3
Atom   8H    basis set group =>   3
Atom   9H    basis set group =>   3
Atom  10H    basis set group =>   3
Atom  11H    basis set group =>   3
Atom  12H    basis set group =>   3
Atom  13C    basis set group =>   1
Atom  14C    basis set group =>   1
Atom  15C    basis set group =>   1
Atom  16C    basis set group =>   1
Atom  17C    basis set group =>   1
Atom  18C    basis set group =>   1
Atom  19H    basis set group =>   3
Atom  20H    basis set group =>   3
Atom  21H    basis set group =>   3
Atom  22H    basis set group =>   3
Atom  23H    basis set group =>   3
Atom  24H    basis set group =>   3
Atom  25H    basis set group =>   3
Atom  26H    basis set group =>   3
Atom  27H    basis set group =>   3
Atom  28H    basis set group =>   3
Atom  29H    basis set group =>   3
Atom  30H    basis set group =>   3
Atom  31H    basis set group =>   3
Atom  32H    basis set group =>   3
---------------------------------
AUXILIARY/J BASIS SET INFORMATION
---------------------------------
There are 3 groups of distinct atoms

 Group   1 Type C   : 12s5p4d2f1g contracted to 6s4p3d1f1g pattern {711111/2111/211/2/1}
 Group   2 Type N   : 12s5p4d2f1g contracted to 6s4p3d1f1g pattern {711111/2111/211/2/1}
 Group   3 Type H   : 5s2p1d contracted to 3s1p1d pattern {311/2/1}

Atom   0C    basis set group =>   1
Atom   1C    basis set group =>   1
Atom   2C    basis set group =>   1
Atom   3N    basis set group =>   2
Atom   4N    basis set group =>   2
Atom   5C    basis set group =>   1
Atom   6C    basis set group =>   1
Atom   7H    basis set group =>   3
Atom   8H    basis set group =>   3
Atom   9H    basis set group =>   3
Atom  10H    basis set group =>   3
Atom  11H    basis set group =>   3
Atom  12H    basis set group =>   3
Atom  13C    basis set group =>   1
Atom  14C    basis set group =>   1
Atom  15C    basis set group =>   1
Atom  16C    basis set group =>   1
Atom  17C    basis set group =>   1
Atom  18C    basis set group =>   1
Atom  19H    basis set group =>   3
Atom  20H    basis set group =>   3
Atom  21H    basis set group =>   3
Atom  22H    basis set group =>   3
Atom  23H    basis set group =>   3
Atom  24H    basis set group =>   3
Atom  25H    basis set group =>   3
Atom  26H    basis set group =>   3
Atom  27H    basis set group =>   3
Atom  28H    basis set group =>   3
Atom  29H    basis set group =>   3
Atom  30H    basis set group =>   3
Atom  31H    basis set group =>   3
Atom  32H    basis set group =>   3


           ************************************************************
           *        Program running with 4 parallel MPI-processes     *
           *              working on a common directory               *
           ************************************************************
------------------------------------------------------------------------------
                           ORCA GTO INTEGRAL CALCULATION
                           -- RI-GTO INTEGRALS CHOSEN --
------------------------------------------------------------------------------
------------------------------------------------------------------------------
                   ___                                                        
                  /   \      - P O W E R E D   B Y -                         
                 /     \                                                     
                 |  |  |   _    _      __       _____    __    __             
                 |  |  |  | |  | |    /  \     |  _  \  |  |  /  |          
                  \  \/   | |  | |   /    \    | | | |  |  | /  /          
                 / \  \   | |__| |  /  /\  \   | |_| |  |  |/  /          
                |  |  |   |  __  | /  /__\  \  |    /   |      \           
                |  |  |   | |  | | |   __   |  |    \   |  |\   \          
                \     /   | |  | | |  |  |  |  | |\  \  |  | \   \       
                 \___/    |_|  |_| |__|  |__|  |_| \__\ |__|  \__/        
                                                                              
                      - O R C A' S   B I G   F R I E N D -                    
                                      &                                       
                       - I N T E G R A L  F E E D E R -                       
                                                                              
 v1 FN, 2020, v2 2021                                                         
------------------------------------------------------------------------------


Reading SHARK input file 6_deprot.SHARKINP.tmp ... ok
----------------------
SHARK INTEGRAL PACKAGE
----------------------

Number of atoms                             ...     33
Number of basis functions                   ...    523
Number of shells                            ...    223
Maximum angular momentum                    ...      3
Integral batch strategy                     ... SHARK/LIBINT Hybrid
RI-J (if used) integral strategy            ... SPLIT-RIJ (Revised 2003 algorithm where possible)
Printlevel                                  ...      1
Contraction scheme used                     ... SEGMENTED contraction
Coulomb Range Separation                    ... NOT USED
Exchange Range Separation                   ... Long Range
   Mu parameter                             ...  0.300000
   Scaling (regular/separated)              ...  0.157706  0.842294
Finite Nucleus Model                        ... NOT USED
Auxiliary Coulomb fitting basis             ... AVAILABLE
   # of basis functions in Aux-J            ...    857
   # of shells in Aux-J                     ...    295
   Maximum angular momentum in Aux-J        ...      4
Auxiliary J/K fitting basis                 ... NOT available
Auxiliary Correlation fitting basis         ... NOT available
Auxiliary 'external' fitting basis          ... NOT available
Integral threshold                          ...     2.500000e-11
Primitive cut-off                           ...     2.500000e-12
Primitive pair pre-selection threshold      ...     2.500000e-12

Calculating pre-screening integrals         ... done (  0.1 sec) Dimension = 223
Organizing shell pair data                  ... done (  0.2 sec)
Shell pair information
Total number of shell pairs                 ...     24976
Shell pairs after pre-screening             ...     20660
Total number of primitive shell pairs       ...     72736
Primitive shell pairs kept                  ...     42612
          la=0 lb=0:   6319 shell pairs
          la=1 lb=0:   6077 shell pairs
          la=1 lb=1:   1508 shell pairs
          la=2 lb=0:   2748 shell pairs
          la=2 lb=1:   1335 shell pairs
          la=2 lb=2:    324 shell pairs
          la=3 lb=0:   1315 shell pairs
          la=3 lb=1:    649 shell pairs
          la=3 lb=2:    306 shell pairs
          la=3 lb=3:     79 shell pairs

Calculating one electron integrals          ... done (  0.1 sec)
Calculating RI/J V-Matrix + Cholesky decomp.... done (  0.1 sec)
Calculating Nuclear repulsion               ... done (  0.0 sec) ENN=    853.879102306903 Eh

SHARK setup successfully completed in   0.8 seconds

Maximum memory used throughout the entire GTOINT-calculation: 32.1 MB


           ************************************************************
           *        Program running with 4 parallel MPI-processes     *
           *              working on a common directory               *
           ************************************************************
-------------------------------------------------------------------------------
                                 ORCA SCF
-------------------------------------------------------------------------------

------------
SCF SETTINGS
------------
Hamiltonian:
 Density Functional     Method          .... DFT(GTOs)
 Exchange Functional    Exchange        .... WB97X
 Correlation Functional Correlation     .... WB97X
 Gradients option       PostSCFGGA      .... off
 Hybrid DFT is turned on
   Fraction HF Exchange ScalHFX         ....  0.157706
   Scaling of DF-GGA-X  ScalDFX         ....  0.000000
   Scaling of DF-GGA-C  ScalDFC         ....  1.000000
   Scaling of DF-LDA-C  ScalLDAC        ....  1.000000
   Perturbative correction              ....  0.000000
   Density functional embedding theory  .... OFF
 Long-range corrected/Screened/Range-Separated Hybrid DFT is turned on
   Amount of maximum screened exact exchange              ....  0.842294
   Range separation parameter mu (erf(mu*r12)/r12)        ....  0.300000
 RI-approximation to the Coulomb term is turned on
   Number of AuxJ basis functions       .... 857
   RIJ-COSX (HFX calculated with COS-X)).... on


General Settings:
 Integral files         IntName         .... 6_deprot
 Hartree-Fock type      HFTyp           .... RHF
 Total Charge           Charge          ....    0
 Multiplicity           Mult            ....    1
 Number of Electrons    NEL             ....  100
 Basis Dimension        Dim             ....  523
 Nuclear Repulsion      ENuc            ....    853.8791023069 Eh

Convergence Acceleration:
 DIIS                   CNVDIIS         .... on
   Start iteration      DIISMaxIt       ....     0
   Startup error        DIISStart       ....  0.200000
   # of expansion vecs  DIISMaxEq       ....     5
   Bias factor          DIISBfac        ....   1.050
   Max. coefficient     DIISMaxC        ....  10.000
 Trust-Rad. Augm. Hess. CNVTRAH         .... auto
   Auto Start mean grad. ratio tolernc. ....  1.125000
   Auto Start start iteration           ....    20
   Auto Start num. interpolation iter.  ....    10
   Max. Number of Micro iterations      ....    16
   Max. Number of Macro iterations      .... Maxiter - #DIIS iter
   Number of Davidson start vectors     ....     2
   Converg. threshold I  (grad. norm)   ....   1.000e-05
   Converg. threshold II (energy diff.) ....   1.000e-08
   Grad. Scal. Fac. for Micro threshold ....   0.100
   Minimum threshold for Micro iter.    ....   0.010
   NR start threshold (gradient norm)   ....   0.001
   Initial trust radius                 ....   0.400
   Minimum AH scaling param. (alpha)    ....   1.000
   Maximum AH scaling param. (alpha)    .... 1000.000
   Orbital update algorithm             .... Taylor
   White noise on init. David. guess    .... on
   Maximum white noise                  ....   0.010
   Quad. conv. algorithm                .... NR
 SOSCF                  CNVSOSCF        .... on
   Start iteration      SOSCFMaxIt      ....   150
   Startup grad/error   SOSCFStart      ....  0.001000
 Level Shifting         CNVShift        .... on
   Level shift para.    LevelShift      ....    0.2500
   Turn off err/grad.   ShiftErr        ....    0.0000
 Zerner damping         CNVZerner       .... off
 Static damping         CNVDamp         .... on
   Fraction old density DampFac         ....    0.8500
   Max. Damping (<1)    DampMax         ....    0.9800
   Min. Damping (>=0)   DampMin         ....    0.0000
   Turn off err/grad.   DampErr         ....    0.0300
 Fernandez-Rico         CNVRico         .... off

SCF Procedure:
 Maximum # iterations   MaxIter         ....   125
 SCF integral mode      SCFMode         .... Direct
   Integral package                     .... SHARK and LIBINT hybrid scheme
 Reset frequency        DirectResetFreq ....    20
 Integral Threshold     Thresh          ....  2.500e-11 Eh
 Primitive CutOff       TCut            ....  2.500e-12 Eh

Convergence Tolerance:
 Convergence Check Mode ConvCheckMode   .... Total+1el-Energy
 Convergence forced     ConvForced      .... 0
 Energy Change          TolE            ....  1.000e-08 Eh
 1-El. energy change                    ....  1.000e-05 Eh
 Orbital Gradient       TolG            ....  1.000e-05
 Orbital Rotation angle TolX            ....  1.000e-05
 DIIS Error             TolErr          ....  5.000e-07


Diagonalization of the overlap matrix:
Smallest eigenvalue                        ... 3.404e-05
Time for diagonalization                   ...    0.062 sec
Threshold for overlap eigenvalues          ... 1.000e-08
Number of eigenvalues below threshold      ... 0
Time for construction of square roots      ...    0.031 sec
Total time needed                          ...    0.095 sec

Time for model grid setup =    0.347 sec

------------------------------
INITIAL GUESS: MODEL POTENTIAL
------------------------------
Loading Hartree-Fock densities                     ... done
Calculating cut-offs                               ... done
Initializing the effective Hamiltonian             ... done
Setting up the integral package (SHARK)            ... done
Starting the Coulomb interaction                   ... done (   0.7 sec)
Reading the grid                                   ... done
Mapping shells                                     ... done
Starting the XC term evaluation                    ... done (   0.5 sec)
  promolecular density results
     # of electrons  =     99.994605886
     EX              =    -75.269883263
     EC              =     -3.304350817
     EX+EC           =    -78.574234080
Transforming the Hamiltonian                       ... done (   0.0 sec)
Diagonalizing the Hamiltonian                      ... done (   0.1 sec)
Back transforming the eigenvectors                 ... done (   0.0 sec)
Now organizing SCF variables                       ... done
                      ------------------
                      INITIAL GUESS DONE (   1.6 sec)
                      ------------------
-------------------
DFT GRID GENERATION
-------------------

General Integration Accuracy     IntAcc      ... 4.388
Radial Grid Type                 RadialGrid  ... OptM3 with GC (2021)
Angular Grid (max. ang.)         AngularGrid ... 4 (Lebedev-302)
Angular grid pruning method      GridPruning ... 4 (adaptive)
Weight generation scheme         WeightScheme... Becke
Basis function cutoff            BFCut       ... 1.0000e-11
Integration weight cutoff        WCut        ... 1.0000e-14
Angular grids for H and He will be reduced by one unit
Partially contracted basis set               ... off
Rotationally invariant grid construction     ... off

Total number of grid points                  ...   141296
Total number of batches                      ...     2224
Average number of points per batch           ...       63
Average number of grid points per atom       ...     4282
Time for grid setup =    1.420 sec

--------------------
COSX GRID GENERATION
--------------------

GRIDX 1
-------
General Integration Accuracy     IntAcc      ... 3.816
Radial Grid Type                 RadialGrid  ... OptM3 with GC (2021)
Angular Grid (max. ang.)         AngularGrid ... 1 (Lebedev-50)
Angular grid pruning method      GridPruning ... 4 (adaptive)
Weight generation scheme         WeightScheme... Becke
Basis function cutoff            BFCut       ... 1.0000e-11
Integration weight cutoff        WCut        ... 1.0000e-14
Angular grids for H and He will be reduced by one unit
Partially contracted basis set               ... on
Rotationally invariant grid construction     ... off

Total number of grid points                  ...    18080
Total number of batches                      ...      301
Average number of points per batch           ...       60
Average number of grid points per atom       ...      548
UseSFitting                                  ... on

GRIDX 2
-------
General Integration Accuracy     IntAcc      ... 4.020
Radial Grid Type                 RadialGrid  ... OptM3 with GC (2021)
Angular Grid (max. ang.)         AngularGrid ... 2 (Lebedev-110)
Angular grid pruning method      GridPruning ... 4 (adaptive)
Weight generation scheme         WeightScheme... Becke
Basis function cutoff            BFCut       ... 1.0000e-11
Integration weight cutoff        WCut        ... 1.0000e-14
Angular grids for H and He will be reduced by one unit
Partially contracted basis set               ... on
Rotationally invariant grid construction     ... off

Total number of grid points                  ...    37631
Total number of batches                      ...      604
Average number of points per batch           ...       62
Average number of grid points per atom       ...     1140
UseSFitting                                  ... on

GRIDX 3
-------
General Integration Accuracy     IntAcc      ... 4.338
Radial Grid Type                 RadialGrid  ... OptM3 with GC (2021)
Angular Grid (max. ang.)         AngularGrid ... 3 (Lebedev-194)
Angular grid pruning method      GridPruning ... 4 (adaptive)
Weight generation scheme         WeightScheme... Becke
Basis function cutoff            BFCut       ... 1.0000e-11
Integration weight cutoff        WCut        ... 1.0000e-14
Angular grids for H and He will be reduced by one unit
Partially contracted basis set               ... on
Rotationally invariant grid construction     ... off

Total number of grid points                  ...    81719
Total number of batches                      ...     1294
Average number of points per batch           ...       63
Average number of grid points per atom       ...     2476
UseSFitting                                  ... on

Time for X-Grid setup             =    1.964 sec

--------------
SCF ITERATIONS
--------------
ITER       Energy         Delta-E        Max-DP      RMS-DP      [F,P]     Damp
               ***  Starting incremental Fock matrix formation  ***
  0   -540.3742972677   0.000000000000 0.03133644  0.00033960  0.1772149 0.8500
  1   -540.4537189760  -0.079421708351 0.03889951  0.00034327  0.1422176 0.8500
                               ***Turning on DIIS***
  2   -540.5137933693  -0.060074393289 0.03599747  0.00028690  0.1086463 0.8500
  3   -540.5580109416  -0.044217572272 0.02971688  0.00021671  0.0819069 0.8500
  4   -540.5918746462  -0.033863704652 0.02488448  0.00017247  0.0651301 0.8500
  5   -540.6184141420  -0.026539495746 0.02143848  0.00014421  0.0538754 0.8500
  6   -540.6399123237  -0.021498181733 0.01871245  0.00012305  0.0453594 0.8500
  7   -540.6576618951  -0.017749571346 0.01656705  0.00010626  0.0384627 0.8500
  8   -540.6724848253  -0.014822930271 0.01458303  0.00009159  0.0325652 0.8500
  9   -540.6849015276  -0.012416702223 0.08466575  0.00052333  0.0275119 0.0000
 10   -540.7520951845  -0.067193656936 0.00138925  0.00001844  0.0012635 0.0000
                      *** Initiating the SOSCF procedure ***
                           *** Shutting down DIIS ***
                      *** Re-Reading the Fockian *** 
                      *** Removing any level shift *** 
ITER      Energy       Delta-E        Grad      Rot      Max-DP    RMS-DP
 11   -540.75212123  -0.0000260409  0.000462  0.000462  0.001714  0.000010
               *** Restarting incremental Fock matrix formation ***
 12   -540.75213273  -0.0000115057  0.000266  0.000624  0.001374  0.000015
 13   -540.75213391  -0.0000011740  0.000121  0.000583  0.000828  0.000008
 14   -540.75213414  -0.0000002379  0.000039  0.000044  0.000348  0.000004
 15   -540.75213421  -0.0000000691  0.000005  0.000007  0.000109  0.000001
 16   -540.75213421   0.0000000055  0.000003  0.000007  0.000041  0.000000
                  ***Gradient check signals convergence***
              ***Rediagonalizing the Fockian in SOSCF/NRSCF***

               *****************************************************
               *                     SUCCESS                       *
               *           SCF CONVERGED AFTER  17 CYCLES          *
               *****************************************************

Old exchange energy                            =    -25.331019164 Eh
New exchange energy                            =    -25.331002967 Eh
Exchange energy change after final integration =      0.000016197 Eh
Total energy after final integration           =   -540.752118037 Eh
Final COS-X integration done in                =    63.562 sec

----------------
TOTAL SCF ENERGY
----------------

Total Energy       :         -540.75211804 Eh          -14714.61321 eV

Components:
Nuclear Repulsion  :          853.87910231 Eh           23235.23163 eV
Electronic Energy  :        -1394.63122034 Eh          -37949.84484 eV
One Electron Energy:        -2423.96787999 Eh          -65959.51933 eV
Two Electron Energy:         1029.33665964 Eh           28009.67449 eV
Max COSX asymmetry :            0.00000092 Eh               0.00003 eV

Virial components:
Potential Energy   :        -1078.69833227 Eh          -29352.87389 eV
Kinetic Energy     :          537.94621423 Eh           14638.26068 eV
Virial Ratio       :            2.00521596


DFT components:
N(Alpha)           :       50.000122310376 electrons
N(Beta)            :       50.000122310376 electrons
N(Total)           :      100.000244620753 electrons
E(XC)              :      -55.644635467041 Eh       
DFET-embed. en.    :        0.000000000000 Eh       

---------------
SCF CONVERGENCE
---------------

  Last Energy change         ...   -2.7950e-08  Tolerance :   1.0000e-08
  Last MAX-Density change    ...    1.2212e-15  Tolerance :   1.0000e-07
  Last RMS-Density change    ...    1.2824e-17  Tolerance :   5.0000e-09
  Last Orbital Gradient      ...    1.2461e-06  Tolerance :   1.0000e-05
  Last Orbital Rotation      ...    4.3877e-06  Tolerance :   1.0000e-05

             **** THE GBW FILE WAS UPDATED (6_deprot.gbw) ****
             **** DENSITY 6_deprot.scfp WAS UPDATED ****
             **** ENERGY FILE WAS UPDATED (6_deprot.en.tmp) ****
             **** THE GBW FILE WAS UPDATED (6_deprot.gbw) ****
             **** DENSITY 6_deprot.scfp WAS UPDATED ****
----------------
ORBITAL ENERGIES
----------------

  NO   OCC          E(Eh)            E(eV) 
   0   2.0000     -14.420829      -392.4107 
   1   2.0000     -14.420668      -392.4063 
   2   2.0000     -10.293890      -280.1110 
   3   2.0000     -10.293651      -280.1045 
   4   2.0000     -10.277728      -279.6712 
   5   2.0000     -10.276964      -279.6504 
   6   2.0000     -10.265700      -279.3439 
   7   2.0000     -10.265671      -279.3431 
   8   2.0000     -10.245412      -278.7918 
   9   2.0000     -10.243903      -278.7508 
  10   2.0000     -10.242858      -278.7223 
  11   2.0000     -10.236788      -278.5572 
  12   2.0000     -10.236627      -278.5528 
  13   2.0000      -1.141879       -31.0721 
  14   2.0000      -1.039825       -28.2951 
  15   2.0000      -0.940315       -25.5873 
  16   2.0000      -0.907294       -24.6887 
  17   2.0000      -0.892556       -24.2877 
  18   2.0000      -0.851307       -23.1652 
  19   2.0000      -0.809848       -22.0371 
  20   2.0000      -0.809397       -22.0248 
  21   2.0000      -0.790902       -21.5215 
  22   2.0000      -0.766406       -20.8550 
  23   2.0000      -0.699381       -19.0311 
  24   2.0000      -0.678851       -18.4725 
  25   2.0000      -0.645287       -17.5591 
  26   2.0000      -0.619541       -16.8586 
  27   2.0000      -0.583435       -15.8761 
  28   2.0000      -0.557782       -15.1780 
  29   2.0000      -0.553589       -15.0639 
  30   2.0000      -0.551658       -15.0114 
  31   2.0000      -0.538307       -14.6481 
  32   2.0000      -0.535839       -14.5809 
  33   2.0000      -0.525063       -14.2877 
  34   2.0000      -0.513040       -13.9605 
  35   2.0000      -0.510660       -13.8958 
  36   2.0000      -0.508335       -13.8325 
  37   2.0000      -0.494184       -13.4474 
  38   2.0000      -0.488075       -13.2812 
  39   2.0000      -0.485668       -13.2157 
  40   2.0000      -0.473353       -12.8806 
  41   2.0000      -0.464423       -12.6376 
  42   2.0000      -0.459850       -12.5132 
  43   2.0000      -0.450593       -12.2613 
  44   2.0000      -0.439291       -11.9537 
  45   2.0000      -0.438159       -11.9229 
  46   2.0000      -0.429913       -11.6985 
  47   2.0000      -0.355259        -9.6671 
  48   2.0000      -0.302297        -8.2259 
  49   2.0000      -0.299082        -8.1384 
  50   0.0000       0.102660         2.7935 
  51   0.0000       0.118621         3.2278 
  52   0.0000       0.127540         3.4705 
  53   0.0000       0.128636         3.5004 
  54   0.0000       0.136826         3.7232 
  55   0.0000       0.151109         4.1119 
  56   0.0000       0.159869         4.3502 
  57   0.0000       0.160267         4.3611 
  58   0.0000       0.170911         4.6507 
  59   0.0000       0.176480         4.8023 
  60   0.0000       0.179549         4.8858 
  61   0.0000       0.183505         4.9934 
  62   0.0000       0.202036         5.4977 
  63   0.0000       0.205686         5.5970 
  64   0.0000       0.206876         5.6294 
  65   0.0000       0.207517         5.6468 
  66   0.0000       0.210790         5.7359 
  67   0.0000       0.216521         5.8918 
  68   0.0000       0.222342         6.0502 
  69   0.0000       0.223115         6.0713 
  70   0.0000       0.231392         6.2965 
  71   0.0000       0.240962         6.5569 
  72   0.0000       0.242630         6.6023 
  73   0.0000       0.246173         6.6987 
  74   0.0000       0.251841         6.8529 
  75   0.0000       0.265567         7.2264 
  76   0.0000       0.269250         7.3267 
  77   0.0000       0.272008         7.4017 
  78   0.0000       0.273222         7.4348 
  79   0.0000       0.286129         7.7860 
  80   0.0000       0.294381         8.0105 
  81   0.0000       0.296929         8.0798 
  82   0.0000       0.307935         8.3793 
  83   0.0000       0.309822         8.4307 
  84   0.0000       0.324876         8.8403 
  85   0.0000       0.328761         8.9460 
  86   0.0000       0.335395         9.1266 
  87   0.0000       0.338208         9.2031 
  88   0.0000       0.342385         9.3168 
  89   0.0000       0.344779         9.3819 
  90   0.0000       0.350649         9.5416 
  91   0.0000       0.374011        10.1774 
  92   0.0000       0.376070        10.2334 
  93   0.0000       0.399840        10.8802 
  94   0.0000       0.403693        10.9850 
  95   0.0000       0.405023        11.0212 
  96   0.0000       0.414683        11.2841 
  97   0.0000       0.422802        11.5050 
  98   0.0000       0.428158        11.6508 
  99   0.0000       0.432267        11.7626 
 100   0.0000       0.442380        12.0378 
 101   0.0000       0.459564        12.5054 
 102   0.0000       0.470599        12.8057 
 103   0.0000       0.471426        12.8281 
 104   0.0000       0.479614        13.0510 
 105   0.0000       0.482648        13.1335 
 106   0.0000       0.491613        13.3775 
 107   0.0000       0.495786        13.4910 
 108   0.0000       0.505133        13.7454 
 109   0.0000       0.508198        13.8288 
 110   0.0000       0.514259        13.9937 
 111   0.0000       0.519194        14.1280 
 112   0.0000       0.521336        14.1863 
 113   0.0000       0.529642        14.4123 
 114   0.0000       0.533970        14.5301 
 115   0.0000       0.538039        14.6408 
 116   0.0000       0.547979        14.9113 
 117   0.0000       0.549001        14.9391 
 118   0.0000       0.554874        15.0989 
 119   0.0000       0.561289        15.2734 
 120   0.0000       0.562125        15.2962 
 121   0.0000       0.565549        15.3894 
 122   0.0000       0.567396        15.4396 
 123   0.0000       0.569291        15.4912 
 124   0.0000       0.572350        15.5744 
 125   0.0000       0.578612        15.7448 
 126   0.0000       0.583252        15.8711 
 127   0.0000       0.588373        16.0104 
 128   0.0000       0.594117        16.1667 
 129   0.0000       0.595717        16.2103 
 130   0.0000       0.609164        16.5762 
 131   0.0000       0.613292        16.6885 
 132   0.0000       0.619640        16.8613 
 133   0.0000       0.622249        16.9323 
 134   0.0000       0.631545        17.1852 
 135   0.0000       0.658267        17.9124 
 136   0.0000       0.658565        17.9205 
 137   0.0000       0.667988        18.1769 
 138   0.0000       0.674723        18.3602 
 139   0.0000       0.682481        18.5712 
 140   0.0000       0.698891        19.0178 
 141   0.0000       0.701647        19.0928 
 142   0.0000       0.718650        19.5555 
 143   0.0000       0.721887        19.6436 
 144   0.0000       0.726057        19.7570 
 145   0.0000       0.732495        19.9322 
 146   0.0000       0.748543        20.3689 
 147   0.0000       0.759742        20.6736 
 148   0.0000       0.780058        21.2265 
 149   0.0000       0.796354        21.6699 
 150   0.0000       0.809519        22.0281 
 151   0.0000       0.816972        22.2309 
 152   0.0000       0.835507        22.7353 
 153   0.0000       0.840272        22.8650 
 154   0.0000       0.846136        23.0245 
 155   0.0000       0.856392        23.3036 
 156   0.0000       0.859214        23.3804 
 157   0.0000       0.895896        24.3786 
 158   0.0000       0.900496        24.5037 
 159   0.0000       0.910400        24.7733 
 160   0.0000       0.923253        25.1230 
 161   0.0000       0.941506        25.6197 
 162   0.0000       0.948335        25.8055 
 163   0.0000       0.959158        26.1000 
 164   0.0000       0.965976        26.2855 
 165   0.0000       0.969161        26.3722 
 166   0.0000       0.981379        26.7047 
 167   0.0000       0.992045        26.9949 
 168   0.0000       1.011803        27.5326 
 169   0.0000       1.029507        28.0143 
 170   0.0000       1.032783        28.1035 
 171   0.0000       1.047206        28.4959 
 172   0.0000       1.066470        29.0201 
 173   0.0000       1.072499        29.1842 
 174   0.0000       1.084526        29.5115 
 175   0.0000       1.095159        29.8008 
 176   0.0000       1.100351        29.9421 
 177   0.0000       1.104136        30.0451 
 178   0.0000       1.122506        30.5449 
 179   0.0000       1.135487        30.8982 
 180   0.0000       1.139094        30.9963 
 181   0.0000       1.143700        31.1217 
 182   0.0000       1.145552        31.1721 
 183   0.0000       1.153771        31.3957 
 184   0.0000       1.180722        32.1291 
 185   0.0000       1.200253        32.6605 
 186   0.0000       1.206370        32.8270 
 187   0.0000       1.206654        32.8347 
 188   0.0000       1.223072        33.2815 
 189   0.0000       1.227721        33.4080 
 190   0.0000       1.230922        33.4951 
 191   0.0000       1.249196        33.9923 
 192   0.0000       1.272846        34.6359 
 193   0.0000       1.274050        34.6687 
 194   0.0000       1.296491        35.2793 
 195   0.0000       1.310351        35.6565 
 196   0.0000       1.318481        35.8777 
 197   0.0000       1.321643        35.9637 
 198   0.0000       1.324974        36.0544 
 199   0.0000       1.347352        36.6633 
 200   0.0000       1.357767        36.9467 
 201   0.0000       1.366569        37.1862 
 202   0.0000       1.391535        37.8656 
 203   0.0000       1.403495        38.1910 
 204   0.0000       1.424462        38.7616 
 205   0.0000       1.431592        38.9556 
 206   0.0000       1.445561        39.3357 
 207   0.0000       1.466140        39.8957 
 208   0.0000       1.487626        40.4804 
 209   0.0000       1.521617        41.4053 
 210   0.0000       1.546436        42.0807 
 211   0.0000       1.574455        42.8431 
 212   0.0000       1.587379        43.1948 
 213   0.0000       1.596823        43.4518 
 214   0.0000       1.603652        43.6376 
 215   0.0000       1.616352        43.9832 
 216   0.0000       1.629494        44.3408 
 217   0.0000       1.637391        44.5557 
 218   0.0000       1.646393        44.8006 
 219   0.0000       1.652727        44.9730 
 220   0.0000       1.656460        45.0746 
 221   0.0000       1.661278        45.2057 
 222   0.0000       1.666278        45.3417 
 223   0.0000       1.669994        45.4428 
 224   0.0000       1.673494        45.5381 
 225   0.0000       1.675629        45.5962 
 226   0.0000       1.677129        45.6370 
 227   0.0000       1.686836        45.9011 
 228   0.0000       1.699654        46.2499 
 229   0.0000       1.709588        46.5203 
 230   0.0000       1.711551        46.5737 
 231   0.0000       1.715178        46.6724 
 232   0.0000       1.725222        46.9457 
 233   0.0000       1.728680        47.0398 
 234   0.0000       1.737523        47.2804 
 235   0.0000       1.742614        47.4189 
 236   0.0000       1.751512        47.6611 
 237   0.0000       1.768866        48.1333 
 238   0.0000       1.771217        48.1973 
 239   0.0000       1.793121        48.7933 
 240   0.0000       1.798383        48.9365 
 241   0.0000       1.806357        49.1535 
 242   0.0000       1.809594        49.2416 
 243   0.0000       1.834962        49.9319 
 244   0.0000       1.837519        50.0014 
 245   0.0000       1.843915        50.1755 
 246   0.0000       1.859786        50.6073 
 247   0.0000       1.876223        51.0546 
 248   0.0000       1.881861        51.2080 
 249   0.0000       1.885314        51.3020 
 250   0.0000       1.890186        51.4346 
 251   0.0000       1.897412        51.6312 
 252   0.0000       1.927617        52.4531 
 253   0.0000       1.947821        53.0029 
 254   0.0000       1.954539        53.1857 
 255   0.0000       1.957015        53.2531 
 256   0.0000       1.968501        53.5656 
 257   0.0000       1.987745        54.0893 
 258   0.0000       2.029333        55.2210 
 259   0.0000       2.033190        55.3259 
 260   0.0000       2.038817        55.4790 
 261   0.0000       2.056638        55.9640 
 262   0.0000       2.067826        56.2684 
 263   0.0000       2.075144        56.4675 
 264   0.0000       2.078523        56.5595 
 265   0.0000       2.103374        57.2357 
 266   0.0000       2.113119        57.5009 
 267   0.0000       2.126066        57.8532 
 268   0.0000       2.149671        58.4955 
 269   0.0000       2.163858        58.8816 
 270   0.0000       2.174966        59.1838 
 271   0.0000       2.209286        60.1177 
 272   0.0000       2.214824        60.2684 
 273   0.0000       2.226181        60.5775 
 274   0.0000       2.245968        61.1159 
 275   0.0000       2.253461        61.3198 
 276   0.0000       2.254153        61.3386 
 277   0.0000       2.286047        62.2065 
 278   0.0000       2.294181        62.4278 
 279   0.0000       2.297779        62.5258 
 280   0.0000       2.309537        62.8457 
 281   0.0000       2.325679        63.2850 
 282   0.0000       2.339820        63.6697 
 283   0.0000       2.343905        63.7809 
 284   0.0000       2.351593        63.9901 
 285   0.0000       2.381887        64.8144 
 286   0.0000       2.394315        65.1526 
 287   0.0000       2.398232        65.2592 
 288   0.0000       2.409713        65.5716 
 289   0.0000       2.415148        65.7195 
 290   0.0000       2.422075        65.9080 
 291   0.0000       2.435670        66.2779 
 292   0.0000       2.447195        66.5916 
 293   0.0000       2.462797        67.0161 
 294   0.0000       2.469203        67.1904 
 295   0.0000       2.469869        67.2086 
 296   0.0000       2.473917        67.3187 
 297   0.0000       2.477282        67.4103 
 298   0.0000       2.494748        67.8855 
 299   0.0000       2.502175        68.0876 
 300   0.0000       2.505501        68.1782 
 301   0.0000       2.515236        68.4431 
 302   0.0000       2.521003        68.6000 
 303   0.0000       2.541423        69.1556 
 304   0.0000       2.555481        69.5382 
 305   0.0000       2.571275        69.9680 
 306   0.0000       2.578074        70.1530 
 307   0.0000       2.583927        70.3122 
 308   0.0000       2.594425        70.5979 
 309   0.0000       2.604163        70.8629 
 310   0.0000       2.606623        70.9298 
 311   0.0000       2.622645        71.3658 
 312   0.0000       2.626397        71.4679 
 313   0.0000       2.631381        71.6035 
 314   0.0000       2.641326        71.8741 
 315   0.0000       2.664651        72.5089 
 316   0.0000       2.667423        72.5843 
 317   0.0000       2.681999        72.9809 
 318   0.0000       2.682473        72.9938 
 319   0.0000       2.686704        73.1089 
 320   0.0000       2.695491        73.3480 
 321   0.0000       2.699554        73.4586 
 322   0.0000       2.708136        73.6921 
 323   0.0000       2.723267        74.1039 
 324   0.0000       2.725792        74.1726 
 325   0.0000       2.728365        74.2426 
 326   0.0000       2.751488        74.8718 
 327   0.0000       2.763309        75.1935 
 328   0.0000       2.788633        75.8826 
 329   0.0000       2.790192        75.9250 
 330   0.0000       2.796932        76.1084 
 331   0.0000       2.804768        76.3216 
 332   0.0000       2.829697        77.0000 
 333   0.0000       2.838941        77.2515 
 334   0.0000       2.843647        77.3796 
 335   0.0000       2.847939        77.4963 
 336   0.0000       2.852264        77.6140 
 337   0.0000       2.871281        78.1315 
 338   0.0000       2.874452        78.2178 
 339   0.0000       2.882678        78.4417 
 340   0.0000       2.891178        78.6730 
 341   0.0000       2.910213        79.1909 
 342   0.0000       2.934856        79.8615 
 343   0.0000       2.940145        80.0054 
 344   0.0000       2.967472        80.7490 
 345   0.0000       2.982984        81.1711 
 346   0.0000       2.989583        81.3507 
 347   0.0000       3.002011        81.6889 
 348   0.0000       3.038363        82.6781 
 349   0.0000       3.039894        82.7197 
 350   0.0000       3.051260        83.0290 
 351   0.0000       3.062455        83.3336 
 352   0.0000       3.092169        84.1422 
 353   0.0000       3.101662        84.4005 
 354   0.0000       3.128910        85.1420 
 355   0.0000       3.138155        85.3935 
 356   0.0000       3.161666        86.0333 
 357   0.0000       3.166024        86.1519 
 358   0.0000       3.178572        86.4933 
 359   0.0000       3.184269        86.6484 
 360   0.0000       3.194556        86.9283 
 361   0.0000       3.200730        87.0963 
 362   0.0000       3.205706        87.2317 
 363   0.0000       3.235878        88.0527 
 364   0.0000       3.237244        88.0899 
 365   0.0000       3.248523        88.3968 
 366   0.0000       3.258839        88.6775 
 367   0.0000       3.268002        88.9268 
 368   0.0000       3.277718        89.1912 
 369   0.0000       3.288350        89.4805 
 370   0.0000       3.291357        89.5624 
 371   0.0000       3.303588        89.8952 
 372   0.0000       3.312570        90.1396 
 373   0.0000       3.317219        90.2661 
 374   0.0000       3.320311        90.3503 
 375   0.0000       3.328939        90.5850 
 376   0.0000       3.331304        90.6494 
 377   0.0000       3.335449        90.7622 
 378   0.0000       3.340698        90.9050 
 379   0.0000       3.347593        91.0926 
 380   0.0000       3.352655        91.2304 
 381   0.0000       3.370514        91.7163 
 382   0.0000       3.380945        92.0002 
 383   0.0000       3.389751        92.2398 
 384   0.0000       3.394261        92.3625 
 385   0.0000       3.399599        92.5078 
 386   0.0000       3.410667        92.8090 
 387   0.0000       3.417952        93.0072 
 388   0.0000       3.419105        93.0386 
 389   0.0000       3.421548        93.1051 
 390   0.0000       3.428134        93.2843 
 391   0.0000       3.459439        94.1361 
 392   0.0000       3.463338        94.2422 
 393   0.0000       3.471970        94.4771 
 394   0.0000       3.473580        94.5209 
 395   0.0000       3.480826        94.7181 
 396   0.0000       3.504821        95.3710 
 397   0.0000       3.515648        95.6657 
 398   0.0000       3.528093        96.0043 
 399   0.0000       3.546005        96.4917 
 400   0.0000       3.551493        96.6410 
 401   0.0000       3.557042        96.7920 
 402   0.0000       3.561368        96.9097 
 403   0.0000       3.610786        98.2545 
 404   0.0000       3.620180        98.5101 
 405   0.0000       3.626498        98.6820 
 406   0.0000       3.644115        99.1614 
 407   0.0000       3.652111        99.3790 
 408   0.0000       3.662029        99.6489 
 409   0.0000       3.675960       100.0279 
 410   0.0000       3.680329       100.1469 
 411   0.0000       3.691341       100.4465 
 412   0.0000       3.692084       100.4667 
 413   0.0000       3.698363       100.6376 
 414   0.0000       3.711313       100.9900 
 415   0.0000       3.733286       101.5879 
 416   0.0000       3.734614       101.6240 
 417   0.0000       3.765550       102.4658 
 418   0.0000       3.774197       102.7011 
 419   0.0000       3.784487       102.9811 
 420   0.0000       3.794644       103.2575 
 421   0.0000       3.797026       103.3223 
 422   0.0000       3.815588       103.8274 
 423   0.0000       3.838231       104.4436 
 424   0.0000       3.852569       104.8337 
 425   0.0000       3.857971       104.9807 
 426   0.0000       3.893732       105.9538 
 427   0.0000       3.908522       106.3563 
 428   0.0000       3.919309       106.6498 
 429   0.0000       3.939835       107.2084 
 430   0.0000       3.949814       107.4799 
 431   0.0000       3.957961       107.7016 
 432   0.0000       4.012299       109.1802 
 433   0.0000       4.015099       109.2564 
 434   0.0000       4.037408       109.8634 
 435   0.0000       4.062202       110.5381 
 436   0.0000       4.070866       110.7739 
 437   0.0000       4.093062       111.3779 
 438   0.0000       4.108037       111.7854 
 439   0.0000       4.113338       111.9296 
 440   0.0000       4.117396       112.0400 
 441   0.0000       4.135270       112.5264 
 442   0.0000       4.149700       112.9191 
 443   0.0000       4.163193       113.2862 
 444   0.0000       4.165410       113.3466 
 445   0.0000       4.196844       114.2019 
 446   0.0000       4.205914       114.4487 
 447   0.0000       4.223825       114.9361 
 448   0.0000       4.233088       115.1882 
 449   0.0000       4.266384       116.0942 
 450   0.0000       4.278951       116.4362 
 451   0.0000       4.328808       117.7929 
 452   0.0000       4.346790       118.2822 
 453   0.0000       4.383260       119.2746 
 454   0.0000       4.405376       119.8764 
 455   0.0000       4.441643       120.8632 
 456   0.0000       4.447666       121.0271 
 457   0.0000       4.454149       121.2035 
 458   0.0000       4.468878       121.6043 
 459   0.0000       4.483905       122.0133 
 460   0.0000       4.491271       122.2137 
 461   0.0000       4.495003       122.3152 
 462   0.0000       4.497006       122.3698 
 463   0.0000       4.503653       122.5506 
 464   0.0000       4.509674       122.7145 
 465   0.0000       4.525125       123.1349 
 466   0.0000       4.534245       123.3831 
 467   0.0000       4.552765       123.8870 
 468   0.0000       4.594991       125.0361 
 469   0.0000       4.609349       125.4268 
 470   0.0000       4.625477       125.8656 
 471   0.0000       4.684008       127.4583 
 472   0.0000       4.686547       127.5274 
 473   0.0000       4.718414       128.3946 
 474   0.0000       4.744269       129.0981 
 475   0.0000       4.769649       129.7887 
 476   0.0000       4.817547       131.0921 
 477   0.0000       4.914789       133.7382 
 478   0.0000       4.946552       134.6025 
 479   0.0000       4.951677       134.7420 
 480   0.0000       4.958053       134.9155 
 481   0.0000       4.966241       135.1383 
 482   0.0000       4.987523       135.7174 
 483   0.0000       4.989224       135.7637 
 484   0.0000       5.089386       138.4892 
 485   0.0000       5.112027       139.1053 
 486   0.0000       5.120120       139.3256 
 487   0.0000       5.140488       139.8798 
 488   0.0000       5.146837       140.0526 
 489   0.0000       5.228115       142.2642 
 490   0.0000       5.244823       142.7189 
 491   0.0000       5.328361       144.9921 
 492   0.0000       5.369561       146.1132 
 493   0.0000       5.376331       146.2974 
 494   0.0000       5.419281       147.4661 
 495   0.0000       5.425065       147.6235 
 496   0.0000       5.441559       148.0723 
 497   0.0000       5.516780       150.1192 
 498   0.0000       5.558985       151.2677 
 499   0.0000       5.602188       152.4433 
 500   0.0000       5.641324       153.5082 
 501   0.0000       5.757113       156.6590 
 502   0.0000       5.819048       158.3444 
 503   0.0000       5.897564       160.4809 
 504   0.0000       5.992539       163.0653 
 505   0.0000       6.010216       163.5463 
 506   0.0000       6.122246       166.5948 
 507   0.0000       6.161919       167.6744 
 508   0.0000       6.222320       169.3179 
 509   0.0000       6.331721       172.2949 
 510   0.0000      22.382918       609.0702 
 511   0.0000      22.414986       609.9428 
 512   0.0000      22.424846       610.2111 
 513   0.0000      22.426757       610.2631 
 514   0.0000      22.464273       611.2840 
 515   0.0000      22.534331       613.1903 
 516   0.0000      22.664142       616.7226 
 517   0.0000      22.770334       619.6123 
 518   0.0000      22.835743       621.3922 
 519   0.0000      23.036699       626.8604 
 520   0.0000      23.491804       639.2445 
 521   0.0000      33.065819       899.7667 
 522   0.0000      33.260393       905.0613 

                    ********************************
                    * MULLIKEN POPULATION ANALYSIS *
                    ********************************

-----------------------
MULLIKEN ATOMIC CHARGES
-----------------------
   0 C :    0.003004
   1 C :   -0.001177
   2 C :   -0.273652
   3 N :    0.008568
   4 N :    0.006613
   5 C :   -0.353390
   6 C :   -0.349744
   7 H :    0.113033
   8 H :    0.113474
   9 H :    0.142018
  10 H :    0.135194
  11 H :    0.140876
  12 H :    0.131708
  13 C :   -0.350279
  14 C :   -0.327451
  15 C :   -0.349602
  16 C :   -0.331245
  17 C :   -0.044020
  18 C :   -0.044478
  19 H :    0.113761
  20 H :    0.112339
  21 H :    0.107337
  22 H :    0.111073
  23 H :    0.108356
  24 H :    0.144318
  25 H :    0.135648
  26 H :    0.145627
  27 H :    0.137460
  28 H :    0.110285
  29 H :    0.114712
  30 H :    0.109856
  31 H :    0.089893
  32 H :    0.089886
[...]
     46       0.001280  -0.000301   0.008747
     47       0.001001  -0.000103   0.003306
     48       0.000637  -0.014871  -0.000649
     49       0.001423  -0.045565  -0.002869
     50      -0.002571   0.076910   0.004334
     51       0.000047   0.000539   0.000058
     52      -0.000349  -0.004919  -0.000358
     53       0.000836   0.011785   0.000793
     54       0.000577  -0.000288   0.005338
     55       0.001034  -0.000414   0.009036
     56       0.000600  -0.000262   0.005295
     57      -0.000641  -0.011335  -0.000952
     58       0.003585   0.065246   0.005339
     59       0.000403   0.007443   0.000589
     60       0.015939   0.025514  -0.372594
     61      -0.001367  -0.002202   0.035258
     62      -0.001569  -0.002632   0.038537
     63       0.002083  -0.000179   0.007058
     64       0.000322  -0.000013   0.000781
     65      -0.007196   0.000593  -0.026120
     66      -0.011941   0.315171   0.016057
     67       0.002448  -0.065051  -0.003446
     68       0.006704  -0.174455  -0.008799
     69      -0.001156  -0.025471  -0.002322
     70      -0.000718  -0.014508  -0.001325
     71      -0.000532  -0.015789  -0.001468
     72       0.011111   0.020278  -0.348298
     73       0.021264   0.039269  -0.668346
     74       0.013027   0.024512  -0.419778
     75      -0.007173   0.001476  -0.039091
     76      -0.012318   0.002457  -0.063453
     77      -0.007126   0.001382  -0.036094
     78       0.002676  -0.089550  -0.005159
     79      -0.010643   0.332856   0.019214
     80       0.024757  -0.783890  -0.045652
     81      -0.000321  -0.001371  -0.000068
     82       0.003677   0.040257   0.003044
     83      -0.008499  -0.093148  -0.007105
     84      -0.002661  -0.004538   0.095447
     85       0.006060   0.010269  -0.227664
     86      -0.003124  -0.005467   0.117958
     87       0.001636  -0.000523   0.019371
     88      -0.003703   0.001242  -0.045495
     89       0.001958  -0.000673   0.023269
     90       0.001621  -0.050272  -0.003335
     91      -0.008829   0.283965   0.019208
     92      -0.001013   0.032559   0.002024
     93      -0.000340  -0.010229  -0.000697
     94       0.004610   0.050346   0.003514
     95      -0.009483  -0.126803  -0.008626
     96      -0.006656   0.002591  -0.053290
     97      -0.012166   0.004520  -0.095529
     98      -0.006235   0.002954  -0.060336


-----------
IR SPECTRUM
-----------

 Mode   freq       eps      Int      T**2         TX        TY        TZ
       cm**-1   L/(mol*cm) km/mol    a.u.
----------------------------------------------------------------------------
  6:     19.80   0.000038    0.19  0.000606  (-0.023553  0.002186  0.006831)
  7:     49.80   0.000080    0.40  0.000502  (-0.021557  0.003089  0.005273)
  8:     83.92   0.000691    3.49  0.002568  ( 0.046461  0.011284 -0.016800)
  9:    110.52   0.000005    0.03  0.000015  (-0.002773 -0.000724  0.002545)
 10:    149.18   0.000151    0.76  0.000316  ( 0.004666  0.004214  0.016618)
 11:    167.48   0.000051    0.26  0.000096  (-0.006803 -0.005798  0.003984)
 12:    207.57   0.000054    0.27  0.000081  (-0.003688 -0.007910  0.002128)
 13:    211.65   0.000017    0.09  0.000025  ( 0.000840  0.004786 -0.001302)
 14:    222.81   0.000088    0.44  0.000123  ( 0.001277 -0.010692  0.002688)
 15:    230.43   0.000022    0.11  0.000030  (-0.000340 -0.005098  0.001861)
 16:    234.58   0.000462    2.33  0.000614  ( 0.001017 -0.023783  0.006890)
 17:    260.51   0.000009    0.04  0.000010  ( 0.001047 -0.002997  0.000456)
 18:    269.41   0.000006    0.03  0.000007  ( 0.000398 -0.002676  0.000080)
 19:    277.37   0.000087    0.44  0.000098  (-0.009528  0.001943  0.001901)
 20:    288.95   0.000024    0.12  0.000026  ( 0.001135  0.002184  0.004504)
 21:    322.79   0.000337    1.70  0.000326  ( 0.000908 -0.017811  0.002809)
 22:    329.25   0.000085    0.43  0.000080  (-0.003882  0.002302 -0.007743)
 23:    389.77   0.001321    6.68  0.001058  ( 0.029578  0.007422 -0.011298)
 24:    428.36   0.000666    3.37  0.000485  ( 0.020425 -0.006966 -0.004412)
 25:    471.03   0.000140    0.71  0.000093  (-0.002697 -0.002903 -0.008789)
 26:    488.29   0.000017    0.09  0.000011  (-0.001250 -0.000895 -0.002932)
 27:    549.09   0.000416    2.10  0.000236  ( 0.002121 -0.014879  0.003233)
 28:    616.42   0.000739    3.74  0.000374  (-0.005524 -0.004470 -0.017994)
 29:    637.30   0.000163    0.82  0.000080  (-0.004163  0.007892 -0.000304)
 30:    666.39   0.000238    1.20  0.000111  ( 0.007425 -0.007486  0.000224)
 31:    695.39   0.000003    0.01  0.000001  ( 0.000363 -0.000110  0.001038)
 32:    743.91   0.001198    6.05  0.000502  ( 0.006221  0.005747  0.020752)
 33:    811.77   0.000710    3.59  0.000273  ( 0.005925 -0.015224  0.002428)
 34:    910.52   0.000124    0.63  0.000042  ( 0.001575  0.002584  0.005767)
 35:    929.57   0.000908    4.59  0.000305  (-0.006859  0.015924 -0.002027)
 36:    941.93   0.000165    0.84  0.000055  (-0.005500 -0.004924 -0.000518)
 37:    945.32   0.000216    1.09  0.000071  ( 0.003373  0.004413 -0.006368)
 38:    967.03   0.000005    0.03  0.000002  (-0.001254  0.000014  0.000201)
 39:    969.28   0.000015    0.07  0.000005  ( 0.002086 -0.000433 -0.000452)
 40:    981.91   0.000631    3.19  0.000201  (-0.003740 -0.003727 -0.013139)
 41:   1065.86   0.000023    0.11  0.000007  (-0.001806 -0.001754  0.000562)
 42:   1082.79   0.000468    2.36  0.000135  ( 0.001961 -0.011228  0.002198)
 43:   1083.79   0.000066    0.34  0.000019  (-0.001202  0.002574 -0.003322)
 44:   1104.37   0.000835    4.22  0.000236  ( 0.004036  0.005583  0.013732)
 45:   1148.99   0.000446    2.26  0.000121  (-0.003468  0.000536 -0.010437)
 46:   1151.02   0.006895   34.85  0.001869  ( 0.009529 -0.041485  0.007591)
 47:   1173.12   0.001298    6.56  0.000345  ( 0.012586  0.011868 -0.006784)
 48:   1175.90   0.000079    0.40  0.000021  ( 0.001038  0.002749 -0.003501)
 49:   1191.54   0.000737    3.72  0.000193  (-0.010814  0.008610  0.001360)
 50:   1226.55   0.000113    0.57  0.000029  ( 0.001712  0.001327  0.004909)
 51:   1230.41   0.000477    2.41  0.000121  (-0.001621  0.010634 -0.002292)
 52:   1342.38   0.001233    6.23  0.000287  ( 0.004953  0.003995  0.015692)
 53:   1365.34   0.000115    0.58  0.000026  ( 0.002728  0.001289 -0.004156)
 54:   1367.68   0.000193    0.98  0.000044  ( 0.002684  0.005845  0.001649)
 55:   1374.33   0.007694   38.88  0.001747  ( 0.014673 -0.038548  0.006771)
 56:   1411.74   0.003522   17.80  0.000779  ( 0.027631 -0.002640 -0.002861)
 57:   1413.39   0.004667   23.58  0.001030  ( 0.025894 -0.015725 -0.010609)
 58:   1414.20   0.003030   15.31  0.000669  (-0.004398  0.016122 -0.019733)
 59:   1415.69   0.008559   43.25  0.001887  (-0.002185  0.043115 -0.004800)
 60:   1423.19   0.005537   27.98  0.001214  (-0.003581  0.032253  0.012690)
 61:   1424.60   0.005872   29.67  0.001286  ( 0.018926 -0.022555  0.020477)
 62:   1439.67   0.002377   12.01  0.000515  (-0.003235  0.022168 -0.003638)
 63:   1444.13   0.001804    9.12  0.000390  (-0.005834 -0.001062 -0.018831)
 64:   1457.19   0.002635   13.32  0.000564  ( 0.003638 -0.022095  0.007929)
 65:   1463.92   0.008265   41.77  0.001762  (-0.012036 -0.013688 -0.037811)
 66:   1480.56   0.000340    1.72  0.000072  (-0.008029  0.002350  0.001298)
 67:   1482.38   0.000516    2.61  0.000109  ( 0.009966 -0.001657 -0.002574)
 68:   1486.49   0.000317    1.60  0.000067  (-0.007323 -0.000421  0.003583)
 69:   1489.53   0.001603    8.10  0.000336  (-0.017564  0.000078  0.005229)
 70:   1492.64   0.000444    2.24  0.000093  (-0.004577 -0.000531  0.008462)
 71:   1492.74   0.001657    8.37  0.000346  (-0.017067  0.001781  0.007206)
 72:   1498.14   0.001137    5.75  0.000237  (-0.002469  0.013174 -0.007561)
 73:   1499.45   0.002172   10.98  0.000452  ( 0.007702  0.011110  0.016408)
 74:   1502.41   0.001093    5.52  0.000227  (-0.007440 -0.004456 -0.012323)
 75:   1506.03   0.000994    5.02  0.000206  ( 0.000564  0.000168  0.014339)
 76:   1516.28   0.001445    7.30  0.000297  ( 0.005534  0.015608 -0.004812)
 77:   1517.81   0.000223    1.13  0.000046  (-0.001881  0.001014 -0.006429)
 78:   1745.34   0.000119    0.60  0.000021  ( 0.001203  0.000852  0.004370)
 79:   3061.69   0.010596   53.55  0.001080  ( 0.012173 -0.029930  0.006002)
 80:   3063.17   0.003709   18.74  0.000378  (-0.018224  0.003697  0.005660)
 81:   3063.34   0.003366   17.01  0.000343  (-0.009988 -0.006639 -0.014107)
 82:   3063.75   0.003532   17.85  0.000360  (-0.015259  0.003813  0.010601)
 83:   3074.11   0.004498   22.73  0.000457  (-0.009408 -0.018665 -0.004436)
 84:   3074.96   0.004090   20.67  0.000415  ( 0.000515  0.009275 -0.018132)
 85:   3091.15   0.004364   22.05  0.000441  ( 0.007076  0.019523  0.003059)
 86:   3094.18   0.003622   18.31  0.000365  (-0.001061  0.010731 -0.015781)
 87:   3120.11   0.002264   11.44  0.000226  (-0.014541 -0.000959  0.003746)
 88:   3120.51   0.002987   15.09  0.000299  (-0.016272 -0.001730  0.005560)
 89:   3140.99   0.005414   27.36  0.000538  ( 0.000391 -0.008163  0.021704)
 90:   3142.20   0.004887   24.69  0.000485  (-0.011213 -0.015893 -0.010344)
 91:   3149.99   0.004638   23.44  0.000459  ( 0.007195 -0.014903 -0.013624)
 92:   3150.50   0.001620    8.19  0.000160  ( 0.009478  0.004906  0.006824)
 93:   3152.45   0.013359   67.51  0.001322  ( 0.018184 -0.030695  0.007042)
 94:   3152.70   0.000558    2.82  0.000055  (-0.004572  0.005856 -0.000133)
 95:   3159.24   0.003450   17.44  0.000341  ( 0.003465 -0.018119  0.000709)
 96:   3164.03   0.004095   20.69  0.000404  (-0.005995 -0.002747 -0.018983)
 97:   3170.90   0.003111   15.72  0.000306  (-0.004355 -0.011606  0.012351)
 98:   3172.99   0.002623   13.25  0.000258  ( 0.008830  0.013295  0.001791)

* The epsilon (eps) is given for a Dirac delta lineshape.
** The dipole moment derivative (T) already includes vibrational overlap.

The first frequency considered to be a vibration is 6
The total number of vibrations considered is 93


--------------------------
THERMOCHEMISTRY AT 298.15K
--------------------------

Temperature         ... 298.15 K
Pressure            ... 1.00 atm
Total Mass          ... 180.29 AMU

Throughout the following assumptions are being made:
  (1) The electronic state is orbitally nondegenerate
  (2) There are no thermally accessible electronically excited states
  (3) Hindered rotations indicated by low frequency modes are not
      treated as such but are treated as vibrations and this may
      cause some error
  (4) All equations used are the standard statistical mechanics
      equations for an ideal gas
  (5) All vibrations are strictly harmonic

freq.      19.80  E(vib)   ...       0.56 
freq.      49.80  E(vib)   ...       0.52 
freq.      83.92  E(vib)   ...       0.48 
freq.     110.52  E(vib)   ...       0.45 
freq.     149.18  E(vib)   ...       0.40 
freq.     167.48  E(vib)   ...       0.38 
freq.     207.57  E(vib)   ...       0.34 
freq.     211.65  E(vib)   ...       0.34 
freq.     222.81  E(vib)   ...       0.33 
freq.     230.43  E(vib)   ...       0.32 
freq.     234.58  E(vib)   ...       0.32 
freq.     260.51  E(vib)   ...       0.30 
freq.     269.41  E(vib)   ...       0.29 
freq.     277.37  E(vib)   ...       0.28 
freq.     288.95  E(vib)   ...       0.27 
freq.     322.79  E(vib)   ...       0.25 
freq.     329.25  E(vib)   ...       0.24 
freq.     389.77  E(vib)   ...       0.20 
freq.     428.36  E(vib)   ...       0.18 
freq.     471.03  E(vib)   ...       0.15 
freq.     488.29  E(vib)   ...       0.15 
freq.     549.09  E(vib)   ...       0.12 
freq.     616.42  E(vib)   ...       0.09 
freq.     637.30  E(vib)   ...       0.09 
freq.     666.39  E(vib)   ...       0.08 
freq.     695.39  E(vib)   ...       0.07 
freq.     743.91  E(vib)   ...       0.06 
freq.     811.77  E(vib)   ...       0.05 
freq.     910.52  E(vib)   ...       0.03 
freq.     929.57  E(vib)   ...       0.03 
freq.     941.93  E(vib)   ...       0.03 
freq.     945.32  E(vib)   ...       0.03 
freq.     967.03  E(vib)   ...       0.03 
freq.     969.28  E(vib)   ...       0.03 
freq.     981.91  E(vib)   ...       0.02 
freq.    1065.86  E(vib)   ...       0.02 
freq.    1082.79  E(vib)   ...       0.02 
freq.    1083.79  E(vib)   ...       0.02 
freq.    1104.37  E(vib)   ...       0.02 
freq.    1148.99  E(vib)   ...       0.01 
freq.    1151.02  E(vib)   ...       0.01 
freq.    1173.12  E(vib)   ...       0.01 
freq.    1175.90  E(vib)   ...       0.01 
freq.    1191.54  E(vib)   ...       0.01 
freq.    1226.55  E(vib)   ...       0.01 
freq.    1230.41  E(vib)   ...       0.01 
freq.    1342.38  E(vib)   ...       0.01 
freq.    1365.34  E(vib)   ...       0.01 
freq.    1367.68  E(vib)   ...       0.01 
freq.    1374.33  E(vib)   ...       0.01 
freq.    1411.74  E(vib)   ...       0.00 
freq.    1413.39  E(vib)   ...       0.00 
freq.    1414.20  E(vib)   ...       0.00 
freq.    1415.69  E(vib)   ...       0.00 
freq.    1423.19  E(vib)   ...       0.00 
freq.    1424.60  E(vib)   ...       0.00 
freq.    1439.67  E(vib)   ...       0.00 
freq.    1444.13  E(vib)   ...       0.00 
freq.    1457.19  E(vib)   ...       0.00 
freq.    1463.92  E(vib)   ...       0.00 
freq.    1480.56  E(vib)   ...       0.00 
freq.    1482.38  E(vib)   ...       0.00 
freq.    1486.49  E(vib)   ...       0.00 
freq.    1489.53  E(vib)   ...       0.00 
freq.    1492.64  E(vib)   ...       0.00 
freq.    1492.74  E(vib)   ...       0.00 
freq.    1498.14  E(vib)   ...       0.00 
freq.    1499.45  E(vib)   ...       0.00 
freq.    1502.41  E(vib)   ...       0.00 
freq.    1506.03  E(vib)   ...       0.00 
freq.    1516.28  E(vib)   ...       0.00 
freq.    1517.81  E(vib)   ...       0.00 
freq.    1745.34  E(vib)   ...       0.00 
freq.    3061.69  E(vib)   ...       0.00 
freq.    3063.17  E(vib)   ...       0.00 
freq.    3063.34  E(vib)   ...       0.00 
freq.    3063.75  E(vib)   ...       0.00 
freq.    3074.11  E(vib)   ...       0.00 
freq.    3074.96  E(vib)   ...       0.00 
freq.    3091.15  E(vib)   ...       0.00 
freq.    3094.18  E(vib)   ...       0.00 
freq.    3120.11  E(vib)   ...       0.00 
freq.    3120.51  E(vib)   ...       0.00 
freq.    3140.99  E(vib)   ...       0.00 
freq.    3142.20  E(vib)   ...       0.00 
freq.    3149.99  E(vib)   ...       0.00 
freq.    3150.50  E(vib)   ...       0.00 
freq.    3152.45  E(vib)   ...       0.00 
freq.    3152.70  E(vib)   ...       0.00 
freq.    3159.24  E(vib)   ...       0.00 
freq.    3164.03  E(vib)   ...       0.00 
freq.    3170.90  E(vib)   ...       0.00 
freq.    3172.99  E(vib)   ...       0.00 

------------
INNER ENERGY
------------

The inner energy is: U= E(el) + E(ZPE) + E(vib) + E(rot) + E(trans)
    E(el)   - is the total energy from the electronic structure calculation
              = E(kin-el) + E(nuc-el) + E(el-el) + E(nuc-nuc)
    E(ZPE)  - the the zero temperature vibrational energy from the frequency calculation
    E(vib)  - the the finite temperature correction to E(ZPE) due to population
              of excited vibrational states
    E(rot)  - is the rotational thermal energy
    E(trans)- is the translational thermal energy

Summary of contributions to the inner energy U:
Electronic energy                ...   -540.75916471 Eh
Zero point energy                ...      0.29858552 Eh     187.36 kcal/mol
Thermal vibrational correction   ...      0.01239158 Eh       7.78 kcal/mol
Thermal rotational correction    ...      0.00141627 Eh       0.89 kcal/mol
Thermal translational correction ...      0.00141627 Eh       0.89 kcal/mol
-----------------------------------------------------------------------
Total thermal energy                   -540.44535506 Eh


Summary of corrections to the electronic energy:
(perhaps to be used in another calculation)
Total thermal correction                  0.01522413 Eh       9.55 kcal/mol
Non-thermal (ZPE) correction              0.29858552 Eh     187.36 kcal/mol
-----------------------------------------------------------------------
Total correction                          0.31380964 Eh     196.92 kcal/mol


--------
ENTHALPY
--------

The enthalpy is H = U + kB*T
                kB is Boltzmann's constant
Total free energy                 ...   -540.44535506 Eh 
Thermal Enthalpy correction       ...      0.00094421 Eh       0.59 kcal/mol
-----------------------------------------------------------------------
Total Enthalpy                    ...   -540.44441085 Eh


Note: Only C1 symmetry has been detected, increase convergence thresholds 
      if your molecule has a higher symmetry. Symmetry factor of 1.0 is   
      used for the rotational entropy correction. 
 

Note: Rotational entropy computed according to Herzberg 
Infrared and Raman Spectra, Chapter V,1, Van Nostrand Reinhold, 1945 
Point Group:  C1, Symmetry Number:   1  
Rotational constants in cm-1:     0.036518     0.019533     0.014966 

Vibrational entropy computed according to the QRRHO of S. Grimme
Chem.Eur.J. 2012 18 9955


-------
ENTROPY
-------

The entropy contributions are T*S = T*(S(el)+S(vib)+S(rot)+S(trans))
     S(el)   - electronic entropy
     S(vib)  - vibrational entropy
     S(rot)  - rotational entropy
     S(trans)- translational entropy
The entropies will be listed as multiplied by the temperature to get
units of energy

Electronic entropy                ...      0.00000000 Eh      0.00 kcal/mol
Vibrational entropy               ...      0.02172135 Eh     13.63 kcal/mol
Rotational entropy                ...      0.01491512 Eh      9.36 kcal/mol
Translational entropy             ...      0.01970603 Eh     12.37 kcal/mol
-----------------------------------------------------------------------
Final entropy term                ...      0.05634250 Eh     35.36 kcal/mol

In case the symmetry of your molecule has not been determined correctly
or in case you have a reason to use a different symmetry number we print 
out the resulting rotational entropy values for sn=1,12 :
 --------------------------------------------------------
|  sn= 1 | S(rot)=       0.01491512 Eh      9.36 kcal/mol|
|  sn= 2 | S(rot)=       0.01426066 Eh      8.95 kcal/mol|
|  sn= 3 | S(rot)=       0.01387783 Eh      8.71 kcal/mol|
|  sn= 4 | S(rot)=       0.01360621 Eh      8.54 kcal/mol|
|  sn= 5 | S(rot)=       0.01339552 Eh      8.41 kcal/mol|
|  sn= 6 | S(rot)=       0.01322338 Eh      8.30 kcal/mol|
|  sn= 7 | S(rot)=       0.01307783 Eh      8.21 kcal/mol|
|  sn= 8 | S(rot)=       0.01295175 Eh      8.13 kcal/mol|
|  sn= 9 | S(rot)=       0.01284054 Eh      8.06 kcal/mol|
|  sn=10 | S(rot)=       0.01274106 Eh      8.00 kcal/mol|
|  sn=11 | S(rot)=       0.01265107 Eh      7.94 kcal/mol|
|  sn=12 | S(rot)=       0.01256892 Eh      7.89 kcal/mol|
 --------------------------------------------------------


-------------------
GIBBS FREE ENERGY
-------------------

The Gibbs free energy is G = H - T*S

Total enthalpy                    ...   -540.44441085 Eh 
Total entropy correction          ...     -0.05634250 Eh    -35.36 kcal/mol
-----------------------------------------------------------------------
Final Gibbs free energy         ...   -540.50075336 Eh

For completeness - the Gibbs free energy minus the electronic energy
G-E(el)                           ...      0.25841135 Eh    162.16 kcal/mol


Timings for individual modules:

Sum of individual times         ...     5495.959 sec (=  91.599 min)
GTO integral calculation        ...        5.886 sec (=   0.098 min)   0.1 %
SCF iterations                  ...     1442.624 sec (=  24.044 min)  26.2 %
SCF Gradient evaluation         ...      369.872 sec (=   6.165 min)   6.7 %
Geometry relaxation             ...        0.381 sec (=   0.006 min)   0.0 %
Analytical frequency calculation...     3677.195 sec (=  61.287 min)  66.9 %
                             ****ORCA TERMINATED NORMALLY****
TOTAL RUN TIME: 0 days 1 hours 31 minutes 38 seconds 598 msec
