
                                 *****************
                                 * O   R   C   A *
                                 *****************

                                            #,                                       
                                            ###                                      
                                            ####                                     
                                            #####                                    
                                            ######                                   
                                           ########,                                 
                                     ,,################,,,,,                         
                               ,,#################################,,                 
                          ,,##########################################,,             
                       ,#########################################, ''#####,          
                    ,#############################################,,   '####,        
                  ,##################################################,,,,####,       
                ,###########''''           ''''###############################       
              ,#####''   ,,,,##########,,,,          '''####'''          '####       
            ,##' ,,,,###########################,,,                        '##       
           ' ,,###''''                  '''############,,,                           
         ,,##''                                '''############,,,,        ,,,,,,###''
      ,#''                                            '''#######################'''  
     '                                                          ''''####''''         
             ,#######,   #######,   ,#######,      ##                                
            ,#'     '#,  ##    ##  ,#'     '#,    #''#        ######   ,####,        
            ##       ##  ##   ,#'  ##            #'  '#       #        #'  '#        
            ##       ##  #######   ##           ,######,      #####,   #    #        
            '#,     ,#'  ##    ##  '#,     ,#' ,#      #,         ##   #,  ,#        
             '#######'   ##     ##  '#######'  #'      '#     #####' # '####'        



                  #######################################################
                  #                        -***-                        #
                  #          Department of theory and spectroscopy      #
                  #    Directorship and core code : Frank Neese         #
                  #        Max Planck Institute fuer Kohlenforschung    #
                  #                Kaiser Wilhelm Platz 1               #
                  #                 D-45470 Muelheim/Ruhr               #
                  #                      Germany                        #
                  #                                                     #
                  #                  All rights reserved                #
                  #                        -***-                        #
                  #######################################################


                         Program Version 5.0.4 -  RELEASE  -


 With contributions from (in alphabetic order):
   Daniel Aravena         : Magnetic Suceptibility
   Michael Atanasov       : Ab Initio Ligand Field Theory (pilot matlab implementation)
   Alexander A. Auer      : GIAO ZORA, VPT2 properties, NMR spectrum
   Ute Becker             : Parallelization
   Giovanni Bistoni       : ED, misc. LED, open-shell LED, HFLD
   Martin Brehm           : Molecular dynamics
   Dmytro Bykov           : SCF Hessian
   Vijay G. Chilkuri      : MRCI spin determinant printing, contributions to CSF-ICE
   Dipayan Datta          : RHF DLPNO-CCSD density
   Achintya Kumar Dutta   : EOM-CC, STEOM-CC
   Dmitry Ganyushin       : Spin-Orbit,Spin-Spin,Magnetic field MRCI
   Miquel Garcia          : C-PCM and meta-GGA Hessian, CC/C-PCM, Gaussian charge scheme
   Yang Guo               : DLPNO-NEVPT2, F12-NEVPT2, CIM, IAO-localization
   Andreas Hansen         : Spin unrestricted coupled pair/coupled cluster methods
   Benjamin Helmich-Paris : MC-RPA, TRAH-SCF, COSX integrals
   Lee Huntington         : MR-EOM, pCC
   Robert Izsak           : Overlap fitted RIJCOSX, COSX-SCS-MP3, EOM
   Marcus Kettner         : VPT2
   Christian Kollmar      : KDIIS, OOCD, Brueckner-CCSD(T), CCSD density, CASPT2, CASPT2-K
   Simone Kossmann        : Meta GGA functionals, TD-DFT gradient, OOMP2, MP2 Hessian
   Martin Krupicka        : Initial AUTO-CI
   Lucas Lang             : DCDCAS
   Marvin Lechner         : AUTO-CI (C++ implementation), FIC-MRCC
   Dagmar Lenk            : GEPOL surface, SMD
   Dimitrios Liakos       : Extrapolation schemes; Compound Job, initial MDCI parallelization
   Dimitrios Manganas     : Further ROCIS development; embedding schemes
   Dimitrios Pantazis     : SARC Basis sets
   Anastasios Papadopoulos: AUTO-CI, single reference methods and gradients
   Taras Petrenko         : DFT Hessian,TD-DFT gradient, ASA, ECA, R-Raman, ABS, FL, XAS/XES, NRVS
   Peter Pinski           : DLPNO-MP2, DLPNO-MP2 Gradient
   Christoph Reimann      : Effective Core Potentials
   Marius Retegan         : Local ZFS, SOC
   Christoph Riplinger    : Optimizer, TS searches, QM/MM, DLPNO-CCSD(T), (RO)-DLPNO pert. Triples
   Tobias Risthaus        : Range-separated hybrids, TD-DFT gradient, RPA, STAB
   Michael Roemelt        : Original ROCIS implementation
   Masaaki Saitow         : Open-shell DLPNO-CCSD energy and density
   Barbara Sandhoefer     : DKH picture change effects
   Avijit Sen             : IP-ROCIS
   Kantharuban Sivalingam : CASSCF convergence, NEVPT2, FIC-MRCI
   Bernardo de Souza      : ESD, SOC TD-DFT
   Georgi Stoychev        : AutoAux, RI-MP2 NMR, DLPNO-MP2 response
   Willem Van den Heuvel  : Paramagnetic NMR
   Boris Wezisla          : Elementary symmetry handling
   Frank Wennmohs         : Technical directorship


 We gratefully acknowledge several colleagues who have allowed us to
 interface, adapt or use parts of their codes:
   Stefan Grimme, W. Hujo, H. Kruse, P. Pracht,  : VdW corrections, initial TS optimization,
                  C. Bannwarth, S. Ehlert          DFT functionals, gCP, sTDA/sTD-DF
   Ed Valeev, F. Pavosevic, A. Kumar             : LibInt (2-el integral package), F12 methods
   Garnet Chan, S. Sharma, J. Yang, R. Olivares  : DMRG
   Ulf Ekstrom                                   : XCFun DFT Library
   Mihaly Kallay                                 : mrcc  (arbitrary order and MRCC methods)
   Jiri Pittner, Ondrej Demel                    : Mk-CCSD
   Frank Weinhold                                : gennbo (NPA and NBO analysis)
   Christopher J. Cramer and Donald G. Truhlar   : smd solvation model
   Lars Goerigk                                  : TD-DFT with DH, B97 family of functionals
   V. Asgeirsson, H. Jonsson                     : NEB implementation
   FAccTs GmbH                                   : IRC, NEB, NEB-TS, DLPNO-Multilevel, CI-OPT
                                                   MM, QMMM, 2- and 3-layer-ONIOM, Crystal-QMMM,
                                                   LR-CPCM, SF, NACMEs, symmetry and pop. for TD-DFT,
                                                   nearIR, NL-DFT gradient (VV10), updates on ESD,
                                                   ML-optimized integration grids
   S Lehtola, MJT Oliveira, MAL Marques          : LibXC Library
   Liviu Ungur et al                             : ANISO software


 Your calculation uses the libint2 library for the computation of 2-el integrals
 For citations please refer to: http://libint.valeyev.net

 Your ORCA version has been built with support for libXC version: 5.1.0
 For citations please refer to: https://tddft.org/programs/libxc/

 This ORCA versions uses:
   CBLAS   interface :  Fast vector & matrix operations
   LAPACKE interface :  Fast linear algebra routines
   SCALAPACK package :  Parallel linear algebra routines
   Shared memory     :  Shared parallel matrices
   BLAS/LAPACK       :  OpenBLAS 0.3.15  USE64BITINT DYNAMIC_ARCH NO_AFFINITY SkylakeX SINGLE_THREADED
        Core in use  :  SkylakeX
   Copyright (c) 2011-2014, The OpenBLAS Project




***************************************
The coordinates will be read from file: 7_deprot.xyz
***************************************


Your calculation utilizes the atom-pairwise dispersion correction
based on tight binding partial charges (D4)
Cite in your paper:
E.Caldeweyher, C.Bannwarth, S.Grimme, J.Chem.Phys., (2017), 147, 034112.
E.Caldeweyher, S.Ehlert, A.Hansen, H.Neugebauer, S.Grimme, J.Chem.Phys., (2018), in progress.
   

XCFun DFT library Copyright 2009-2010 Ulf Ekstrom and contributors.
See http://admol.org/xcfun for more information.
This is free software; see the source code for copying conditions.
There is ABSOLUTELY NO WARRANTY; not even for MERCHANTABILITY or FITNESS FOR A PARTICULAR PURPOSE.
For details see the documentation.
Scientific users of this library should cite U. Ekstrom, L. Visscher, R. Bast, A. J. Thorvaldsen and K. Ruud;
J.Chem.Theor.Comp. 2010, DOI: 10.1021/ct100117s
XCFun Version 0.99 

================================================================================

----- Orbital basis set information -----
Your calculation utilizes the basis: def2-TZVP
   F. Weigend and R. Ahlrichs, Phys. Chem. Chem. Phys. 7, 3297 (2005).

----- AuxJ basis set information -----
Your calculation utilizes the auxiliary basis: def2/J
   F. Weigend, Phys. Chem. Chem. Phys. 8, 1057 (2006).

================================================================================
                                        WARNINGS
                       Please study these warnings very carefully!
================================================================================


WARNING: Geometry Optimization
  ===> : Switching off AutoStart
         For restart on a previous wavefunction, please use MOREAD

INFO   : the flag for use of the SHARK integral package has been found!

================================================================================
                                       INPUT FILE
================================================================================
NAME = 7_deprot.inp
|  1> # ORCA 5.0.4 - /users/bwb16179/postgrad/2024_06/pKa_Reviewer_Comments/Gas_Z=0/7_deprot.inp # write input file
|  2> # Basic Mode
|  3> #
|  4> ! Opt Freq wB97X Def2-TZVP D4 SlowConv TightSCF Defgrid2 Def2/J RIJCOSX 
|  5> 
|  6> %PAL NPROCS 4 END
|  7> 
|  8> %maxcore 4500
|  9> 
| 10> %geom
| 11> Maxiter 150
| 12> END
| 13> 
| 14> * xyzfile 0 1 7_deprot.xyz
| 15> 
| 16>                          ****END OF INPUT****
================================================================================

                       *****************************
                       * Geometry Optimization Run *
                       *****************************

Geometry optimization settings:
Update method            Update   .... BFGS
Choice of coordinates    CoordSys .... Z-matrix Internals
Initial Hessian          InHess   .... Almoef's Model

Convergence Tolerances:
Energy Change            TolE     ....  5.0000e-06 Eh
Max. Gradient            TolMAXG  ....  3.0000e-04 Eh/bohr
RMS Gradient             TolRMSG  ....  1.0000e-04 Eh/bohr
Max. Displacement        TolMAXD  ....  4.0000e-03 bohr
RMS Displacement         TolRMSD  ....  2.0000e-03 bohr
Strict Convergence                ....  False
------------------------------------------------------------------------------
                        ORCA OPTIMIZATION COORDINATE SETUP
------------------------------------------------------------------------------

The optimization will be done in new redundant internal coordinates
Making redundant internal coordinates   ...  (new redundants) done
Evaluating the initial hessian          ...  (Almloef) done
Evaluating the coordinates              ...  done
Calculating the B-matrix                .... done
Calculating the G-matrix                .... done
Diagonalizing the G-matrix              .... done
Small eigenvalue found = 4.364e-03
Small eigenvalue found = 1.596e-02
The first mode is                       ....   71
The number of degrees of freedom        ....   81

    -----------------------------------------------------------------
                    Redundant Internal Coordinates


    -----------------------------------------------------------------
         Definition                    Initial Value    Approx d2E/dq
    -----------------------------------------------------------------
      1. B(C   1,C   0)                  1.3493         0.725435   
      2. B(H   2,C   0)                  1.0867         0.364497   
      3. B(H   3,C   1)                  1.0867         0.364497   
      4. B(C   5,C   4)                  1.3971         0.608740   
      5. B(C   6,C   4)                  1.3957         0.611944   
      6. B(C   7,C   5)                  1.3908         0.622997   
      7. B(H   8,C   5)                  1.0914         0.358286   
      8. B(C   9,C   6)                  1.3942         0.615330   
      9. B(H  10,C   6)                  1.0924         0.356897   
     10. B(C  11,C   9)                  1.3921         0.619912   
     11. B(C  11,C   7)                  1.3953         0.612668   
     12. B(H  12,C   7)                  1.0935         0.355556   
     13. B(H  13,C   9)                  1.0933         0.355713   
     14. B(H  14,C  11)                  1.0931         0.356076   
     15. B(C  16,C  15)                  1.3971         0.608741   
     16. B(C  17,C  15)                  1.3957         0.611945   
     17. B(C  18,C  16)                  1.3908         0.622996   
     18. B(H  19,C  16)                  1.0914         0.358285   
     19. B(C  20,C  17)                  1.3942         0.615330   
     20. B(H  21,C  17)                  1.0924         0.356898   
     21. B(C  22,C  20)                  1.3921         0.619912   
     22. B(C  22,C  18)                  1.3953         0.612668   
     23. B(H  23,C  18)                  1.0935         0.355557   
     24. B(H  24,C  20)                  1.0933         0.355714   
     25. B(H  25,C  22)                  1.0931         0.356078   
     26. B(N  27,C  26)                  1.3618         0.620723   
     27. B(N  27,C   4)                  1.4254         0.491345   
     28. B(N  27,C   0)                  1.3923         0.554823   
     29. B(N  28,C  26)                  1.3618         0.620723   
     30. B(N  28,C  15)                  1.4254         0.491343   
     31. B(N  28,C   1)                  1.3923         0.554823   
     32. A(C   1,C   0,N  27)          106.1879         0.434807   
     33. A(C   1,C   0,H   2)          130.2145         0.363211   
     34. A(H   2,C   0,N  27)          123.5840         0.344942   
     35. A(C   0,C   1,H   3)          130.2146         0.363211   
     36. A(H   3,C   1,N  28)          123.5839         0.344942   
     37. A(C   0,C   1,N  28)          106.1879         0.434807   
     38. A(C   6,C   4,N  27)          120.5705         0.412718   
     39. A(C   5,C   4,N  27)          119.4553         0.412334   
     40. A(C   5,C   4,C   6)          119.9737         0.431622   
     41. A(C   7,C   5,H   8)          121.8049         0.352895   
     42. A(C   4,C   5,H   8)          118.4863         0.351516   
     43. A(C   4,C   5,C   7)          119.7051         0.433013   
     44. A(C   4,C   6,H  10)          120.5027         0.351597   
     45. A(C   9,C   6,H  10)          119.6312         0.351926   
     46. A(C   4,C   6,C   9)          119.8537         0.432458   
     47. A(C  11,C   7,H  12)          120.0464         0.351444   
     48. A(C   5,C   7,H  12)          119.3322         0.352439   
     49. A(C   5,C   7,C  11)          120.6208         0.433514   
     50. A(C   6,C   9,H  13)          119.3818         0.351728   
     51. A(C   6,C   9,C  11)          120.4215         0.433465   
     52. A(C  11,C   9,H  13)          120.1941         0.352169   
     53. A(C   7,C  11,C   9)          119.4217         0.433127   
     54. A(C   9,C  11,H  14)          120.2553         0.352230   
     55. A(C   7,C  11,H  14)          120.3227         0.351531   
     56. A(C  17,C  15,N  28)          120.5705         0.412718   
     57. A(C  16,C  15,C  17)          119.9737         0.431622   
     58. A(C  16,C  15,N  28)          119.4552         0.412333   
     59. A(C  18,C  16,H  19)          121.8049         0.352895   
     60. A(C  15,C  16,H  19)          118.4863         0.351516   
     61. A(C  15,C  16,C  18)          119.7051         0.433013   
     62. A(C  20,C  17,H  21)          119.6313         0.351926   
     63. A(C  15,C  17,H  21)          120.5027         0.351597   
     64. A(C  15,C  17,C  20)          119.8537         0.432458   
     65. A(C  22,C  18,H  23)          120.0464         0.351444   
     66. A(C  16,C  18,H  23)          119.3322         0.352439   
     67. A(C  16,C  18,C  22)          120.6208         0.433514   
     68. A(C  17,C  20,H  24)          119.3817         0.351728   
     69. A(C  17,C  20,C  22)          120.4215         0.433465   
     70. A(C  22,C  20,H  24)          120.1942         0.352169   
     71. A(C  18,C  22,C  20)          119.4218         0.433127   
     72. A(C  20,C  22,H  25)          120.2553         0.352230   
     73. A(C  18,C  22,H  25)          120.3226         0.351531   
     74. A(N  27,C  26,N  28)          102.6087         0.428590   
     75. A(C   4,N  27,C  26)          122.8975         0.411091   
     76. A(C   0,N  27,C  26)          112.5078         0.420072   
     77. A(C   0,N  27,C   4)          124.5945         0.403012   
     78. A(C  15,N  28,C  26)          122.8975         0.411091   
     79. A(C   1,N  28,C  26)          112.5078         0.420072   
     80. A(C   1,N  28,C  15)          124.5945         0.403012   
     81. D(N  28,C   1,C   0,H   2)   -178.6643         0.037297   
     82. D(H   3,C   1,C   0,N  27)   -178.6642         0.037297   
     83. D(N  28,C   1,C   0,N  27)      0.0045         0.037297   
     84. D(H   3,C   1,C   0,H   2)      2.6669         0.037297   
     85. D(H   8,C   5,C   4,C   6)   -179.2409         0.025587   
     86. D(C   7,C   5,C   4,N  27)    179.8121         0.025587   
     87. D(C   7,C   5,C   4,C   6)      0.0714         0.025587   
     88. D(H   8,C   5,C   4,N  27)      0.4998         0.025587   
     89. D(C   9,C   6,C   4,C   5)     -0.5442         0.025872   
     90. D(H  10,C   6,C   4,C   5)    178.1724         0.025872   
     91. D(C   9,C   6,C   4,N  27)    179.7180         0.025872   
     92. D(H  10,C   6,C   4,N  27)     -1.5654         0.025872   
     93. D(C  11,C   7,C   5,H   8)    179.7059         0.026873   
     94. D(H  12,C   7,C   5,H   8)     -0.5872         0.026873   
     95. D(H  12,C   7,C   5,C   4)   -179.8759         0.026873   
     96. D(C  11,C   7,C   5,C   4)      0.4171         0.026873   
     97. D(H  13,C   9,C   6,H  10)      1.2130         0.026176   
     98. D(H  13,C   9,C   6,C   4)    179.9409         0.026176   
     99. D(C  11,C   9,C   6,C   4)      0.5351         0.026176   
    100. D(C  11,C   9,C   6,H  10)   -178.1928         0.026176   
    101. D(H  14,C  11,C   9,H  13)      0.3634         0.026591   
    102. D(H  14,C  11,C   9,C   6)    179.7643         0.026591   
    103. D(C   7,C  11,C   9,C   6)     -0.0512         0.026591   
    104. D(H  14,C  11,C   7,H  12)      0.0524         0.025937   
    105. D(H  14,C  11,C   7,C   5)    179.7573         0.025937   
    106. D(C   7,C  11,C   9,H  13)   -179.4521         0.026591   
    107. D(C   9,C  11,C   7,C   5)     -0.4274         0.025937   
    108. D(C   9,C  11,C   7,H  12)    179.8677         0.025937   
    109. D(C  18,C  16,C  15,C  17)      0.0714         0.025587   
    110. D(C  18,C  16,C  15,N  28)    179.8121         0.025587   
    111. D(H  19,C  16,C  15,C  17)   -179.2409         0.025587   
    112. D(H  19,C  16,C  15,N  28)      0.4998         0.025587   
    113. D(H  21,C  17,C  15,N  28)     -1.5654         0.025873   
    114. D(H  21,C  17,C  15,C  16)    178.1724         0.025873   
    115. D(C  20,C  17,C  15,N  28)    179.7179         0.025873   
    116. D(C  20,C  17,C  15,C  16)     -0.5443         0.025873   
    117. D(H  23,C  18,C  16,H  19)     -0.5873         0.026873   
    118. D(H  23,C  18,C  16,C  15)   -179.8760         0.026873   
    119. D(C  22,C  18,C  16,H  19)    179.7060         0.026873   
    120. D(C  22,C  18,C  16,C  15)      0.4172         0.026873   
    121. D(H  24,C  20,C  17,H  21)      1.2130         0.026176   
    122. D(H  24,C  20,C  17,C  15)    179.9409         0.026176   
    123. D(C  22,C  20,C  17,H  21)   -178.1928         0.026176   
    124. D(C  22,C  20,C  17,C  15)      0.5352         0.026176   
    125. D(H  25,C  22,C  20,H  24)      0.3633         0.026591   
    126. D(H  25,C  22,C  20,C  17)    179.7643         0.026591   
    127. D(C  18,C  22,C  20,H  24)   -179.4520         0.026591   
    128. D(C  18,C  22,C  20,C  17)     -0.0511         0.026591   
    129. D(H  25,C  22,C  18,H  23)      0.0525         0.025937   
    130. D(H  25,C  22,C  18,C  16)    179.7572         0.025937   
    131. D(C  20,C  22,C  18,H  23)    179.8678         0.025937   
    132. D(C  20,C  22,C  18,C  16)     -0.4275         0.025937   
    133. D(C   4,N  27,C  26,N  28)   -179.8336         0.028273   
    134. D(C   0,N  27,C  26,N  28)      0.0015         0.028273   
    135. D(C  26,N  27,C   4,C   6)    156.0939         0.019066   
    136. D(C  26,N  27,C   4,C   5)    -23.6452         0.019066   
    137. D(C   0,N  27,C   4,C   6)    -23.7210         0.019066   
    138. D(C   0,N  27,C   4,C   5)    156.5399         0.019066   
    139. D(C  26,N  27,C   0,H   2)    178.7759         0.024558   
    140. D(C  26,N  27,C   0,C   1)     -0.0039         0.024558   
    141. D(C   4,N  27,C   0,H   2)     -1.3923         0.024558   
    142. D(C   4,N  27,C   0,C   1)    179.8278         0.024558   
    143. D(C  15,N  28,C   1,C   0)    179.8279         0.024558   
    144. D(C  15,N  28,C  26,N  27)   -179.8336         0.028273   
    145. D(C  26,N  28,C  15,C  17)    156.0933         0.019066   
    146. D(C  26,N  28,C  15,C  16)    -23.6458         0.019066   
    147. D(C   1,N  28,C  15,C  17)    -23.7217         0.019066   
    148. D(C   1,N  28,C  15,C  16)    156.5392         0.019066   
    149. D(C  26,N  28,C   1,H   3)    178.7758         0.024558   
    150. D(C   1,N  28,C  26,N  27)      0.0015         0.028273   
    151. D(C  26,N  28,C   1,C   0)     -0.0040         0.024558   
    152. D(C  15,N  28,C   1,H   3)     -1.3924         0.024558   
    -----------------------------------------------------------------

Number of atoms                         .... 29
Number of degrees of freedom            .... 152

         *************************************************************
         *                GEOMETRY OPTIMIZATION CYCLE   1            *
         *************************************************************
---------------------------------
CARTESIAN COORDINATES (ANGSTROEM)
---------------------------------
  C     -0.000554    0.674673   -1.857656
  C      0.000567   -0.674673   -1.857656
  H     -0.020444    1.376283   -2.687268
  H      0.020465   -1.376284   -2.687267
  C      0.001589    2.415319   -0.070441
  C     -0.483118    2.715809    1.204948
  C      0.487753    3.435217   -0.889778
  C     -0.479549    4.033163    1.650873
  H     -0.845849    1.897970    1.829980
  C      0.477637    4.753671   -0.436736
  H      0.896182    3.206383   -1.876808
  C     -0.004365    5.059030    0.833096
  H     -0.858444    4.261185    2.650919
  H      0.861252    5.546450   -1.084599
  H     -0.007474    6.093201    1.187014
  C     -0.001590   -2.415320   -0.070441
  C      0.483121   -2.715810    1.204946
  C     -0.487761   -3.435216   -0.889776
  C      0.479550   -4.033164    1.650872
  H      0.845857   -1.897972    1.829977
  C     -0.477646   -4.753670   -0.436734
  H     -0.896193   -3.206380   -1.876804
  C      0.004361   -5.059030    0.833096
  H      0.858449   -4.261187    2.650916
  H     -0.861265   -5.546447   -1.084596
  H      0.007469   -6.093200    1.187014
  C     -0.000002    0.000000    0.330837
  N     -0.000829    1.062839   -0.520526
  N      0.000831   -1.062839   -0.520526

----------------------------
CARTESIAN COORDINATES (A.U.)
----------------------------
  NO LB      ZA    FRAG     MASS         X           Y           Z
   0 C     6.0000    0    12.011   -0.001047    1.274947   -3.510461
   1 C     6.0000    0    12.011    0.001071   -1.274947   -3.510461
   2 H     1.0000    0     1.008   -0.038634    2.600798   -5.078201
   3 H     1.0000    0     1.008    0.038673   -2.600800   -5.078199
   4 C     6.0000    0    12.011    0.003003    4.564291   -0.133114
   5 C     6.0000    0    12.011   -0.912961    5.132135    2.277022
   6 C     6.0000    0    12.011    0.921720    6.491619   -1.681437
   7 C     6.0000    0    12.011   -0.906216    7.621574    3.119698
   8 H     1.0000    0     1.008   -1.598423    3.586644    3.458161
   9 C     6.0000    0    12.011    0.902603    8.983136   -0.825311
  10 H     1.0000    0     1.008    1.693539    6.059186   -3.546653
  11 C     6.0000    0    12.011   -0.008249    9.560181    1.574323
  12 H     1.0000    0     1.008   -1.622224    8.052473    5.009511
  13 H     1.0000    0     1.008    1.627530   10.481272   -2.049595
  14 H     1.0000    0     1.008   -0.014124   11.514481    2.243131
  15 C     6.0000    0    12.011   -0.003005   -4.564293   -0.133114
  16 C     6.0000    0    12.011    0.912966   -5.132137    2.277018
  17 C     6.0000    0    12.011   -0.921735   -6.491617   -1.681433
  18 C     6.0000    0    12.011    0.906218   -7.621575    3.119696
  19 H     1.0000    0     1.008    1.598438   -3.586647    3.458155
  20 C     6.0000    0    12.011   -0.902620   -8.983134   -0.825308
  21 H     1.0000    0     1.008   -1.693559   -6.059180   -3.546646
  22 C     6.0000    0    12.011    0.008241   -9.560181    1.574323
  23 H     1.0000    0     1.008    1.622234   -8.052476    5.009505
  24 H     1.0000    0     1.008   -1.627555  -10.481266   -2.049589
  25 H     1.0000    0     1.008    0.014114  -11.514479    2.243131
  26 C     6.0000    0    12.011   -0.000004    0.000000    0.625191
  27 N     7.0000    0    14.007   -0.001567    2.008475   -0.983652
  28 N     7.0000    0    14.007    0.001570   -2.008475   -0.983652

--------------------------------
INTERNAL COORDINATES (ANGSTROEM)
--------------------------------
 C      0   0   0     0.000000000000     0.00000000     0.00000000
 C      1   0   0     1.349346465648     0.00000000     0.00000000
 H      1   2   0     1.086696036040   130.21449584     0.00000000
 H      2   1   3     1.086696064705   130.21456407     2.66690031
 C      1   2   3     2.494792685974   134.24362266   178.78188780
 C      5   1   2     1.397087047134   143.48909722   324.13356632
 C      5   1   2     1.395657724827    95.14085514   159.41847948
 C      6   5   1     1.390785175612   119.70508107   197.71504856
 H      6   5   1     1.091375008558   118.48627073    18.40276602
 C      7   5   1     1.394155779436   119.85370779   169.02405839
 H      7   5   1     1.092431905657   120.50272045   347.74068317
 C     10   7   5     1.392136255942   120.42145875     0.53511332
 H      8   6   5     1.093456654662   119.33215019   180.12405917
 H     10   7   5     1.093336854695   119.38175731   179.94085363
 H     12  10   7     1.093058678135   120.25532878   179.76427307
 C      2   1   3     2.494793395751   134.24363847   181.44868319
 C     16   2   1     1.397086609123   143.48882129   324.13263378
 C     16   2   1     1.395657527577    95.14098549   159.41788182
 C     17  16   2     1.390785501374   119.70506328   197.71548755
 H     17  16   2     1.091375348311   118.48634132    18.40320797
 C     18  16   2     1.394155772181   119.85366795   169.02365807
 H     18  16   2     1.092431639190   120.50269519   347.74036469
 C     21  18  16     1.392136382166   120.42145522     0.53515995
 H     19  17  16     1.093456420104   119.33217780   180.12399515
 H     21  18  16     1.093336215413   119.38169694   179.94094630
 H     23  21  18     1.093057729165   120.25533534   179.76425432
 C      1   2   3     2.290127850728    72.86640596   178.66660419
 N     27   1   2     1.361780592320    34.17073574   179.99605439
 N     27   1   2     1.361780595977    68.43792392     0.00000000

---------------------------
INTERNAL COORDINATES (A.U.)
---------------------------
 C      0   0   0     0.000000000000     0.00000000     0.00000000
 C      1   0   0     2.549895279849     0.00000000     0.00000000
 H      1   2   0     2.053557898933   130.21449584     0.00000000
 H      2   1   3     2.053557953103   130.21456407     2.66690031
 C      1   2   3     4.714474937401   134.24362266   178.78188780
 C      5   1   2     2.640111904332   143.48909722   324.13356632
 C      5   1   2     2.637410876614    95.14085514   159.41847948
 C      6   5   1     2.628203093024   119.70508107   197.71504856
 H      6   5   1     2.062399875581   118.48627073    18.40276602
 C      7   5   1     2.634572611158   119.85370779   169.02405839
 H      7   5   1     2.064397121649   120.50272045   347.74068317
 C     10   7   5     2.630756264833   120.42145875     0.53511332
 H      8   6   5     2.066333616625   119.33215019   180.12405917
 H     10   7   5     2.066107227497   119.38175731   179.94085363
 H     12  10   7     2.065581549981   120.25532878   179.76427307
 C      2   1   3     4.714476278685   134.24363847   181.44868319
 C     16   2   1     2.640111076611   143.48882129   324.13263378
 C     16   2   1     2.637410503866    95.14098549   159.41788182
 C     17  16   2     2.628203708626   119.70506328   197.71548755
 H     17  16   2     2.062400517621   118.48634132    18.40320797
 C     18  16   2     2.634572597447   119.85366795   169.02365807
 H     18  16   2     2.064396618100   120.50269519   347.74036469
 C     21  18  16     2.630756503361   120.42145522     0.53515995
 H     19  17  16     2.066333173374   119.33217780   180.12399515
 H     21  18  16     2.066106019429   119.38169694   179.94094630
 H     23  21  18     2.065579756688   120.25533534   179.76425432
 C      1   2   3     4.327714449542    72.86640596   178.66660419
 N     27   1   2     2.573392373974    34.17073574   179.99605439
 N     27   1   2     2.573392380884    68.43792392     0.00000000

---------------------
BASIS SET INFORMATION
---------------------
There are 3 groups of distinct atoms

 Group   1 Type C   : 11s6p2d1f contracted to 5s3p2d1f pattern {62111/411/11/1}
 Group   2 Type H   : 5s1p contracted to 3s1p pattern {311/1}
 Group   3 Type N   : 11s6p2d1f contracted to 5s3p2d1f pattern {62111/411/11/1}

Atom   0C    basis set group =>   1
Atom   1C    basis set group =>   1
Atom   2H    basis set group =>   2
Atom   3H    basis set group =>   2
Atom   4C    basis set group =>   1
Atom   5C    basis set group =>   1
Atom   6C    basis set group =>   1
Atom   7C    basis set group =>   1
Atom   8H    basis set group =>   2
Atom   9C    basis set group =>   1
Atom  10H    basis set group =>   2
Atom  11C    basis set group =>   1
Atom  12H    basis set group =>   2
Atom  13H    basis set group =>   2
Atom  14H    basis set group =>   2
Atom  15C    basis set group =>   1
Atom  16C    basis set group =>   1
Atom  17C    basis set group =>   1
Atom  18C    basis set group =>   1
Atom  19H    basis set group =>   2
Atom  20C    basis set group =>   1
Atom  21H    basis set group =>   2
Atom  22C    basis set group =>   1
Atom  23H    basis set group =>   2
Atom  24H    basis set group =>   2
Atom  25H    basis set group =>   2
Atom  26C    basis set group =>   1
Atom  27N    basis set group =>   3
Atom  28N    basis set group =>   3
---------------------------------
AUXILIARY/J BASIS SET INFORMATION
---------------------------------
There are 3 groups of distinct atoms

 Group   1 Type C   : 12s5p4d2f1g contracted to 6s4p3d1f1g pattern {711111/2111/211/2/1}
 Group   2 Type H   : 5s2p1d contracted to 3s1p1d pattern {311/2/1}
 Group   3 Type N   : 12s5p4d2f1g contracted to 6s4p3d1f1g pattern {711111/2111/211/2/1}

Atom   0C    basis set group =>   1
Atom   1C    basis set group =>   1
Atom   2H    basis set group =>   2
Atom   3H    basis set group =>   2
Atom   4C    basis set group =>   1
Atom   5C    basis set group =>   1
Atom   6C    basis set group =>   1
Atom   7C    basis set group =>   1
Atom   8H    basis set group =>   2
Atom   9C    basis set group =>   1
Atom  10H    basis set group =>   2
Atom  11C    basis set group =>   1
Atom  12H    basis set group =>   2
Atom  13H    basis set group =>   2
Atom  14H    basis set group =>   2
Atom  15C    basis set group =>   1
Atom  16C    basis set group =>   1
Atom  17C    basis set group =>   1
Atom  18C    basis set group =>   1
Atom  19H    basis set group =>   2
Atom  20C    basis set group =>   1
Atom  21H    basis set group =>   2
Atom  22C    basis set group =>   1
Atom  23H    basis set group =>   2
Atom  24H    basis set group =>   2
Atom  25H    basis set group =>   2
Atom  26C    basis set group =>   1
Atom  27N    basis set group =>   3
Atom  28N    basis set group =>   3


           ************************************************************
           *        Program running with 4 parallel MPI-processes     *
           *              working on a common directory               *
           ************************************************************
------------------------------------------------------------------------------
                           ORCA GTO INTEGRAL CALCULATION
                           -- RI-GTO INTEGRALS CHOSEN --
------------------------------------------------------------------------------
------------------------------------------------------------------------------
                   ___                                                        
                  /   \      - P O W E R E D   B Y -                         
                 /     \                                                     
                 |  |  |   _    _      __       _____    __    __             
                 |  |  |  | |  | |    /  \     |  _  \  |  |  /  |          
                  \  \/   | |  | |   /    \    | | | |  |  | /  /          
                 / \  \   | |__| |  /  /\  \   | |_| |  |  |/  /          
                |  |  |   |  __  | /  /__\  \  |    /   |      \           
                |  |  |   | |  | | |   __   |  |    \   |  |\   \          
                \     /   | |  | | |  |  |  |  | |\  \  |  | \   \       
                 \___/    |_|  |_| |__|  |__|  |_| \__\ |__|  \__/        
                                                                              
                      - O R C A' S   B I G   F R I E N D -                    
                                      &                                       
                       - I N T E G R A L  F E E D E R -                       
                                                                              
 v1 FN, 2020, v2 2021                                                         
------------------------------------------------------------------------------


Reading SHARK input file 7_deprot.SHARKINP.tmp ... ok
----------------------
SHARK INTEGRAL PACKAGE
----------------------

Number of atoms                             ...     29
Number of basis functions                   ...    599
Number of shells                            ...    235
Maximum angular momentum                    ...      3
Integral batch strategy                     ... SHARK/LIBINT Hybrid
RI-J (if used) integral strategy            ... SPLIT-RIJ (Revised 2003 algorithm where possible)
Printlevel                                  ...      1
Contraction scheme used                     ... SEGMENTED contraction
Coulomb Range Separation                    ... NOT USED
Exchange Range Separation                   ... Long Range
   Mu parameter                             ...  0.300000
   Scaling (regular/separated)              ...  0.157706  0.842294
Finite Nucleus Model                        ... NOT USED
Auxiliary Coulomb fitting basis             ... AVAILABLE
   # of basis functions in Aux-J            ...    965
   # of shells in Aux-J                     ...    315
   Maximum angular momentum in Aux-J        ...      4
Auxiliary J/K fitting basis                 ... NOT available
Auxiliary Correlation fitting basis         ... NOT available
Auxiliary 'external' fitting basis          ... NOT available
Integral threshold                          ...     2.500000e-11
Primitive cut-off                           ...     2.500000e-12
Primitive pair pre-selection threshold      ...     2.500000e-12

Calculating pre-screening integrals         ... done (  0.1 sec) Dimension = 235
Organizing shell pair data                  ... done (  0.2 sec)
Shell pair information
Total number of shell pairs                 ...     27730
Shell pairs after pre-screening             ...     20169
Total number of primitive shell pairs       ...     85488
Primitive shell pairs kept                  ...     42919
          la=0 lb=0:   5117 shell pairs
          la=1 lb=0:   5739 shell pairs
          la=1 lb=1:   1623 shell pairs
          la=2 lb=0:   2920 shell pairs
          la=2 lb=1:   1650 shell pairs
          la=2 lb=2:    436 shell pairs
          la=3 lb=0:   1387 shell pairs
          la=3 lb=1:    793 shell pairs
          la=3 lb=2:    398 shell pairs
          la=3 lb=3:    106 shell pairs

Calculating one electron integrals          ... done (  0.1 sec)
Calculating RI/J V-Matrix + Cholesky decomp.... done (  0.1 sec)
Calculating Nuclear repulsion               ... done (  0.0 sec) ENN=   1038.655821588136 Eh

SHARK setup successfully completed in   0.9 seconds

Maximum memory used throughout the entire GTOINT-calculation: 33.1 MB


           ************************************************************
           *        Program running with 4 parallel MPI-processes     *
           *              working on a common directory               *
           ************************************************************
-------------------------------------------------------------------------------
                                 ORCA SCF
-------------------------------------------------------------------------------

------------
SCF SETTINGS
------------
Hamiltonian:
 Density Functional     Method          .... DFT(GTOs)
 Exchange Functional    Exchange        .... WB97X
 Correlation Functional Correlation     .... WB97X
 Gradients option       PostSCFGGA      .... off
 Hybrid DFT is turned on
   Fraction HF Exchange ScalHFX         ....  0.157706
   Scaling of DF-GGA-X  ScalDFX         ....  0.000000
   Scaling of DF-GGA-C  ScalDFC         ....  1.000000
   Scaling of DF-LDA-C  ScalLDAC        ....  1.000000
   Perturbative correction              ....  0.000000
   Density functional embedding theory  .... OFF
 Long-range corrected/Screened/Range-Separated Hybrid DFT is turned on
   Amount of maximum screened exact exchange              ....  0.842294
   Range separation parameter mu (erf(mu*r12)/r12)        ....  0.300000
 RI-approximation to the Coulomb term is turned on
   Number of AuxJ basis functions       .... 965
   RIJ-COSX (HFX calculated with COS-X)).... on


General Settings:
 Integral files         IntName         .... 7_deprot
 Hartree-Fock type      HFTyp           .... RHF
 Total Charge           Charge          ....    0
 Multiplicity           Mult            ....    1
 Number of Electrons    NEL             ....  116
 Basis Dimension        Dim             ....  599
 Nuclear Repulsion      ENuc            ....   1038.6558215881 Eh

Convergence Acceleration:
 DIIS                   CNVDIIS         .... on
   Start iteration      DIISMaxIt       ....     0
   Startup error        DIISStart       ....  0.200000
   # of expansion vecs  DIISMaxEq       ....     5
   Bias factor          DIISBfac        ....   1.050
   Max. coefficient     DIISMaxC        ....  10.000
 Trust-Rad. Augm. Hess. CNVTRAH         .... auto
   Auto Start mean grad. ratio tolernc. ....  1.125000
   Auto Start start iteration           ....    20
   Auto Start num. interpolation iter.  ....    10
   Max. Number of Micro iterations      ....    16
   Max. Number of Macro iterations      .... Maxiter - #DIIS iter
   Number of Davidson start vectors     ....     2
   Converg. threshold I  (grad. norm)   ....   1.000e-05
   Converg. threshold II (energy diff.) ....   1.000e-08
   Grad. Scal. Fac. for Micro threshold ....   0.100
   Minimum threshold for Micro iter.    ....   0.010
   NR start threshold (gradient norm)   ....   0.001
   Initial trust radius                 ....   0.400
   Minimum AH scaling param. (alpha)    ....   1.000
   Maximum AH scaling param. (alpha)    .... 1000.000
   Orbital update algorithm             .... Taylor
   White noise on init. David. guess    .... on
   Maximum white noise                  ....   0.010
   Quad. conv. algorithm                .... NR
 SOSCF                  CNVSOSCF        .... on
   Start iteration      SOSCFMaxIt      ....   150
   Startup grad/error   SOSCFStart      ....  0.001000
 Level Shifting         CNVShift        .... on
   Level shift para.    LevelShift      ....    0.2500
   Turn off err/grad.   ShiftErr        ....    0.0000
 Zerner damping         CNVZerner       .... off
 Static damping         CNVDamp         .... on
   Fraction old density DampFac         ....    0.8500
   Max. Damping (<1)    DampMax         ....    0.9800
   Min. Damping (>=0)   DampMin         ....    0.0000
   Turn off err/grad.   DampErr         ....    0.0300
 Fernandez-Rico         CNVRico         .... off

SCF Procedure:
 Maximum # iterations   MaxIter         ....   125
 SCF integral mode      SCFMode         .... Direct
   Integral package                     .... SHARK and LIBINT hybrid scheme
 Reset frequency        DirectResetFreq ....    20
 Integral Threshold     Thresh          ....  2.500e-11 Eh
 Primitive CutOff       TCut            ....  2.500e-12 Eh

Convergence Tolerance:
 Convergence Check Mode ConvCheckMode   .... Total+1el-Energy
 Convergence forced     ConvForced      .... 0
 Energy Change          TolE            ....  1.000e-08 Eh
 1-El. energy change                    ....  1.000e-05 Eh
 Orbital Gradient       TolG            ....  1.000e-05
 Orbital Rotation angle TolX            ....  1.000e-05
 DIIS Error             TolErr          ....  5.000e-07


Diagonalization of the overlap matrix:
Smallest eigenvalue                        ... 8.250e-06
Time for diagonalization                   ...    0.068 sec
Threshold for overlap eigenvalues          ... 1.000e-08
Number of eigenvalues below threshold      ... 0
Time for construction of square roots      ...    0.032 sec
Total time needed                          ...    0.103 sec

Time for model grid setup =    0.314 sec

------------------------------
INITIAL GUESS: MODEL POTENTIAL
------------------------------
Loading Hartree-Fock densities                     ... done
Calculating cut-offs                               ... done
Initializing the effective Hamiltonian             ... done
Setting up the integral package (SHARK)            ... done
Starting the Coulomb interaction                   ... done (   0.7 sec)
Reading the grid                                   ... done
Mapping shells                                     ... done
Starting the XC term evaluation                    ... done (   0.5 sec)
  promolecular density results
     # of electrons  =    115.994636320
     EX              =    -93.348023905
     EC              =     -3.877511390
     EX+EC           =    -97.225535295
Transforming the Hamiltonian                       ... done (   0.0 sec)
Diagonalizing the Hamiltonian                      ... done (   0.1 sec)
Back transforming the eigenvectors                 ... done (   0.0 sec)
Now organizing SCF variables                       ... done
                      ------------------
                      INITIAL GUESS DONE (   1.6 sec)
                      ------------------
-------------------
DFT GRID GENERATION
-------------------

General Integration Accuracy     IntAcc      ... 4.388
Radial Grid Type                 RadialGrid  ... OptM3 with GC (2021)
Angular Grid (max. ang.)         AngularGrid ... 4 (Lebedev-302)
Angular grid pruning method      GridPruning ... 4 (adaptive)
Weight generation scheme         WeightScheme... Becke
Basis function cutoff            BFCut       ... 1.0000e-11
Integration weight cutoff        WCut        ... 1.0000e-14
Angular grids for H and He will be reduced by one unit
Partially contracted basis set               ... off
Rotationally invariant grid construction     ... off

Total number of grid points                  ...   140365
Total number of batches                      ...     2205
Average number of points per batch           ...       63
Average number of grid points per atom       ...     4840
Time for grid setup =    1.269 sec

--------------------
COSX GRID GENERATION
--------------------

GRIDX 1
-------
General Integration Accuracy     IntAcc      ... 3.816
Radial Grid Type                 RadialGrid  ... OptM3 with GC (2021)
Angular Grid (max. ang.)         AngularGrid ... 1 (Lebedev-50)
Angular grid pruning method      GridPruning ... 4 (adaptive)
Weight generation scheme         WeightScheme... Becke
Basis function cutoff            BFCut       ... 1.0000e-11
Integration weight cutoff        WCut        ... 1.0000e-14
Angular grids for H and He will be reduced by one unit
Partially contracted basis set               ... on
Rotationally invariant grid construction     ... off

Total number of grid points                  ...    17879
Total number of batches                      ...      286
Average number of points per batch           ...       62
Average number of grid points per atom       ...      617
UseSFitting                                  ... on

GRIDX 2
-------
General Integration Accuracy     IntAcc      ... 4.020
Radial Grid Type                 RadialGrid  ... OptM3 with GC (2021)
Angular Grid (max. ang.)         AngularGrid ... 2 (Lebedev-110)
Angular grid pruning method      GridPruning ... 4 (adaptive)
Weight generation scheme         WeightScheme... Becke
Basis function cutoff            BFCut       ... 1.0000e-11
Integration weight cutoff        WCut        ... 1.0000e-14
Angular grids for H and He will be reduced by one unit
Partially contracted basis set               ... on
Rotationally invariant grid construction     ... off

Total number of grid points                  ...    39141
Total number of batches                      ...      626
Average number of points per batch           ...       62
Average number of grid points per atom       ...     1350
UseSFitting                                  ... on

GRIDX 3
-------
General Integration Accuracy     IntAcc      ... 4.338
Radial Grid Type                 RadialGrid  ... OptM3 with GC (2021)
Angular Grid (max. ang.)         AngularGrid ... 3 (Lebedev-194)
Angular grid pruning method      GridPruning ... 4 (adaptive)
Weight generation scheme         WeightScheme... Becke
Basis function cutoff            BFCut       ... 1.0000e-11
Integration weight cutoff        WCut        ... 1.0000e-14
Angular grids for H and He will be reduced by one unit
Partially contracted basis set               ... on
Rotationally invariant grid construction     ... off

Total number of grid points                  ...    85989
Total number of batches                      ...     1357
Average number of points per batch           ...       63
Average number of grid points per atom       ...     2965
UseSFitting                                  ... on

Time for X-Grid setup             =    2.013 sec

--------------
SCF ITERATIONS
--------------
ITER       Energy         Delta-E        Max-DP      RMS-DP      [F,P]     Damp
               ***  Starting incremental Fock matrix formation  ***
  0   -688.0042196597   0.000000000000 0.02003541  0.00029307  0.1388128 0.8500
  1   -688.0696073240  -0.065387664342 0.02471352  0.00029993  0.1112659 0.8500
                               ***Turning on DIIS***
  2   -688.1198093840  -0.050202060003 0.02309410  0.00026115  0.0845958 0.8500
  3   -688.1573051536  -0.037495769641 0.01980593  0.00021164  0.0633537 0.8500
  4   -688.1863825127  -0.029077359106 0.01686961  0.00017727  0.0501687 0.8500
  5   -688.2093868475  -0.023004334747 0.01451610  0.00015243  0.0414875 0.8500
  6   -688.2281367510  -0.018749903503 0.01258614  0.00013236  0.0349631 0.8500
  7   -688.2436863902  -0.015549639185 0.07343271  0.00077325  0.0296636 0.0000
  8   -688.3271472278  -0.083460837612 0.00343747  0.00005141  0.0010353 0.0000
                      *** Initiating the SOSCF procedure ***
                           *** Shutting down DIIS ***
                      *** Re-Reading the Fockian *** 
                      *** Removing any level shift *** 
ITER      Energy       Delta-E        Grad      Rot      Max-DP    RMS-DP
  9   -688.32718595  -0.0000387184  0.000694  0.000694  0.002214  0.000031
               *** Restarting incremental Fock matrix formation ***
 10   -688.32723745  -0.0000515075  0.000325  0.000720  0.005796  0.000074
 11   -688.32724083  -0.0000033797  0.000178  0.000719  0.002875  0.000040
 12   -688.32724180  -0.0000009644  0.000065  0.000145  0.002473  0.000030
 13   -688.32724196  -0.0000001672  0.000011  0.000028  0.000235  0.000004
 14   -688.32724196   0.0000000051  0.000006  0.000018  0.000134  0.000002
                  ***Gradient check signals convergence***
              ***Rediagonalizing the Fockian in SOSCF/NRSCF***

               *****************************************************
               *                     SUCCESS                       *
               *           SCF CONVERGED AFTER  15 CYCLES          *
               *****************************************************

Old exchange energy                            =    -30.271957593 Eh
New exchange energy                            =    -30.271942619 Eh
Exchange energy change after final integration =      0.000014973 Eh
Total energy after final integration           =   -688.327226983 Eh
Final COS-X integration done in                =    67.887 sec

----------------
TOTAL SCF ENERGY
----------------

Total Energy       :         -688.32722698 Eh          -18730.33608 eV

Components:
Nuclear Repulsion  :         1038.65582159 Eh           28263.26178 eV
Electronic Energy  :        -1726.98304857 Eh          -46993.59786 eV
One Electron Energy:        -2990.07935236 Eh          -81364.19565 eV
Two Electron Energy:         1263.09630379 Eh           34370.59779 eV
Max COSX asymmetry :            0.00000121 Eh               0.00003 eV

Virial components:
Potential Energy   :        -1373.41252711 Eh          -37372.45484 eV
Kinetic Energy     :          685.08530013 Eh           18642.11876 eV
Virial Ratio       :            2.00473215


DFT components:
N(Alpha)           :       58.000074694219 electrons
N(Beta)            :       58.000074694219 electrons
N(Total)           :      116.000149388438 electrons
E(XC)              :      -69.327059425044 Eh       
DFET-embed. en.    :        0.000000000000 Eh       

---------------
SCF CONVERGENCE
---------------

  Last Energy change         ...    3.5402e-09  Tolerance :   1.0000e-08
  Last MAX-Density change    ...    1.1102e-15  Tolerance :   1.0000e-07
  Last RMS-Density change    ...    1.1455e-17  Tolerance :   5.0000e-09
  Last Orbital Gradient      ...    1.4885e-06  Tolerance :   1.0000e-05
  Last Orbital Rotation      ...    5.4330e-06  Tolerance :   1.0000e-05

             **** THE GBW FILE WAS UPDATED (7_deprot.gbw) ****
             **** DENSITY 7_deprot.scfp WAS UPDATED ****
             **** ENERGY FILE WAS UPDATED (7_deprot.en.tmp) ****
             **** THE GBW FILE WAS UPDATED (7_deprot.gbw) ****
             **** DENSITY 7_deprot.scfp WAS UPDATED ****
----------------
ORBITAL ENERGIES
----------------

  NO   OCC          E(Eh)            E(eV) 
   0   2.0000     -14.455970      -393.3670 
   1   2.0000     -14.455944      -393.3662 
   2   2.0000     -10.310867      -280.5730 
   3   2.0000     -10.310860      -280.5728 
   4   2.0000     -10.297409      -280.2067 
   5   2.0000     -10.296654      -280.1862 
   6   2.0000     -10.275386      -279.6075 
   7   2.0000     -10.269921      -279.4588 
   8   2.0000     -10.269921      -279.4588 
   9   2.0000     -10.268814      -279.4286 
  10   2.0000     -10.268814      -279.4286 
  11   2.0000     -10.266288      -279.3599 
  12   2.0000     -10.266288      -279.3599 
  13   2.0000     -10.263295      -279.2785 
  14   2.0000     -10.263295      -279.2785 
  15   2.0000     -10.261443      -279.2281 
  16   2.0000     -10.261443      -279.2280 
  17   2.0000      -1.171224       -31.8706 
  18   2.0000      -1.071800       -29.1651 
  19   2.0000      -0.999592       -27.2003 
  20   2.0000      -0.981870       -26.7180 
  21   2.0000      -0.916674       -24.9440 
  22   2.0000      -0.888870       -24.1874 
  23   2.0000      -0.883544       -24.0424 
  24   2.0000      -0.870898       -23.6983 
  25   2.0000      -0.865488       -23.5511 
  26   2.0000      -0.783068       -21.3084 
  27   2.0000      -0.765537       -20.8313 
  28   2.0000      -0.734973       -19.9996 
  29   2.0000      -0.727534       -19.7972 
  30   2.0000      -0.698054       -18.9950 
  31   2.0000      -0.687124       -18.6976 
  32   2.0000      -0.666690       -18.1416 
  33   2.0000      -0.639766       -17.4089 
  34   2.0000      -0.610272       -16.6064 
  35   2.0000      -0.593152       -16.1405 
  36   2.0000      -0.585469       -15.9314 
  37   2.0000      -0.576794       -15.6954 
  38   2.0000      -0.569007       -15.4835 
  39   2.0000      -0.562932       -15.3181 
  40   2.0000      -0.546357       -14.8671 
  41   2.0000      -0.537180       -14.6174 
  42   2.0000      -0.533884       -14.5277 
  43   2.0000      -0.530492       -14.4354 
  44   2.0000      -0.529942       -14.4205 
  45   2.0000      -0.508032       -13.8243 
  46   2.0000      -0.485898       -13.2219 
  47   2.0000      -0.469685       -12.7808 
  48   2.0000      -0.463819       -12.6212 
  49   2.0000      -0.454809       -12.3760 
  50   2.0000      -0.448994       -12.2178 
  51   2.0000      -0.435054       -11.8384 
  52   2.0000      -0.368940       -10.0394 
  53   2.0000      -0.354367        -9.6428 
  54   2.0000      -0.353856        -9.6289 
  55   2.0000      -0.328163        -8.9298 
  56   2.0000      -0.322622        -8.7790 
  57   2.0000      -0.319990        -8.7074 
  58   0.0000       0.046862         1.2752 
  59   0.0000       0.053773         1.4632 
  60   0.0000       0.062669         1.7053 
  61   0.0000       0.066586         1.8119 
  62   0.0000       0.113303         3.0831 
  63   0.0000       0.128186         3.4881 
  64   0.0000       0.129536         3.5249 
  65   0.0000       0.131081         3.5669 
  66   0.0000       0.147146         4.0040 
  67   0.0000       0.154381         4.2009 
  68   0.0000       0.168392         4.5822 
  69   0.0000       0.175745         4.7823 
  70   0.0000       0.175842         4.7849 
  71   0.0000       0.184754         5.0274 
  72   0.0000       0.190226         5.1763 
  73   0.0000       0.199390         5.4257 
  74   0.0000       0.202742         5.5169 
  75   0.0000       0.217179         5.9097 
  76   0.0000       0.217866         5.9284 
  77   0.0000       0.224526         6.1097 
  78   0.0000       0.226689         6.1685 
  79   0.0000       0.233838         6.3631 
  80   0.0000       0.249572         6.7912 
  81   0.0000       0.252370         6.8673 
  82   0.0000       0.263388         7.1672 
  83   0.0000       0.270079         7.3492 
  84   0.0000       0.277292         7.5455 
  85   0.0000       0.286597         7.7987 
  86   0.0000       0.287333         7.8187 
  87   0.0000       0.293211         7.9787 
  88   0.0000       0.296283         8.0623 
  89   0.0000       0.303823         8.2674 
  90   0.0000       0.307197         8.3593 
  91   0.0000       0.307842         8.3768 
  92   0.0000       0.310112         8.4386 
  93   0.0000       0.313954         8.5431 
  94   0.0000       0.321122         8.7382 
  95   0.0000       0.322600         8.7784 
  96   0.0000       0.330708         8.9990 
  97   0.0000       0.335415         9.1271 
  98   0.0000       0.336036         9.1440 
  99   0.0000       0.347478         9.4554 
 100   0.0000       0.353403         9.6166 
 101   0.0000       0.353541         9.6203 
 102   0.0000       0.362872         9.8742 
 103   0.0000       0.375618        10.2211 
 104   0.0000       0.385814        10.4985 
 105   0.0000       0.392475        10.6798 
 106   0.0000       0.393101        10.6968 
 107   0.0000       0.401809        10.9338 
 108   0.0000       0.415800        11.3145 
 109   0.0000       0.417176        11.3519 
 110   0.0000       0.423643        11.5279 
 111   0.0000       0.427334        11.6283 
 112   0.0000       0.432254        11.7622 
 113   0.0000       0.435592        11.8531 
 114   0.0000       0.441298        12.0083 
 115   0.0000       0.444537        12.0965 
 116   0.0000       0.448196        12.1960 
 117   0.0000       0.464910        12.6509 
 118   0.0000       0.470436        12.8012 
 119   0.0000       0.472912        12.8686 
 120   0.0000       0.474771        12.9192 
 121   0.0000       0.482652        13.1336 
 122   0.0000       0.488493        13.2926 
 123   0.0000       0.488846        13.3022 
 124   0.0000       0.500266        13.6129 
 125   0.0000       0.503240        13.6939 
 126   0.0000       0.510926        13.9030 
 127   0.0000       0.512416        13.9435 
 128   0.0000       0.512508        13.9461 
 129   0.0000       0.520052        14.1513 
 130   0.0000       0.523314        14.2401 
 131   0.0000       0.528659        14.3855 
 132   0.0000       0.531527        14.4636 
 133   0.0000       0.533943        14.5293 
 134   0.0000       0.539363        14.6768 
 135   0.0000       0.551607        15.0100 
 136   0.0000       0.561656        15.2834 
 137   0.0000       0.564072        15.3492 
 138   0.0000       0.572398        15.5757 
 139   0.0000       0.575670        15.6648 
 140   0.0000       0.577523        15.7152 
 141   0.0000       0.584215        15.8973 
 142   0.0000       0.587845        15.9961 
 143   0.0000       0.591071        16.0838 
 144   0.0000       0.598308        16.2808 
 145   0.0000       0.601781        16.3753 
 146   0.0000       0.610533        16.6135 
 147   0.0000       0.627393        17.0722 
 148   0.0000       0.651104        17.7175 
 149   0.0000       0.664136        18.0721 
 150   0.0000       0.672965        18.3123 
 151   0.0000       0.674544        18.3553 
 152   0.0000       0.681643        18.5485 
 153   0.0000       0.686943        18.6927 
 154   0.0000       0.698093        18.9961 
 155   0.0000       0.698861        19.0170 
 156   0.0000       0.730308        19.8727 
 157   0.0000       0.733117        19.9491 
 158   0.0000       0.741725        20.1834 
 159   0.0000       0.746258        20.3067 
 160   0.0000       0.751493        20.4492 
 161   0.0000       0.751829        20.4583 
 162   0.0000       0.760891        20.7049 
 163   0.0000       0.769805        20.9475 
 164   0.0000       0.775101        21.0916 
 165   0.0000       0.783910        21.3313 
 166   0.0000       0.791418        21.5356 
 167   0.0000       0.798026        21.7154 
 168   0.0000       0.806946        21.9581 
 169   0.0000       0.810189        22.0464 
 170   0.0000       0.813760        22.1435 
 171   0.0000       0.819245        22.2928 
 172   0.0000       0.833835        22.6898 
 173   0.0000       0.839447        22.8425 
 174   0.0000       0.843068        22.9410 
 175   0.0000       0.845569        23.0091 
 176   0.0000       0.855217        23.2716 
 177   0.0000       0.869121        23.6500 
 178   0.0000       0.869970        23.6731 
 179   0.0000       0.888047        24.1650 
 180   0.0000       0.892721        24.2922 
 181   0.0000       0.897657        24.4265 
 182   0.0000       0.907761        24.7014 
 183   0.0000       0.914921        24.8963 
 184   0.0000       0.917253        24.9597 
 185   0.0000       0.931893        25.3581 
 186   0.0000       0.942907        25.6578 
 187   0.0000       0.943275        25.6678 
 188   0.0000       0.962154        26.1815 
 189   0.0000       0.968368        26.3506 
 190   0.0000       0.976401        26.5692 
 191   0.0000       0.986646        26.8480 
 192   0.0000       0.996792        27.1241 
 193   0.0000       1.003867        27.3166 
 194   0.0000       1.015320        27.6283 
 195   0.0000       1.028879        27.9972 
 196   0.0000       1.038084        28.2477 
 197   0.0000       1.038707        28.2647 
 198   0.0000       1.056127        28.7387 
 199   0.0000       1.078957        29.3599 
 200   0.0000       1.087297        29.5869 
 201   0.0000       1.100947        29.9583 
 202   0.0000       1.111577        30.2475 
 203   0.0000       1.117379        30.4054 
 204   0.0000       1.120048        30.4780 
 205   0.0000       1.120486        30.4900 
 206   0.0000       1.140764        31.0418 
 207   0.0000       1.148261        31.2458 
 208   0.0000       1.154353        31.4115 
 209   0.0000       1.185063        32.2472 
 210   0.0000       1.196333        32.5539 
 211   0.0000       1.208508        32.8852 
 212   0.0000       1.209040        32.8997 
 213   0.0000       1.222152        33.2565 
 214   0.0000       1.223071        33.2815 
 215   0.0000       1.253786        34.1172 
 216   0.0000       1.260792        34.3079 
 217   0.0000       1.273503        34.6538 
 218   0.0000       1.280827        34.8531 
 219   0.0000       1.294805        35.2334 
 220   0.0000       1.308322        35.6013 
 221   0.0000       1.310044        35.6481 
 222   0.0000       1.313075        35.7306 
 223   0.0000       1.314487        35.7690 
 224   0.0000       1.321179        35.9511 
 225   0.0000       1.327419        36.1209 
 226   0.0000       1.330189        36.1963 
 227   0.0000       1.339377        36.4463 
 228   0.0000       1.343607        36.5614 
 229   0.0000       1.358051        36.9544 
 230   0.0000       1.369567        37.2678 
 231   0.0000       1.370383        37.2900 
 232   0.0000       1.386467        37.7277 
 233   0.0000       1.386822        37.7374 
 234   0.0000       1.407254        38.2933 
 235   0.0000       1.411352        38.4048 
 236   0.0000       1.436679        39.0940 
 237   0.0000       1.437884        39.1268 
 238   0.0000       1.456648        39.6374 
 239   0.0000       1.467739        39.9392 
 240   0.0000       1.483795        40.3761 
 241   0.0000       1.509957        41.0880 
 242   0.0000       1.511764        41.1372 
 243   0.0000       1.523080        41.4451 
 244   0.0000       1.528538        41.5936 
 245   0.0000       1.543898        42.0116 
 246   0.0000       1.546074        42.0708 
 247   0.0000       1.552185        42.2371 
 248   0.0000       1.563881        42.5554 
 249   0.0000       1.566228        42.6192 
 250   0.0000       1.576469        42.8979 
 251   0.0000       1.582955        43.0744 
 252   0.0000       1.589171        43.2435 
 253   0.0000       1.608470        43.7687 
 254   0.0000       1.617715        44.0203 
 255   0.0000       1.620147        44.0864 
 256   0.0000       1.640242        44.6332 
 257   0.0000       1.642726        44.7008 
 258   0.0000       1.648806        44.8663 
 259   0.0000       1.650739        44.9189 
 260   0.0000       1.659334        45.1528 
 261   0.0000       1.663874        45.2763 
 262   0.0000       1.674230        45.5581 
 263   0.0000       1.680134        45.7188 
 264   0.0000       1.695896        46.1477 
 265   0.0000       1.707096        46.4524 
 266   0.0000       1.724462        46.9250 
 267   0.0000       1.729188        47.0536 
 268   0.0000       1.735069        47.2136 
 269   0.0000       1.752075        47.6764 
 270   0.0000       1.754732        47.7487 
 271   0.0000       1.763517        47.9877 
 272   0.0000       1.782416        48.5020 
 273   0.0000       1.785447        48.5845 
 274   0.0000       1.799043        48.9545 
 275   0.0000       1.802635        49.0522 
 276   0.0000       1.806777        49.1649 
 277   0.0000       1.815801        49.4105 
 278   0.0000       1.822089        49.5816 
 279   0.0000       1.827321        49.7239 
 280   0.0000       1.840489        50.0823 
 281   0.0000       1.840983        50.0957 
 282   0.0000       1.844157        50.1821 
 283   0.0000       1.855650        50.4948 
 284   0.0000       1.864516        50.7361 
 285   0.0000       1.867282        50.8113 
 286   0.0000       1.875316        51.0299 
 287   0.0000       1.886000        51.3207 
 288   0.0000       1.901979        51.7555 
 289   0.0000       1.926101        52.4119 
 290   0.0000       1.928532        52.4780 
 291   0.0000       1.961088        53.3639 
 292   0.0000       1.966595        53.5138 
 293   0.0000       1.985206        54.0202 
 294   0.0000       2.003868        54.5280 
 295   0.0000       2.016333        54.8672 
 296   0.0000       2.020101        54.9697 
 297   0.0000       2.047450        55.7139 
 298   0.0000       2.058680        56.0195 
 299   0.0000       2.066691        56.2375 
 300   0.0000       2.080374        56.6099 
 301   0.0000       2.097166        57.0668 
 302   0.0000       2.106977        57.3338 
 303   0.0000       2.116168        57.5839 
 304   0.0000       2.136119        58.1268 
 305   0.0000       2.143232        58.3203 
 306   0.0000       2.163061        58.8599 
 307   0.0000       2.184874        59.4534 
 308   0.0000       2.192261        59.6545 
 309   0.0000       2.195248        59.7357 
 310   0.0000       2.204799        59.9956 
 311   0.0000       2.215937        60.2987 
 312   0.0000       2.236279        60.8522 
 313   0.0000       2.252846        61.3030 
 314   0.0000       2.259457        61.4830 
 315   0.0000       2.286409        62.2164 
 316   0.0000       2.289014        62.2872 
 317   0.0000       2.290577        62.3298 
 318   0.0000       2.308833        62.8265 
 319   0.0000       2.323245        63.2187 
 320   0.0000       2.325589        63.2825 
 321   0.0000       2.343743        63.7765 
 322   0.0000       2.349509        63.9334 
 323   0.0000       2.365332        64.3640 
 324   0.0000       2.370661        64.5090 
 325   0.0000       2.382015        64.8179 
 326   0.0000       2.394990        65.1710 
 327   0.0000       2.406202        65.4761 
 328   0.0000       2.424086        65.9627 
 329   0.0000       2.452047        66.7236 
 330   0.0000       2.482439        67.5506 
 331   0.0000       2.484472        67.6059 
 332   0.0000       2.531558        68.8872 
 333   0.0000       2.539816        69.1119 
 334   0.0000       2.545490        69.2663 
 335   0.0000       2.561653        69.7061 
 336   0.0000       2.581299        70.2407 
 337   0.0000       2.594770        70.6073 
 338   0.0000       2.613165        71.1078 
 339   0.0000       2.625745        71.4502 
 340   0.0000       2.634178        71.6796 
 341   0.0000       2.637520        71.7706 
 342   0.0000       2.640856        71.8613 
 343   0.0000       2.663174        72.4687 
 344   0.0000       2.666530        72.5600 
 345   0.0000       2.676849        72.8408 
 346   0.0000       2.697483        73.4022 
 347   0.0000       2.700687        73.4894 
 348   0.0000       2.709206        73.7212 
 349   0.0000       2.714820        73.8740 
 350   0.0000       2.716532        73.9206 
 351   0.0000       2.725185        74.1561 
 352   0.0000       2.735178        74.4280 
 353   0.0000       2.746049        74.7238 
 354   0.0000       2.749165        74.8086 
 355   0.0000       2.767098        75.2966 
 356   0.0000       2.768252        75.3280 
 357   0.0000       2.770505        75.3893 
 358   0.0000       2.775918        75.5366 
 359   0.0000       2.781159        75.6792 
 360   0.0000       2.781776        75.6960 
 361   0.0000       2.788895        75.8897 
 362   0.0000       2.791447        75.9591 
 363   0.0000       2.798384        76.1479 
 364   0.0000       2.806992        76.3821 
 365   0.0000       2.822220        76.7965 
 366   0.0000       2.828605        76.9702 
 367   0.0000       2.829732        77.0009 
 368   0.0000       2.849511        77.5391 
 369   0.0000       2.855845        77.7115 
 370   0.0000       2.867951        78.0409 
 371   0.0000       2.872774        78.1722 
 372   0.0000       2.873070        78.1802 
 373   0.0000       2.876272        78.2674 
 374   0.0000       2.881036        78.3970 
 375   0.0000       2.894511        78.7637 
 376   0.0000       2.894870        78.7734 
 377   0.0000       2.925241        79.5999 
 378   0.0000       2.927662        79.6657 
 379   0.0000       2.930714        79.7488 
 380   0.0000       2.934147        79.8422 
 381   0.0000       2.942322        80.0647 
 382   0.0000       2.942377        80.0661 
 383   0.0000       2.948972        80.2456 
 384   0.0000       2.957535        80.4786 
 385   0.0000       2.968111        80.7664 
 386   0.0000       2.982406        81.1554 
 387   0.0000       2.982678        81.1628 
 388   0.0000       2.988438        81.3195 
 389   0.0000       2.995392        81.5088 
 390   0.0000       3.016525        82.0838 
 391   0.0000       3.016647        82.0871 
 392   0.0000       3.024461        82.2998 
 393   0.0000       3.040430        82.7343 
 394   0.0000       3.055466        83.1435 
 395   0.0000       3.081724        83.8580 
 396   0.0000       3.092211        84.1433 
 397   0.0000       3.104284        84.4719 
 398   0.0000       3.106560        84.5338 
 399   0.0000       3.115670        84.7817 
 400   0.0000       3.117025        84.8186 
 401   0.0000       3.156497        85.8926 
 402   0.0000       3.172901        86.3390 
 403   0.0000       3.174442        86.3809 
 404   0.0000       3.180418        86.5436 
 405   0.0000       3.206388        87.2503 
 406   0.0000       3.207462        87.2795 
 407   0.0000       3.213954        87.4561 
 408   0.0000       3.217504        87.5527 
 409   0.0000       3.219268        87.6007 
 410   0.0000       3.225316        87.7653 
 411   0.0000       3.232469        87.9600 
 412   0.0000       3.235952        88.0547 
 413   0.0000       3.244235        88.2801 
 414   0.0000       3.253807        88.5406 
 415   0.0000       3.257585        88.6434 
 416   0.0000       3.260608        88.7257 
 417   0.0000       3.263651        88.8085 
 418   0.0000       3.274813        89.1122 
 419   0.0000       3.279490        89.2394 
 420   0.0000       3.288847        89.4941 
 421   0.0000       3.297932        89.7413 
 422   0.0000       3.303381        89.8896 
 423   0.0000       3.309110        90.0455 
 424   0.0000       3.321178        90.3738 
 425   0.0000       3.328662        90.5775 
 426   0.0000       3.355333        91.3033 
 427   0.0000       3.365812        91.5884 
 428   0.0000       3.368628        91.6650 
 429   0.0000       3.372018        91.7573 
 430   0.0000       3.383562        92.0714 
 431   0.0000       3.393929        92.3535 
 432   0.0000       3.400168        92.5233 
 433   0.0000       3.402221        92.5791 
 434   0.0000       3.415062        92.9286 
 435   0.0000       3.422045        93.1186 
 436   0.0000       3.427086        93.2557 
 437   0.0000       3.427188        93.2585 
 438   0.0000       3.441520        93.6485 
 439   0.0000       3.449726        93.8718 
 440   0.0000       3.458138        94.1007 
 441   0.0000       3.461308        94.1870 
 442   0.0000       3.478599        94.6575 
 443   0.0000       3.480943        94.7213 
 444   0.0000       3.482987        94.7769 
 445   0.0000       3.500255        95.2468 
 446   0.0000       3.506313        95.4116 
 447   0.0000       3.507421        95.4418 
 448   0.0000       3.511533        95.5537 
 449   0.0000       3.525226        95.9263 
 450   0.0000       3.542905        96.4073 
 451   0.0000       3.549189        96.5783 
 452   0.0000       3.559878        96.8692 
 453   0.0000       3.563093        96.9567 
 454   0.0000       3.571166        97.1764 
 455   0.0000       3.572394        97.2098 
 456   0.0000       3.586736        97.6000 
 457   0.0000       3.590100        97.6916 
 458   0.0000       3.594709        97.8170 
 459   0.0000       3.597252        97.8862 
 460   0.0000       3.624416        98.6254 
 461   0.0000       3.637288        98.9756 
 462   0.0000       3.637728        98.9876 
 463   0.0000       3.642812        99.1260 
 464   0.0000       3.656692        99.5036 
 465   0.0000       3.662970        99.6745 
 466   0.0000       3.689680       100.4013 
 467   0.0000       3.693943       100.5173 
 468   0.0000       3.714612       101.0797 
 469   0.0000       3.720404       101.2373 
 470   0.0000       3.750308       102.0511 
 471   0.0000       3.758358       102.2701 
 472   0.0000       3.775792       102.7445 
 473   0.0000       3.799608       103.3926 
 474   0.0000       3.809940       103.6737 
 475   0.0000       3.812819       103.7521 
 476   0.0000       3.828781       104.1864 
 477   0.0000       3.852890       104.8425 
 478   0.0000       3.859198       105.0141 
 479   0.0000       3.869386       105.2913 
 480   0.0000       3.885363       105.7261 
 481   0.0000       3.904395       106.2440 
 482   0.0000       3.911956       106.4497 
 483   0.0000       3.926255       106.8388 
 484   0.0000       3.993728       108.6749 
 485   0.0000       3.999318       108.8270 
 486   0.0000       4.022788       109.4656 
 487   0.0000       4.025934       109.5512 
 488   0.0000       4.032650       109.7340 
 489   0.0000       4.042412       109.9996 
 490   0.0000       4.044318       110.0515 
 491   0.0000       4.104519       111.6897 
 492   0.0000       4.105976       111.7293 
 493   0.0000       4.138679       112.6192 
 494   0.0000       4.143283       112.7445 
 495   0.0000       4.148888       112.8970 
 496   0.0000       4.169991       113.4712 
 497   0.0000       4.171298       113.5068 
 498   0.0000       4.198025       114.2341 
 499   0.0000       4.207057       114.4798 
 500   0.0000       4.225448       114.9803 
 501   0.0000       4.225952       114.9940 
 502   0.0000       4.234186       115.2181 
 503   0.0000       4.266799       116.1055 
 504   0.0000       4.285647       116.6184 
 505   0.0000       4.292187       116.7964 
 506   0.0000       4.303906       117.1152 
 507   0.0000       4.304342       117.1271 
 508   0.0000       4.323036       117.6358 
 509   0.0000       4.324464       117.6747 
 510   0.0000       4.327242       117.7502 
 511   0.0000       4.335384       117.9718 
 512   0.0000       4.351836       118.4195 
 513   0.0000       4.351981       118.4234 
 514   0.0000       4.370504       118.9274 
 515   0.0000       4.373148       118.9994 
 516   0.0000       4.380419       119.1973 
 517   0.0000       4.383629       119.2846 
 518   0.0000       4.392187       119.5175 
 519   0.0000       4.399115       119.7060 
 520   0.0000       4.406090       119.8958 
 521   0.0000       4.448023       121.0369 
 522   0.0000       4.448679       121.0547 
 523   0.0000       4.457799       121.3029 
 524   0.0000       4.513483       122.8181 
 525   0.0000       4.602432       125.2386 
 526   0.0000       4.607772       125.3839 
 527   0.0000       4.688527       127.5813 
 528   0.0000       4.708860       128.1346 
 529   0.0000       4.714785       128.2958 
 530   0.0000       4.737956       128.9263 
 531   0.0000       4.744138       129.0946 
 532   0.0000       4.764422       129.6465 
 533   0.0000       4.769898       129.7955 
 534   0.0000       4.805178       130.7555 
 535   0.0000       4.809859       130.8829 
 536   0.0000       4.830651       131.4487 
 537   0.0000       4.831778       131.4794 
 538   0.0000       4.920973       133.9065 
 539   0.0000       4.947764       134.6355 
 540   0.0000       4.961441       135.0077 
 541   0.0000       4.967651       135.1766 
 542   0.0000       4.980179       135.5176 
 543   0.0000       4.993006       135.8666 
 544   0.0000       4.999692       136.0485 
 545   0.0000       5.016628       136.5094 
 546   0.0000       5.018060       136.5483 
 547   0.0000       5.078499       138.1930 
 548   0.0000       5.087630       138.4415 
 549   0.0000       5.110686       139.0688 
 550   0.0000       5.159475       140.3964 
 551   0.0000       5.167926       140.6264 
 552   0.0000       5.209220       141.7501 
 553   0.0000       5.225222       142.1855 
 554   0.0000       5.246757       142.7715 
 555   0.0000       5.248469       142.8181 
 556   0.0000       5.278215       143.6275 
 557   0.0000       5.292136       144.0063 
 558   0.0000       5.315327       144.6374 
 559   0.0000       5.322952       144.8449 
 560   0.0000       5.335478       145.1857 
 561   0.0000       5.368312       146.0792 
 562   0.0000       5.395246       146.8121 
 563   0.0000       5.425808       147.6438 
 564   0.0000       5.428409       147.7145 
 565   0.0000       5.465521       148.7244 
 566   0.0000       5.474576       148.9708 
 567   0.0000       5.514627       150.0606 
 568   0.0000       5.524340       150.3249 
 569   0.0000       5.604896       152.5170 
 570   0.0000       5.645201       153.6137 
 571   0.0000       5.672714       154.3624 
 572   0.0000       5.715727       155.5328 
 573   0.0000       5.730109       155.9242 
 574   0.0000       5.799628       157.8159 
 575   0.0000       5.998204       163.2194 
 576   0.0000       6.071250       165.2071 
 577   0.0000       6.097308       165.9162 
 578   0.0000       6.108718       166.2267 
 579   0.0000       6.168454       167.8522 
 580   0.0000       6.287105       171.0808 
 581   0.0000       6.434210       175.0837 
 582   0.0000      22.162660       603.0766 
 583   0.0000      22.196550       603.9988 
 584   0.0000      22.420169       610.0838 
 585   0.0000      22.638469       616.0241 
 586   0.0000      22.643515       616.1614 
 587   0.0000      22.652510       616.4061 
 588   0.0000      22.653692       616.4383 
 589   0.0000      22.723456       618.3367 
 590   0.0000      22.791717       620.1942 
 591   0.0000      22.792502       620.2155 
 592   0.0000      22.875352       622.4700 
 593   0.0000      22.898550       623.1012 
 594   0.0000      22.968929       625.0163 
 595   0.0000      23.256021       632.8285 
 596   0.0000      23.297597       633.9598 
 597   0.0000      33.003934       898.0827 
 598   0.0000      33.261980       905.1045 

                    ********************************
                    * MULLIKEN POPULATION ANALYSIS *
                    ********************************

-----------------------
MULLIKEN ATOMIC CHARGES
[...]
     86       0.000092  -0.000185   0.000192  -0.000234   0.000190  -0.000269
                 84         85         86    
      0      -0.000008   0.001091  -0.001085
      1       0.000123  -0.038489   0.048717
      2      -0.000182   0.047376  -0.047559
      3      -0.000007   0.001090   0.001085
      4       0.000107  -0.038490  -0.048716
      5       0.000202  -0.047377  -0.047558
      6       0.000183  -0.011754   0.011890
      7      -0.001895   0.456058  -0.461059
      8       0.002062  -0.535407   0.530860
      9       0.000182  -0.011751  -0.011887
     10      -0.001996   0.456067   0.461047
     11      -0.002277   0.535421   0.530849
     12      -0.000864   0.000007   0.000014
     13       0.000952  -0.000207   0.000033
     14       0.001879   0.000193  -0.000298
     15       0.021546   0.000051  -0.000005
     16       0.038013   0.000239  -0.000148
     17      -0.028483  -0.000028  -0.000037
     18      -0.000652  -0.001519   0.001146
     19       0.000177   0.000631  -0.000469
     20       0.001121   0.002703  -0.002038
     21       0.006210   0.000043  -0.000000
     22      -0.005489  -0.000108   0.000063
     23      -0.013633  -0.000110   0.000049
     24      -0.242595  -0.000650  -0.000154
     25      -0.427103  -0.001105   0.000022
     26       0.325405   0.000699   0.000106
     27      -0.001540  -0.000111   0.000058
     28      -0.002319  -0.000258   0.000141
     29       0.002147   0.000080  -0.000014
     30       0.005986   0.016294  -0.012226
     31      -0.002920  -0.009319   0.007166
     32      -0.011608  -0.033116   0.025106
     33      -0.000285   0.000040  -0.000026
     34      -0.006127   0.000013  -0.000013
     35      -0.001461  -0.000048   0.000020
     36      -0.070933  -0.000636   0.000296
     37       0.039933   0.000436  -0.000261
     38       0.147532   0.001343  -0.000677
     39       0.015894   0.001134  -0.000536
     40       0.026122   0.002155  -0.001099
     41      -0.021028  -0.001545   0.000746
     42      -0.000121   0.000015  -0.000069
     43       0.062240  -0.000074   0.000120
     44       0.020063  -0.000057   0.000046
     45      -0.001091   0.000007  -0.000014
     46       0.001206  -0.000207  -0.000033
     47      -0.002377  -0.000193  -0.000298
     48       0.027267   0.000051   0.000005
     49       0.048103   0.000239   0.000148
     50       0.036049   0.000028  -0.000037
     51      -0.000822  -0.001519  -0.001146
     52       0.000222   0.000631   0.000469
     53      -0.001415  -0.002703  -0.002038
     54       0.007851   0.000043   0.000000
     55      -0.006943  -0.000108  -0.000063
     56       0.017237   0.000110   0.000049
     57      -0.306997  -0.000650   0.000154
     58      -0.540510  -0.001105  -0.000022
     59      -0.411831  -0.000699   0.000106
     60      -0.001946  -0.000111  -0.000058
     61      -0.002932  -0.000258  -0.000141
     62      -0.002715  -0.000080  -0.000014
     63       0.007547   0.016294   0.012225
     64      -0.003681  -0.009319  -0.007166
     65       0.014634   0.033116   0.025104
     66      -0.000360   0.000040   0.000026
     67      -0.007749   0.000013   0.000013
     68       0.001847   0.000048   0.000020
     69      -0.089674  -0.000636  -0.000296
     70       0.050484   0.000436   0.000261
     71      -0.186523  -0.001343  -0.000677
     72       0.020097   0.001134   0.000536
     73       0.033027   0.002155   0.001099
     74       0.026586   0.001545   0.000745
     75      -0.000152   0.000015   0.000069
     76       0.078700  -0.000074  -0.000120
     77      -0.025372   0.000057   0.000046
     78      -0.000138   0.000004   0.000000
     79       0.000406   0.001685  -0.000000
     80      -0.000034   0.000000   0.000966
     81       0.000104   0.000023  -0.000034
     82      -0.000032  -0.000235   0.000887
     83      -0.000381  -0.000387   0.002330
     84       0.000134   0.000023   0.000034
     85      -0.000008  -0.000235  -0.000887
     86       0.000455   0.000387   0.002330


-----------
IR SPECTRUM
-----------

 Mode   freq       eps      Int      T**2         TX        TY        TZ
       cm**-1   L/(mol*cm) km/mol    a.u.
----------------------------------------------------------------------------
  6:     19.44   0.000001    0.00  0.000014  ( 0.000001 -0.000002 -0.003700)
  7:     35.72   0.000090    0.46  0.000788  (-0.003606 -0.027832  0.000000)
  8:     74.55   0.000046    0.23  0.000191  (-0.000000 -0.000000 -0.013824)
  9:     90.24   0.002211   11.17  0.007644  (-0.074948  0.045026 -0.000000)
 10:    133.95   0.000004    0.02  0.000010  ( 0.000000 -0.000000 -0.003205)
 11:    179.02   0.000301    1.52  0.000524  (-0.008923 -0.021092 -0.000000)
 12:    259.49   0.000028    0.14  0.000034  ( 0.000000 -0.000000 -0.005844)
 13:    292.34   0.001117    5.65  0.001193  (-0.013213  0.031910 -0.000001)
 14:    311.01   0.000020    0.10  0.000020  ( 0.000000 -0.000000  0.004506)
 15:    419.18   0.000000    0.00  0.000000  ( 0.000433  0.000028  0.000000)
 16:    423.48   0.000001    0.00  0.000001  (-0.000001 -0.000001 -0.000725)
 17:    430.00   0.000140    0.71  0.000102  ( 0.001012  0.010024  0.000000)
 18:    432.48   0.000006    0.03  0.000004  (-0.000000  0.000000 -0.002013)
 19:    489.04   0.001271    6.42  0.000811  (-0.017316  0.022607 -0.000000)
 20:    535.41   0.000956    4.83  0.000557  ( 0.000001  0.000000  0.023605)
 21:    567.30   0.003302   16.69  0.001816  (-0.035326 -0.023841  0.000001)
 22:    631.70   0.000360    1.82  0.000178  (-0.004806  0.012435 -0.000000)
 23:    634.71   0.000045    0.23  0.000022  (-0.000000 -0.000000 -0.004701)
 24:    652.49   0.000768    3.88  0.000367  (-0.014625  0.012382 -0.000000)
 25:    659.60   0.000384    1.94  0.000182  ( 0.000000 -0.000001 -0.013485)
 26:    695.54   0.000437    2.21  0.000196  (-0.000000 -0.000000 -0.014006)
 27:    720.11   0.002820   14.25  0.001222  ( 0.000594 -0.000118  0.034955)
 28:    720.43   0.010152   51.30  0.004397  ( 0.065038 -0.012932 -0.000318)
 29:    730.22   0.009695   49.00  0.004143  (-0.025417 -0.059137 -0.000000)
 30:    748.85   0.011638   58.81  0.004850  (-0.069610  0.002015 -0.000000)
 31:    797.24   0.003048   15.40  0.001193  (-0.000069  0.000022 -0.034541)
 32:    798.51   0.013493   68.19  0.005273  (-0.069041  0.022501  0.000035)
 33:    868.48   0.000058    0.29  0.000021  (-0.004263  0.001587  0.000035)
 34:    868.59   0.000028    0.14  0.000010  ( 0.000048 -0.000019  0.003149)
 35:    871.91   0.000018    0.09  0.000006  ( 0.000000  0.000000 -0.002508)
 36:    952.87   0.000186    0.94  0.000061  ( 0.000048 -0.000031  0.007811)
 37:    953.31   0.001408    7.12  0.000461  ( 0.018128 -0.011501 -0.000023)
 38:    973.42   0.006844   34.59  0.002194  (-0.003378 -0.046718  0.000000)
 39:    977.71   0.000412    2.08  0.000131  ( 0.000000  0.000001  0.011463)
 40:   1004.80   0.000058    0.29  0.000018  ( 0.003308 -0.002679 -0.000057)
 41:   1004.99   0.000030    0.15  0.000009  ( 0.000062 -0.000052  0.003041)
 42:   1023.30   0.000178    0.90  0.000054  ( 0.005802 -0.004554 -0.000030)
 43:   1023.45   0.000002    0.01  0.000001  (-0.000212  0.000167 -0.000775)
 44:   1030.77   0.000001    0.00  0.000000  (-0.000356 -0.000379  0.000001)
 45:   1031.17   0.000006    0.03  0.000002  ( 0.000001 -0.000000  0.001376)
 46:   1064.30   0.000115    0.58  0.000034  (-0.000000 -0.000000  0.005795)
 47:   1066.98   0.001531    7.74  0.000448  ( 0.001038 -0.021133 -0.000000)
 48:   1100.90   0.000923    4.66  0.000262  ( 0.000000  0.000002  0.016174)
 49:   1101.86   0.002235   11.29  0.000633  (-0.007730 -0.023941  0.000002)
 50:   1121.82   0.003032   15.32  0.000844  (-0.000002  0.000001  0.029044)
 51:   1124.05   0.000937    4.74  0.000260  ( 0.011611 -0.011198  0.000003)
 52:   1144.50   0.001514    7.65  0.000413  ( 0.000000 -0.000000  0.020315)
 53:   1179.73   0.000043    0.22  0.000011  (-0.000000 -0.000001 -0.003387)
 54:   1180.15   0.000080    0.40  0.000021  ( 0.001301  0.004407 -0.000001)
 55:   1206.88   0.000004    0.02  0.000001  (-0.000888 -0.000457  0.000005)
 56:   1206.91   0.000018    0.09  0.000005  ( 0.000002  0.000001  0.002159)
 57:   1281.21   0.000851    4.30  0.000207  ( 0.002662  0.014149  0.000000)
 58:   1297.66   0.000868    4.38  0.000209  (-0.000000  0.000000 -0.014444)
 59:   1305.91   0.020575  103.98  0.004917  (-0.000351  0.070119  0.000000)
 60:   1326.93   0.001620    8.19  0.000381  (-0.002457 -0.019363 -0.000000)
 61:   1341.66   0.001283    6.48  0.000298  (-0.000000 -0.000000  0.017273)
 62:   1368.08   0.003679   18.59  0.000839  (-0.000017  0.028970  0.000000)
 63:   1384.91   0.000658    3.33  0.000148  ( 0.000000 -0.000000 -0.012176)
 64:   1426.28   0.000145    0.73  0.000032  ( 0.000000 -0.000000  0.005624)
 65:   1459.30   0.026710  134.98  0.005712  ( 0.000336  0.075575 -0.000000)
 66:   1513.73   0.000471    2.38  0.000097  ( 0.008508 -0.004974 -0.000001)
 67:   1517.01   0.000765    3.87  0.000157  (-0.000000 -0.000000 -0.012549)
 68:   1560.06   0.051048  257.97  0.010211  (-0.000336  0.101050  0.000000)
 69:   1566.23   0.001571    7.94  0.000313  ( 0.000000 -0.000000  0.017693)
 70:   1650.38   0.001729    8.74  0.000327  (-0.000000  0.000000 -0.018079)
 71:   1682.17   0.001136    5.74  0.000211  ( 0.008630  0.011670 -0.000000)
 72:   1687.80   0.000290    1.47  0.000054  ( 0.000000 -0.000003 -0.007326)
 73:   1694.95   0.025556  129.15  0.004705  ( 0.001434 -0.068580 -0.000001)
 74:   1698.66   0.001637    8.27  0.000301  (-0.000000  0.000005 -0.017343)
 75:   3205.56   0.000544    2.75  0.000053  ( 0.000444 -0.007263  0.000002)
 76:   3205.62   0.000050    0.25  0.000005  (-0.000000  0.000007  0.002198)
 77:   3214.02   0.001634    8.26  0.000159  ( 0.006177  0.010979  0.000056)
 78:   3214.06   0.000895    4.52  0.000087  ( 0.000038  0.000067 -0.009324)
 79:   3223.82   0.003016   15.24  0.000292  (-0.008361  0.014902 -0.000106)
 80:   3223.92   0.003977   20.10  0.000385  (-0.000045  0.000082  0.019621)
 81:   3232.85   0.003856   19.49  0.000372  (-0.004402 -0.018783 -0.000000)
 82:   3232.93   0.000036    0.18  0.000003  (-0.000003 -0.000009  0.001858)
 83:   3246.07   0.000033    0.17  0.000003  ( 0.000267 -0.000634 -0.001636)
 84:   3246.08   0.000358    1.81  0.000034  ( 0.002275 -0.005407  0.000192)
 85:   3300.25   0.000879    4.44  0.000083  (-0.000239  0.009111  0.000000)
 86:   3321.53   0.000000    0.00  0.000000  (-0.000000 -0.000000  0.000160)

* The epsilon (eps) is given for a Dirac delta lineshape.
** The dipole moment derivative (T) already includes vibrational overlap.

The first frequency considered to be a vibration is 6
The total number of vibrations considered is 81


--------------------------
THERMOCHEMISTRY AT 298.15K
--------------------------

Temperature         ... 298.15 K
Pressure            ... 1.00 atm
Total Mass          ... 220.28 AMU

Throughout the following assumptions are being made:
  (1) The electronic state is orbitally nondegenerate
  (2) There are no thermally accessible electronically excited states
  (3) Hindered rotations indicated by low frequency modes are not
      treated as such but are treated as vibrations and this may
      cause some error
  (4) All equations used are the standard statistical mechanics
      equations for an ideal gas
  (5) All vibrations are strictly harmonic

freq.      19.44  E(vib)   ...       0.57 
freq.      35.72  E(vib)   ...       0.54 
freq.      74.55  E(vib)   ...       0.49 
freq.      90.24  E(vib)   ...       0.47 
freq.     133.95  E(vib)   ...       0.42 
freq.     179.02  E(vib)   ...       0.37 
freq.     259.49  E(vib)   ...       0.30 
freq.     292.34  E(vib)   ...       0.27 
freq.     311.01  E(vib)   ...       0.26 
freq.     419.18  E(vib)   ...       0.18 
freq.     423.48  E(vib)   ...       0.18 
freq.     430.00  E(vib)   ...       0.18 
freq.     432.48  E(vib)   ...       0.18 
freq.     489.04  E(vib)   ...       0.15 
freq.     535.41  E(vib)   ...       0.13 
freq.     567.30  E(vib)   ...       0.11 
freq.     631.70  E(vib)   ...       0.09 
freq.     634.71  E(vib)   ...       0.09 
freq.     652.49  E(vib)   ...       0.08 
freq.     659.60  E(vib)   ...       0.08 
freq.     695.54  E(vib)   ...       0.07 
freq.     720.11  E(vib)   ...       0.07 
freq.     720.43  E(vib)   ...       0.07 
freq.     730.22  E(vib)   ...       0.06 
freq.     748.85  E(vib)   ...       0.06 
freq.     797.24  E(vib)   ...       0.05 
freq.     798.51  E(vib)   ...       0.05 
freq.     868.48  E(vib)   ...       0.04 
freq.     868.59  E(vib)   ...       0.04 
freq.     871.91  E(vib)   ...       0.04 
freq.     952.87  E(vib)   ...       0.03 
freq.     953.31  E(vib)   ...       0.03 
freq.     973.42  E(vib)   ...       0.03 
freq.     977.71  E(vib)   ...       0.03 
freq.    1004.80  E(vib)   ...       0.02 
freq.    1004.99  E(vib)   ...       0.02 
freq.    1023.30  E(vib)   ...       0.02 
freq.    1023.45  E(vib)   ...       0.02 
freq.    1030.77  E(vib)   ...       0.02 
freq.    1031.17  E(vib)   ...       0.02 
freq.    1064.30  E(vib)   ...       0.02 
freq.    1066.98  E(vib)   ...       0.02 
freq.    1100.90  E(vib)   ...       0.02 
freq.    1101.86  E(vib)   ...       0.02 
freq.    1121.82  E(vib)   ...       0.01 
freq.    1124.05  E(vib)   ...       0.01 
freq.    1144.50  E(vib)   ...       0.01 
freq.    1179.73  E(vib)   ...       0.01 
freq.    1180.15  E(vib)   ...       0.01 
freq.    1206.88  E(vib)   ...       0.01 
freq.    1206.91  E(vib)   ...       0.01 
freq.    1281.21  E(vib)   ...       0.01 
freq.    1297.66  E(vib)   ...       0.01 
freq.    1305.91  E(vib)   ...       0.01 
freq.    1326.93  E(vib)   ...       0.01 
freq.    1341.66  E(vib)   ...       0.01 
freq.    1368.08  E(vib)   ...       0.01 
freq.    1384.91  E(vib)   ...       0.00 
freq.    1426.28  E(vib)   ...       0.00 
freq.    1459.30  E(vib)   ...       0.00 
freq.    1513.73  E(vib)   ...       0.00 
freq.    1517.01  E(vib)   ...       0.00 
freq.    1560.06  E(vib)   ...       0.00 
freq.    1566.23  E(vib)   ...       0.00 
freq.    1650.38  E(vib)   ...       0.00 
freq.    1682.17  E(vib)   ...       0.00 
freq.    1687.80  E(vib)   ...       0.00 
freq.    1694.95  E(vib)   ...       0.00 
freq.    1698.66  E(vib)   ...       0.00 
freq.    3205.56  E(vib)   ...       0.00 
freq.    3205.62  E(vib)   ...       0.00 
freq.    3214.02  E(vib)   ...       0.00 
freq.    3214.06  E(vib)   ...       0.00 
freq.    3223.82  E(vib)   ...       0.00 
freq.    3223.92  E(vib)   ...       0.00 
freq.    3232.85  E(vib)   ...       0.00 
freq.    3232.93  E(vib)   ...       0.00 
freq.    3246.07  E(vib)   ...       0.00 
freq.    3246.08  E(vib)   ...       0.00 
freq.    3300.25  E(vib)   ...       0.00 
freq.    3321.53  E(vib)   ...       0.00 

------------
INNER ENERGY
------------

The inner energy is: U= E(el) + E(ZPE) + E(vib) + E(rot) + E(trans)
    E(el)   - is the total energy from the electronic structure calculation
              = E(kin-el) + E(nuc-el) + E(el-el) + E(nuc-nuc)
    E(ZPE)  - the the zero temperature vibrational energy from the frequency calculation
    E(vib)  - the the finite temperature correction to E(ZPE) due to population
              of excited vibrational states
    E(rot)  - is the rotational thermal energy
    E(trans)- is the translational thermal energy

Summary of contributions to the inner energy U:
Electronic energy                ...   -688.33484379 Eh
Zero point energy                ...      0.23509453 Eh     147.52 kcal/mol
Thermal vibrational correction   ...      0.00976388 Eh       6.13 kcal/mol
Thermal rotational correction    ...      0.00141627 Eh       0.89 kcal/mol
Thermal translational correction ...      0.00141627 Eh       0.89 kcal/mol
-----------------------------------------------------------------------
Total thermal energy                   -688.08715283 Eh


Summary of corrections to the electronic energy:
(perhaps to be used in another calculation)
Total thermal correction                  0.01259642 Eh       7.90 kcal/mol
Non-thermal (ZPE) correction              0.23509453 Eh     147.52 kcal/mol
-----------------------------------------------------------------------
Total correction                          0.24769096 Eh     155.43 kcal/mol


--------
ENTHALPY
--------

The enthalpy is H = U + kB*T
                kB is Boltzmann's constant
Total free energy                 ...   -688.08715283 Eh 
Thermal Enthalpy correction       ...      0.00094421 Eh       0.59 kcal/mol
-----------------------------------------------------------------------
Total Enthalpy                    ...   -688.08620862 Eh


Note: Rotational entropy computed according to Herzberg 
Infrared and Raman Spectra, Chapter V,1, Van Nostrand Reinhold, 1945 
Point Group:  C2, Symmetry Number:   2  
Rotational constants in cm-1:     0.055350     0.006958     0.006375 

Vibrational entropy computed according to the QRRHO of S. Grimme
Chem.Eur.J. 2012 18 9955


-------
ENTROPY
-------

The entropy contributions are T*S = T*(S(el)+S(vib)+S(rot)+S(trans))
     S(el)   - electronic entropy
     S(vib)  - vibrational entropy
     S(rot)  - rotational entropy
     S(trans)- translational entropy
The entropies will be listed as multiplied by the temperature to get
units of energy

Electronic entropy                ...      0.00000000 Eh      0.00 kcal/mol
Vibrational entropy               ...      0.01687802 Eh     10.59 kcal/mol
Rotational entropy                ...      0.01495448 Eh      9.38 kcal/mol
Translational entropy             ...      0.01998968 Eh     12.54 kcal/mol
-----------------------------------------------------------------------
Final entropy term                ...      0.05182219 Eh     32.52 kcal/mol

In case the symmetry of your molecule has not been determined correctly
or in case you have a reason to use a different symmetry number we print 
out the resulting rotational entropy values for sn=1,12 :
 --------------------------------------------------------
|  sn= 1 | S(rot)=       0.01560894 Eh      9.79 kcal/mol|
|  sn= 2 | S(rot)=       0.01495448 Eh      9.38 kcal/mol|
|  sn= 3 | S(rot)=       0.01457165 Eh      9.14 kcal/mol|
|  sn= 4 | S(rot)=       0.01430003 Eh      8.97 kcal/mol|
|  sn= 5 | S(rot)=       0.01408934 Eh      8.84 kcal/mol|
|  sn= 6 | S(rot)=       0.01391719 Eh      8.73 kcal/mol|
|  sn= 7 | S(rot)=       0.01377165 Eh      8.64 kcal/mol|
|  sn= 8 | S(rot)=       0.01364557 Eh      8.56 kcal/mol|
|  sn= 9 | S(rot)=       0.01353436 Eh      8.49 kcal/mol|
|  sn=10 | S(rot)=       0.01343488 Eh      8.43 kcal/mol|
|  sn=11 | S(rot)=       0.01334489 Eh      8.37 kcal/mol|
|  sn=12 | S(rot)=       0.01326274 Eh      8.32 kcal/mol|
 --------------------------------------------------------


-------------------
GIBBS FREE ENERGY
-------------------

The Gibbs free energy is G = H - T*S

Total enthalpy                    ...   -688.08620862 Eh 
Total entropy correction          ...     -0.05182219 Eh    -32.52 kcal/mol
-----------------------------------------------------------------------
Final Gibbs free energy         ...   -688.13803080 Eh

For completeness - the Gibbs free energy minus the electronic energy
G-E(el)                           ...      0.19681298 Eh    123.50 kcal/mol


Timings for individual modules:

Sum of individual times         ...     6077.419 sec (= 101.290 min)
GTO integral calculation        ...        8.089 sec (=   0.135 min)   0.1 %
SCF iterations                  ...     2400.779 sec (=  40.013 min)  39.5 %
SCF Gradient evaluation         ...      560.138 sec (=   9.336 min)   9.2 %
Geometry relaxation             ...        0.448 sec (=   0.007 min)   0.0 %
Analytical frequency calculation...     3107.965 sec (=  51.799 min)  51.1 %
                             ****ORCA TERMINATED NORMALLY****
TOTAL RUN TIME: 0 days 1 hours 41 minutes 20 seconds 674 msec
