
                                 *****************
                                 * O   R   C   A *
                                 *****************

                                            #,                                       
                                            ###                                      
                                            ####                                     
                                            #####                                    
                                            ######                                   
                                           ########,                                 
                                     ,,################,,,,,                         
                               ,,#################################,,                 
                          ,,##########################################,,             
                       ,#########################################, ''#####,          
                    ,#############################################,,   '####,        
                  ,##################################################,,,,####,       
                ,###########''''           ''''###############################       
              ,#####''   ,,,,##########,,,,          '''####'''          '####       
            ,##' ,,,,###########################,,,                        '##       
           ' ,,###''''                  '''############,,,                           
         ,,##''                                '''############,,,,        ,,,,,,###''
      ,#''                                            '''#######################'''  
     '                                                          ''''####''''         
             ,#######,   #######,   ,#######,      ##                                
            ,#'     '#,  ##    ##  ,#'     '#,    #''#        ######   ,####,        
            ##       ##  ##   ,#'  ##            #'  '#       #        #'  '#        
            ##       ##  #######   ##           ,######,      #####,   #    #        
            '#,     ,#'  ##    ##  '#,     ,#' ,#      #,         ##   #,  ,#        
             '#######'   ##     ##  '#######'  #'      '#     #####' # '####'        



                  #######################################################
                  #                        -***-                        #
                  #          Department of theory and spectroscopy      #
                  #    Directorship and core code : Frank Neese         #
                  #        Max Planck Institute fuer Kohlenforschung    #
                  #                Kaiser Wilhelm Platz 1               #
                  #                 D-45470 Muelheim/Ruhr               #
                  #                      Germany                        #
                  #                                                     #
                  #                  All rights reserved                #
                  #                        -***-                        #
                  #######################################################


                         Program Version 5.0.4 -  RELEASE  -


 With contributions from (in alphabetic order):
   Daniel Aravena         : Magnetic Suceptibility
   Michael Atanasov       : Ab Initio Ligand Field Theory (pilot matlab implementation)
   Alexander A. Auer      : GIAO ZORA, VPT2 properties, NMR spectrum
   Ute Becker             : Parallelization
   Giovanni Bistoni       : ED, misc. LED, open-shell LED, HFLD
   Martin Brehm           : Molecular dynamics
   Dmytro Bykov           : SCF Hessian
   Vijay G. Chilkuri      : MRCI spin determinant printing, contributions to CSF-ICE
   Dipayan Datta          : RHF DLPNO-CCSD density
   Achintya Kumar Dutta   : EOM-CC, STEOM-CC
   Dmitry Ganyushin       : Spin-Orbit,Spin-Spin,Magnetic field MRCI
   Miquel Garcia          : C-PCM and meta-GGA Hessian, CC/C-PCM, Gaussian charge scheme
   Yang Guo               : DLPNO-NEVPT2, F12-NEVPT2, CIM, IAO-localization
   Andreas Hansen         : Spin unrestricted coupled pair/coupled cluster methods
   Benjamin Helmich-Paris : MC-RPA, TRAH-SCF, COSX integrals
   Lee Huntington         : MR-EOM, pCC
   Robert Izsak           : Overlap fitted RIJCOSX, COSX-SCS-MP3, EOM
   Marcus Kettner         : VPT2
   Christian Kollmar      : KDIIS, OOCD, Brueckner-CCSD(T), CCSD density, CASPT2, CASPT2-K
   Simone Kossmann        : Meta GGA functionals, TD-DFT gradient, OOMP2, MP2 Hessian
   Martin Krupicka        : Initial AUTO-CI
   Lucas Lang             : DCDCAS
   Marvin Lechner         : AUTO-CI (C++ implementation), FIC-MRCC
   Dagmar Lenk            : GEPOL surface, SMD
   Dimitrios Liakos       : Extrapolation schemes; Compound Job, initial MDCI parallelization
   Dimitrios Manganas     : Further ROCIS development; embedding schemes
   Dimitrios Pantazis     : SARC Basis sets
   Anastasios Papadopoulos: AUTO-CI, single reference methods and gradients
   Taras Petrenko         : DFT Hessian,TD-DFT gradient, ASA, ECA, R-Raman, ABS, FL, XAS/XES, NRVS
   Peter Pinski           : DLPNO-MP2, DLPNO-MP2 Gradient
   Christoph Reimann      : Effective Core Potentials
   Marius Retegan         : Local ZFS, SOC
   Christoph Riplinger    : Optimizer, TS searches, QM/MM, DLPNO-CCSD(T), (RO)-DLPNO pert. Triples
   Tobias Risthaus        : Range-separated hybrids, TD-DFT gradient, RPA, STAB
   Michael Roemelt        : Original ROCIS implementation
   Masaaki Saitow         : Open-shell DLPNO-CCSD energy and density
   Barbara Sandhoefer     : DKH picture change effects
   Avijit Sen             : IP-ROCIS
   Kantharuban Sivalingam : CASSCF convergence, NEVPT2, FIC-MRCI
   Bernardo de Souza      : ESD, SOC TD-DFT
   Georgi Stoychev        : AutoAux, RI-MP2 NMR, DLPNO-MP2 response
   Willem Van den Heuvel  : Paramagnetic NMR
   Boris Wezisla          : Elementary symmetry handling
   Frank Wennmohs         : Technical directorship


 We gratefully acknowledge several colleagues who have allowed us to
 interface, adapt or use parts of their codes:
   Stefan Grimme, W. Hujo, H. Kruse, P. Pracht,  : VdW corrections, initial TS optimization,
                  C. Bannwarth, S. Ehlert          DFT functionals, gCP, sTDA/sTD-DF
   Ed Valeev, F. Pavosevic, A. Kumar             : LibInt (2-el integral package), F12 methods
   Garnet Chan, S. Sharma, J. Yang, R. Olivares  : DMRG
   Ulf Ekstrom                                   : XCFun DFT Library
   Mihaly Kallay                                 : mrcc  (arbitrary order and MRCC methods)
   Jiri Pittner, Ondrej Demel                    : Mk-CCSD
   Frank Weinhold                                : gennbo (NPA and NBO analysis)
   Christopher J. Cramer and Donald G. Truhlar   : smd solvation model
   Lars Goerigk                                  : TD-DFT with DH, B97 family of functionals
   V. Asgeirsson, H. Jonsson                     : NEB implementation
   FAccTs GmbH                                   : IRC, NEB, NEB-TS, DLPNO-Multilevel, CI-OPT
                                                   MM, QMMM, 2- and 3-layer-ONIOM, Crystal-QMMM,
                                                   LR-CPCM, SF, NACMEs, symmetry and pop. for TD-DFT,
                                                   nearIR, NL-DFT gradient (VV10), updates on ESD,
                                                   ML-optimized integration grids
   S Lehtola, MJT Oliveira, MAL Marques          : LibXC Library
   Liviu Ungur et al                             : ANISO software


 Your calculation uses the libint2 library for the computation of 2-el integrals
 For citations please refer to: http://libint.valeyev.net

 Your ORCA version has been built with support for libXC version: 5.1.0
 For citations please refer to: https://tddft.org/programs/libxc/

 This ORCA versions uses:
   CBLAS   interface :  Fast vector & matrix operations
   LAPACKE interface :  Fast linear algebra routines
   SCALAPACK package :  Parallel linear algebra routines
   Shared memory     :  Shared parallel matrices
   BLAS/LAPACK       :  OpenBLAS 0.3.15  USE64BITINT DYNAMIC_ARCH NO_AFFINITY SkylakeX SINGLE_THREADED
        Core in use  :  SkylakeX
   Copyright (c) 2011-2014, The OpenBLAS Project




***************************************
The coordinates will be read from file: 8_deprot.xyz
***************************************


Your calculation utilizes the atom-pairwise dispersion correction
based on tight binding partial charges (D4)
Cite in your paper:
E.Caldeweyher, C.Bannwarth, S.Grimme, J.Chem.Phys., (2017), 147, 034112.
E.Caldeweyher, S.Ehlert, A.Hansen, H.Neugebauer, S.Grimme, J.Chem.Phys., (2018), in progress.
   

XCFun DFT library Copyright 2009-2010 Ulf Ekstrom and contributors.
See http://admol.org/xcfun for more information.
This is free software; see the source code for copying conditions.
There is ABSOLUTELY NO WARRANTY; not even for MERCHANTABILITY or FITNESS FOR A PARTICULAR PURPOSE.
For details see the documentation.
Scientific users of this library should cite U. Ekstrom, L. Visscher, R. Bast, A. J. Thorvaldsen and K. Ruud;
J.Chem.Theor.Comp. 2010, DOI: 10.1021/ct100117s
XCFun Version 0.99 

================================================================================

----- Orbital basis set information -----
Your calculation utilizes the basis: def2-TZVP
   F. Weigend and R. Ahlrichs, Phys. Chem. Chem. Phys. 7, 3297 (2005).

----- AuxJ basis set information -----
Your calculation utilizes the auxiliary basis: def2/J
   F. Weigend, Phys. Chem. Chem. Phys. 8, 1057 (2006).

================================================================================
                                        WARNINGS
                       Please study these warnings very carefully!
================================================================================

WARNING: Old DensityContainer found on disk!
         Will remove this file - 
         If you want to keep old densities, please start your calculation with a different basename. 


WARNING: Geometry Optimization
  ===> : Switching off AutoStart
         For restart on a previous wavefunction, please use MOREAD

INFO   : the flag for use of the SHARK integral package has been found!

================================================================================
                                       INPUT FILE
================================================================================
NAME = 8_deprot.inp
|  1> # ORCA 5.0.4 - /users/bwb16179/postgrad/2024_06/pKa_Reviewer_Comments/Gas_Z=0/8_deprot.inp # write input file
|  2> # Basic Mode
|  3> #
|  4> ! Opt Freq wB97X Def2-TZVP D4 SlowConv TightSCF Defgrid2 Def2/J RIJCOSX 
|  5> 
|  6> %PAL NPROCS 4 END
|  7> 
|  8> %maxcore 4500
|  9> 
| 10> %geom
| 11> Maxiter 150
| 12> END
| 13> 
| 14> * xyzfile 0 1 8_deprot.xyz
| 15> 
| 16>                          ****END OF INPUT****
================================================================================

                       *****************************
                       * Geometry Optimization Run *
                       *****************************

Geometry optimization settings:
Update method            Update   .... BFGS
Choice of coordinates    CoordSys .... Z-matrix Internals
Initial Hessian          InHess   .... Almoef's Model

Convergence Tolerances:
Energy Change            TolE     ....  5.0000e-06 Eh
Max. Gradient            TolMAXG  ....  3.0000e-04 Eh/bohr
RMS Gradient             TolRMSG  ....  1.0000e-04 Eh/bohr
Max. Displacement        TolMAXD  ....  4.0000e-03 bohr
RMS Displacement         TolRMSD  ....  2.0000e-03 bohr
Strict Convergence                ....  False
------------------------------------------------------------------------------
                        ORCA OPTIMIZATION COORDINATE SETUP
------------------------------------------------------------------------------

The optimization will be done in new redundant internal coordinates
Making redundant internal coordinates   ...  (new redundants) done
Evaluating the initial hessian          ...  (Almloef) done
Evaluating the coordinates              ...  done
Calculating the B-matrix                .... done
Calculating the G-matrix                .... done
Diagonalizing the G-matrix              .... done
Small eigenvalue found = 3.374e-03
Small eigenvalue found = 6.444e-03
Small eigenvalue found = 8.531e-03
Small eigenvalue found = 1.318e-02
Small eigenvalue found = 1.774e-02
The first mode is                       ....   95
The number of degrees of freedom        ....  117

    -----------------------------------------------------------------
                    Redundant Internal Coordinates


    -----------------------------------------------------------------
         Definition                    Initial Value    Approx d2E/dq
    -----------------------------------------------------------------
      1. B(C   1,C   0)                  1.3447         0.738014   
      2. B(H   3,C   0)                  1.0772         0.377414   
      3. B(H   4,C   1)                  1.0772         0.377382   
      4. B(N   5,C   2)                  1.3589         0.627226   
      5. B(N   5,C   0)                  1.3862         0.567537   
      6. B(N   6,C   2)                  1.3579         0.629679   
      7. B(N   6,C   1)                  1.3863         0.567218   
      8. B(C   7,N   5)                  1.4300         0.483069   
      9. B(C   8,C   7)                  1.3933         0.617359   
     10. B(C   9,C   7)                  1.3940         0.615588   
     11. B(C  10,C   8)                  1.3900         0.624857   
     12. B(C  11,C   9)                  1.3892         0.626567   
     13. B(C  12,C  11)                  1.3846         0.637279   
     14. B(C  12,C  10)                  1.3843         0.637995   
     15. B(H  13,C  10)                  1.0842         0.367889   
     16. B(H  14,C  11)                  1.0842         0.367872   
     17. B(H  15,C  12)                  1.0835         0.368857   
     18. B(C  16,N   6)                  1.4302         0.482790   
     19. B(C  17,C  16)                  1.3931         0.617701   
     20. B(C  18,C  16)                  1.3935         0.616819   
     21. B(C  19,C  17)                  1.3897         0.625484   
     22. B(C  20,C  18)                  1.3895         0.625871   
     23. B(C  21,C  20)                  1.3847         0.637154   
     24. B(C  21,C  19)                  1.3847         0.637014   
     25. B(H  22,C  19)                  1.0842         0.367903   
     26. B(H  23,C  20)                  1.0842         0.367798   
     27. B(H  24,C  21)                  1.0835         0.368799   
     28. B(C  25,C   9)                  1.5018         0.414362   
     29. B(H  26,C  25)                  1.0918         0.357702   
     30. B(H  27,C  25)                  1.0923         0.357134   
     31. B(H  28,C  25)                  1.0896         0.360623   
     32. B(C  29,C  18)                  1.5024         0.413391   
     33. B(H  30,C  29)                  1.0921         0.357394   
     34. B(H  31,C  29)                  1.0922         0.357198   
     35. B(H  32,C  29)                  1.0895         0.360813   
     36. B(C  33,C   8)                  1.5026         0.413143   
     37. B(H  34,C  33)                  1.0923         0.357040   
     38. B(H  35,C  33)                  1.0919         0.357602   
     39. B(H  36,C  33)                  1.0895         0.360815   
     40. B(C  37,C  17)                  1.5024         0.413466   
     41. B(H  38,C  37)                  1.0920         0.357414   
     42. B(H  39,C  37)                  1.0921         0.357319   
     43. B(H  40,C  37)                  1.0895         0.360803   
     44. A(C   1,C   0,N   5)          106.0393         0.437940   
     45. A(H   3,C   0,N   5)          122.6743         0.348293   
     46. A(C   1,C   0,H   3)          131.2861         0.366458   
     47. A(H   4,C   1,N   6)          122.6257         0.348255   
     48. A(C   0,C   1,H   4)          131.3668         0.366453   
     49. A(C   0,C   1,N   6)          106.0073         0.437895   
     50. A(N   5,C   2,N   6)          101.9049         0.430497   
     51. A(C   0,N   5,C   7)          123.5059         0.403415   
     52. A(C   0,N   5,C   2)          112.9992         0.422560   
     53. A(C   2,N   5,C   7)          123.4823         0.410613   
     54. A(C   2,N   6,C  16)          123.4798         0.410855   
     55. A(C   1,N   6,C  16)          123.4579         0.403334   
     56. A(C   1,N   6,C   2)          113.0480         0.422812   
     57. A(N   5,C   7,C   9)          118.6760         0.411910   
     58. A(C   8,C   7,C   9)          122.3574         0.433176   
     59. A(N   5,C   7,C   8)          118.9666         0.412120   
     60. A(C   7,C   8,C  33)          120.8970         0.403472   
     61. A(C   7,C   8,C  10)          117.9692         0.434342   
     62. A(C  10,C   8,C  33)          121.1260         0.404332   
     63. A(C   7,C   9,C  11)          117.9437         0.434331   
     64. A(C   7,C   9,C  25)          120.8124         0.403477   
     65. A(C  11,C   9,C  25)          121.2400         0.404738   
     66. A(C  12,C  10,H  13)          120.0432         0.355913   
     67. A(C   8,C  10,H  13)          119.2058         0.354659   
     68. A(C   8,C  10,C  12)          120.7488         0.436922   
     69. A(C   9,C  11,C  12)          120.7858         0.437049   
     70. A(C  12,C  11,H  14)          120.0394         0.355842   
     71. A(C   9,C  11,H  14)          119.1748         0.354821   
     72. A(C  11,C  12,H  15)          119.8957         0.356004   
     73. A(C  10,C  12,H  15)          119.9152         0.356072   
     74. A(C  10,C  12,C  11)          120.1879         0.438475   
     75. A(C  17,C  16,C  18)          122.4331         0.433375   
     76. A(N   6,C  16,C  18)          118.6691         0.412013   
     77. A(N   6,C  16,C  17)          118.8978         0.412118   
     78. A(C  16,C  17,C  19)          117.9179         0.434464   
     79. A(C  19,C  17,C  37)          121.3546         0.404459   
     80. A(C  16,C  17,C  37)          120.7157         0.403567   
     81. A(C  20,C  18,C  29)          121.3008         0.404490   
     82. A(C  16,C  18,C  29)          120.7408         0.403452   
     83. A(C  16,C  18,C  20)          117.9441         0.434401   
     84. A(C  21,C  19,H  22)          120.0220         0.355823   
     85. A(C  17,C  19,H  22)          119.2261         0.354722   
     86. A(C  17,C  19,C  21)          120.7510         0.436879   
     87. A(C  21,C  20,H  23)          120.0740         0.355818   
     88. A(C  18,C  20,H  23)          119.2006         0.354742   
     89. A(C  18,C  20,C  21)          120.7252         0.436946   
     90. A(C  20,C  21,H  24)          119.9139         0.355983   
     91. A(C  19,C  21,H  24)          119.8617         0.355969   
     92. A(C  19,C  21,C  20)          120.2231         0.438338   
     93. A(H  27,C  25,H  28)          108.3783         0.290528   
     94. A(H  26,C  25,H  28)          108.7919         0.290601   
     95. A(C   9,C  25,H  28)          110.7734         0.329982   
     96. A(H  26,C  25,H  27)          107.0054         0.290158   
     97. A(C   9,C  25,H  27)          111.3997         0.329453   
     98. A(C   9,C  25,H  26)          110.3719         0.329539   
     99. A(H  31,C  29,H  32)          108.6009         0.290560   
    100. A(H  30,C  29,H  32)          108.3439         0.290585   
    101. A(C  18,C  29,H  32)          110.8089         0.329883   
    102. A(H  30,C  29,H  31)          106.9724         0.290126   
    103. A(C  18,C  29,H  31)          110.3472         0.329335   
    104. A(C  18,C  29,H  30)          111.6345         0.329364   
    105. A(C   8,C  33,H  36)          110.6631         0.329851   
    106. A(H  34,C  33,H  35)          107.0301         0.290133   
    107. A(C   8,C  33,H  35)          110.7511         0.329363   
    108. A(C   8,C  33,H  34)          111.6839         0.329278   
    109. A(H  35,C  33,H  36)          108.5384         0.290612   
    110. A(H  34,C  33,H  36)          108.0314         0.290540   
    111. A(H  39,C  37,H  40)          108.2703         0.290574   
    112. A(H  38,C  37,H  40)          108.5489         0.290587   
    113. A(C  17,C  37,H  40)          110.7908         0.329891   
    114. A(H  38,C  37,H  39)          107.0461         0.290144   
    115. A(C  17,C  37,H  39)          111.6505         0.329363   
    116. A(C  17,C  37,H  38)          110.4000         0.329377   
    117. D(H   4,C   1,C   0,N   5)   -179.8740         0.038724   
    118. D(H   4,C   1,C   0,H   3)     -0.1041         0.038724   
    119. D(N   6,C   1,C   0,N   5)     -0.0402         0.038724   
    120. D(N   6,C   1,C   0,H   3)    179.7297         0.038724   
    121. D(C   7,N   5,C   0,C   1)    179.0142         0.025764   
    122. D(C   2,N   5,C   0,H   3)   -179.5269         0.025764   
    123. D(C   2,N   5,C   0,C   1)      0.2677         0.025764   
    124. D(C   0,N   5,C   2,N   6)     -0.3683         0.028913   
    125. D(C   7,N   5,C   2,N   6)   -179.1152         0.028913   
    126. D(C   7,N   5,C   0,H   3)     -0.7804         0.025764   
    127. D(C   1,N   6,C   2,N   5)      0.3417         0.029157   
    128. D(C  16,N   6,C   1,C   0)   -178.8621         0.025733   
    129. D(C  16,N   6,C   1,H   4)      0.9898         0.025733   
    130. D(C  16,N   6,C   2,N   5)    179.0058         0.029157   
    131. D(C   2,N   6,C   1,H   4)    179.6543         0.025733   
    132. D(C   2,N   6,C   1,C   0)     -0.1976         0.025733   
    133. D(C   9,C   7,N   5,C   2)     78.4935         0.018414   
    134. D(C   9,C   7,N   5,C   0)   -100.1231         0.018414   
    135. D(C   8,C   7,N   5,C   2)   -101.5110         0.018414   
    136. D(C   8,C   7,N   5,C   0)     79.8724         0.018414   
    137. D(C  33,C   8,C   7,C   9)   -178.0184         0.026360   
    138. D(C  33,C   8,C   7,N   5)      1.9863         0.026360   
    139. D(C  10,C   8,C   7,C   9)      0.9807         0.026360   
    140. D(C  10,C   8,C   7,N   5)   -179.0146         0.026360   
    141. D(C  25,C   9,C   7,C   8)    178.5162         0.026200   
    142. D(C  25,C   9,C   7,N   5)     -1.4885         0.026200   
    143. D(C  11,C   9,C   7,C   8)     -0.7719         0.026200   
    144. D(C  11,C   9,C   7,N   5)    179.2234         0.026200   
    145. D(H  13,C  10,C   8,C   7)   -179.8953         0.027044   
    146. D(C  12,C  10,C   8,C  33)    178.5498         0.027044   
    147. D(C  12,C  10,C   8,C   7)     -0.4469         0.027044   
    148. D(H  13,C  10,C   8,C  33)     -0.8986         0.027044   
    149. D(H  14,C  11,C   9,C  25)      0.6570         0.027201   
    150. D(H  14,C  11,C   9,C   7)    179.9419         0.027201   
    151. D(C  12,C  11,C   9,C  25)   -179.2610         0.027201   
    152. D(C  12,C  11,C   9,C   7)      0.0239         0.027201   
    153. D(H  15,C  12,C  11,H  14)      0.1720         0.028201   
    154. D(C  10,C  12,C  11,H  14)   -179.4330         0.028201   
    155. D(C  10,C  12,C  11,C   9)      0.4843         0.028201   
    156. D(H  15,C  12,C  10,H  13)     -0.4271         0.028269   
    157. D(C  11,C  12,C  10,H  13)    179.1778         0.028269   
    158. D(H  15,C  12,C  11,C   9)   -179.9108         0.028201   
    159. D(H  15,C  12,C  10,C   8)   -179.8709         0.028269   
    160. D(C  11,C  12,C  10,C   8)     -0.2660         0.028269   
    161. D(C  18,C  16,N   6,C   2)    -87.8185         0.018392   
    162. D(C  18,C  16,N   6,C   1)     90.7081         0.018392   
    163. D(C  17,C  16,N   6,C   2)     92.1886         0.018392   
    164. D(C  17,C  16,N   6,C   1)    -89.2848         0.018392   
    165. D(C  37,C  17,C  16,C  18)    177.9809         0.026391   
    166. D(C  37,C  17,C  16,N   6)     -2.0265         0.026391   
    167. D(C  19,C  17,C  16,C  18)     -0.7902         0.026391   
    168. D(C  19,C  17,C  16,N   6)    179.2023         0.026391   
    169. D(C  29,C  18,C  16,C  17)   -177.9830         0.026311   
    170. D(C  29,C  18,C  16,N   6)      2.0244         0.026311   
    171. D(C  20,C  18,C  16,C  17)      0.6633         0.026311   
    172. D(C  20,C  18,C  16,N   6)   -179.3292         0.026311   
    173. D(H  22,C  19,C  17,C  37)      1.1573         0.027101   
    174. D(H  22,C  19,C  17,C  16)    179.9202         0.027101   
    175. D(C  21,C  19,C  17,C  37)   -178.5040         0.027101   
    176. D(C  21,C  19,C  17,C  16)      0.2589         0.027101   
    177. D(H  23,C  20,C  18,C  16)   -179.8352         0.027137   
    178. D(C  21,C  20,C  18,C  29)    178.6369         0.027137   
    179. D(C  21,C  20,C  18,C  16)     -0.0015         0.027137   
    180. D(H  23,C  20,C  18,C  29)     -1.1968         0.027137   
    181. D(H  24,C  21,C  20,H  23)     -0.2712         0.028189   
    182. D(H  24,C  21,C  20,C  18)    179.8967         0.028189   
    183. D(C  19,C  21,C  20,H  23)    179.3248         0.028189   
    184. D(C  19,C  21,C  20,C  18)     -0.5074         0.028189   
    185. D(H  24,C  21,C  19,H  22)      0.3121         0.028176   
    186. D(H  24,C  21,C  19,C  17)    179.9708         0.028176   
    187. D(C  20,C  21,C  19,H  22)   -179.2841         0.028176   
    188. D(C  20,C  21,C  19,C  17)      0.3746         0.028176   
    189. D(H  28,C  25,C   9,C  11)     -5.9507         0.012707   
    190. D(H  28,C  25,C   9,C   7)    174.7849         0.012707   
    191. D(H  27,C  25,C   9,C  11)   -126.6703         0.012707   
    192. D(H  27,C  25,C   9,C   7)     54.0653         0.012707   
    193. D(H  26,C  25,C   9,C  11)    114.6051         0.012707   
    194. D(H  26,C  25,C   9,C   7)    -64.6593         0.012707   
    195. D(H  32,C  29,C  18,C  20)      4.5673         0.012649   
    196. D(H  32,C  29,C  18,C  16)   -176.8322         0.012649   
    197. D(H  31,C  29,C  18,C  20)   -115.7561         0.012649   
    198. D(H  31,C  29,C  18,C  16)     62.8444         0.012649   
    199. D(H  30,C  29,C  18,C  20)    125.4265         0.012649   
    200. D(H  30,C  29,C  18,C  16)    -55.9730         0.012649   
    201. D(H  36,C  33,C   8,C  10)     -6.8716         0.012635   
    202. D(H  36,C  33,C   8,C   7)    172.0958         0.012635   
    203. D(H  35,C  33,C   8,C  10)   -127.2867         0.012635   
    204. D(H  35,C  33,C   8,C   7)     51.6806         0.012635   
    205. D(H  34,C  33,C   8,C  10)    113.5240         0.012635   
    206. D(H  34,C  33,C   8,C   7)    -67.5086         0.012635   
    207. D(H  40,C  37,C  17,C  19)     -1.0774         0.012654   
    208. D(H  40,C  37,C  17,C  16)   -179.8059         0.012654   
    209. D(H  39,C  37,C  17,C  19)   -121.8415         0.012654   
    210. D(H  39,C  37,C  17,C  16)     59.4300         0.012654   
    211. D(H  38,C  37,C  17,C  19)    119.2037         0.012654   
    212. D(H  38,C  37,C  17,C  16)    -59.5248         0.012654   
    -----------------------------------------------------------------

Number of atoms                         .... 41
Number of degrees of freedom            .... 212

         *************************************************************
         *                GEOMETRY OPTIMIZATION CYCLE   1            *
         *************************************************************
---------------------------------
CARTESIAN COORDINATES (ANGSTROEM)
---------------------------------
  C      0.423669    0.829760   -1.701861
  C      0.300957   -0.502485   -1.836748
  C     -0.113582   -0.008254    0.359517
  H      0.669828    1.596881   -2.416932
  H      0.415638   -1.144825   -2.693890
  N      0.165433    1.105066   -0.368079
  N     -0.026289   -0.985524   -0.579186
  C      0.215352    2.420558    0.190469
  C     -0.870432    3.273806    0.005493
  C      1.351805    2.802634    0.901695
  C     -0.791265    4.554744    0.539307
  C      1.391051    4.089473    1.423675
  C      0.330997    4.961187    1.240481
  H     -1.625485    5.234783    0.408698
  H      2.264971    4.407278    1.981105
  H      0.377493    5.962108    1.652644
  C     -0.221871   -2.373253   -0.293891
  C     -1.496048   -2.917385   -0.439306
  C      0.871775   -3.131341    0.119722
  C     -1.659574   -4.271493   -0.172998
  C      0.667716   -4.481101    0.379159
  C     -0.586377   -5.048624    0.229233
  H     -2.642485   -4.716737   -0.278138
  H      1.504017   -5.089503    0.704779
  H     -0.730297   -6.102914    0.433530
  C      2.488692    1.843352    1.108213
  H      2.166787    0.998644    1.720515
  H      2.841926    1.433777    0.159273
  H      3.325395    2.336332    1.602316
  C      2.220104   -2.495594    0.307171
  H      2.555287   -1.987618   -0.599578
  H      2.178486   -1.742857    1.097463
  H      2.965903   -3.242358    0.577455
  C     -2.097480    2.812976   -0.729203
  H     -1.892411    2.638772   -1.787867
  H     -2.465370    1.871777   -0.315636
  H     -2.890569    3.556448   -0.657217
  C     -2.657314   -2.054524   -0.844378
  H     -2.807235   -1.252678   -0.118353
  H     -2.488606   -1.581081   -1.813963
  H     -3.572733   -2.642040   -0.905832

----------------------------
CARTESIAN COORDINATES (A.U.)
----------------------------
  NO LB      ZA    FRAG     MASS         X           Y           Z
   0 C     6.0000    0    12.011    0.800618    1.568019   -3.216051
   1 C     6.0000    0    12.011    0.568727   -0.949559   -3.470951
   2 C     6.0000    0    12.011   -0.214638   -0.015598    0.679389
   3 H     1.0000    0     1.008    1.265792    3.017668   -4.567339
   4 H     1.0000    0     1.008    0.785442   -2.163406   -5.090715
   5 N     7.0000    0    14.007    0.312622    2.088272   -0.695569
   6 N     7.0000    0    14.007   -0.049678   -1.862370   -1.094504
   7 C     6.0000    0    12.011    0.406956    4.574191    0.359934
   8 C     6.0000    0    12.011   -1.644877    6.186596    0.010380
   9 C     6.0000    0    12.011    2.554542    5.296211    1.703956
  10 C     6.0000    0    12.011   -1.495274    8.607218    1.019142
  11 C     6.0000    0    12.011    2.628706    7.727985    2.690355
  12 C     6.0000    0    12.011    0.625494    9.375285    2.344169
  13 H     1.0000    0     1.008   -3.071722    9.892306    0.772327
  14 H     1.0000    0     1.008    4.280174    8.328548    3.743745
  15 H     1.0000    0     1.008    0.713359   11.266752    3.123045
  16 C     6.0000    0    12.011   -0.419276   -4.484798   -0.555374
  17 C     6.0000    0    12.011   -2.827121   -5.513059   -0.830167
  18 C     6.0000    0    12.011    1.647417   -5.917377    0.226243
  19 C     6.0000    0    12.011   -3.136140   -8.071952   -0.326918
  20 C     6.0000    0    12.011    1.261800   -8.468053    0.716506
  21 C     6.0000    0    12.011   -1.108091   -9.540516    0.433188
  22 H     1.0000    0     1.008   -4.993574   -8.913341   -0.525604
  23 H     1.0000    0     1.008    2.842180   -9.617766    1.331840
  24 H     1.0000    0     1.008   -1.380061  -11.532835    0.819253
  25 C     6.0000    0    12.011    4.702946    3.483431    2.094220
  26 H     1.0000    0     1.008    4.094634    1.887164    3.251302
  27 H     1.0000    0     1.008    5.370461    2.709446    0.300983
  28 H     1.0000    0     1.008    6.284086    4.415027    3.027938
  29 C     6.0000    0    12.011    4.195388   -4.715988    0.580469
  30 H     1.0000    0     1.008    4.828794   -3.756054   -1.133038
  31 H     1.0000    0     1.008    4.116742   -3.293523    2.073905
  32 H     1.0000    0     1.008    5.604744   -6.127169    1.091232
  33 C     6.0000    0    12.011   -3.963663    5.315754   -1.377994
  34 H     1.0000    0     1.008   -3.576139    4.986556   -3.378579
  35 H     1.0000    0     1.008   -4.658875    3.537147   -0.596466
  36 H     1.0000    0     1.008   -5.462385    6.720713   -1.241961
  37 C     6.0000    0    12.011   -5.021596   -3.882488   -1.595643
  38 H     1.0000    0     1.008   -5.304906   -2.367218   -0.223654
  39 H     1.0000    0     1.008   -4.702783   -2.987811   -3.427894
  40 H     1.0000    0     1.008   -6.751487   -4.992731   -1.711774

--------------------------------
INTERNAL COORDINATES (ANGSTROEM)
--------------------------------
 C      0   0   0     0.000000000000     0.00000000     0.00000000
 C      1   0   0     1.344666734337     0.00000000     0.00000000
 C      2   1   0     2.289036665766    72.92410603     0.00000000
 H      1   2   3     1.077216506466   131.28606458   179.61687180
 H      2   1   3     1.077239555850   131.36681319   180.27899420
 N      3   2   1     1.358943398990    68.03689121     0.16177054
 N      3   2   1     1.357880926480    33.86862118   179.80127606
 C      6   3   2     1.430030429642   123.48226597   181.09014697
 C      8   6   3     1.393259854151   118.96663492   258.48896311
 C      8   6   3     1.394041754464   118.67596623    78.49351777
 C      9   8   6     1.389973590346   117.96920625   180.98538687
 C     10   8   6     1.389229569754   117.94365634   179.22340163
 C     11   9   8     1.384309674641   120.74877135   359.55308553
 H     11   9   8     1.084175035508   119.20577341   180.10467293
 H     12  10   8     1.084187755679   119.17475028   179.94186064
 H     13  11   9     1.083459250987   119.91516700   180.12912447
 C      7   3   2     1.430187872250   123.47981072   178.66414506
 C     17   7   3     1.393108982316   118.89782487    92.18863429
 C     17   7   3     1.393497963541   118.66908902   272.18145843
 C     18  17   7     1.389700728901   117.91792695   179.20231418
 C     19  17   7     1.389532126165   117.94411586   180.67078437
 C     21  19  17     1.384668783201   120.72518084     0.00000000
 H     20  18  17     1.084164233674   119.22610931   179.92024327
 H     21  19  17     1.084242304027   119.20064365   180.16483352
 H     22  21  19     1.083502527455   119.91394009   179.89665189
 C     10   8   6     1.501792794463   120.81237324   358.51149811
 H     26  10   8     1.091818600382   110.37191643   295.34066772
 H     26  10   8     1.092251559014   111.39965423    54.06525978
 H     26  10   8     1.089604590888   110.77337024   174.78490331
 C     19  17   7     1.502431826697   120.74082737     2.02440839
 H     30  19  17     1.092053538597   111.63446483   304.02704376
 H     30  19  17     1.092202301154   110.34718653    62.84439898
 H     30  19  17     1.089461531738   110.80893410   183.16781957
 C      9   8   6     1.502594691561   120.89702791     1.98628830
 H     34   9   8     1.092322762292   111.68393547   292.49136028
 H     34   9   8     1.091895212774   110.75106339    51.68058341
 H     34   9   8     1.089460246463   110.66306341   172.09575727
 C     18  17   7     1.502382056123   120.71571701   357.97348382
 H     38  18  17     1.092037826695   110.39998951   300.47517636
 H     38  18  17     1.092110534691   111.65054158    59.43003961
 H     38  18  17     1.089469204385   110.79080941   180.19408190

---------------------------
INTERNAL COORDINATES (A.U.)
---------------------------
 C      0   0   0     0.000000000000     0.00000000     0.00000000
 C      1   0   0     2.541051869291     0.00000000     0.00000000
 C      2   1   0     4.325652408803    72.92410603     0.00000000
 H      1   2   3     2.035644184160   131.28606458   179.61687180
 H      2   1   3     2.035687741183   131.36681319   180.27899420
 N      3   2   1     2.568030855590    68.03689121     0.16177054
 N      3   2   1     2.566023073523    33.86862118   179.80127606
 C      6   3   2     2.702365875196   123.48226597   181.09014697
 C      8   6   3     2.632879557733   118.96663492   258.48896311
 C      8   6   3     2.634357135187   118.67596623    78.49351777
 C      9   8   6     2.626669419136   117.96920625   180.98538687
 C     10   8   6     2.625263423981   117.94365634   179.22340163
 C     11   9   8     2.615966169610   120.74877135   359.55308553
 H     11   9   8     2.048793898344   119.20577341   180.10467293
 H     12  10   8     2.048817935984   119.17475028   179.94186064
 H     13  11   9     2.047441261628   119.91516700   180.12912447
 C      7   3   2     2.702663398609   123.47981072   178.66414506
 C     17   7   3     2.632594451282   118.89782487    92.18863429
 C     17   7   3     2.633329519270   118.66908902   272.18145843
 C     18  17   7     2.626153785733   117.91792695   179.20231418
 C     19  17   7     2.625835172736   117.94411586   180.67078437
 C     21  19  17     2.616644786440   120.72518084     0.00000000
 H     20  18  17     2.048773485837   119.22610931   179.92024327
 H     21  19  17     2.048921017424   119.20064365   180.16483352
 H     22  21  19     2.047523042302   119.91394009   179.89665189
 C     10   8   6     2.837977091432   120.81237324   358.51149811
 H     26  10   8     2.063238142643   110.37191643   295.34066772
 H     26  10   8     2.064056315886   111.39965423    54.06525978
 H     26  10   8     2.059054271041   110.77337024   174.78490331
 C     19  17   7     2.839184687345   120.74082737     2.02440839
 H     30  19  17     2.063682111529   111.63446483   304.02704376
 H     30  19  17     2.063963232019   110.34718653    62.84439898
 H     30  19  17     2.058783928427   110.80893410   183.16781957
 C      9   8   6     2.839492457334   120.89702791     1.98628830
 H     34   9   8     2.064190870580   111.68393547   292.49136028
 H     34   9   8     2.063382919082   110.75106339    51.68058341
 H     34   9   8     2.058781499610   110.66306341   172.09575727
 C     18  17   7     2.839090634590   120.71571701   357.97348382
 H     38  18  17     2.063652420336   110.39998951   300.47517636
 H     38  18  17     2.063789818537   111.65054158    59.43003961
 H     38  18  17     2.058798427630   110.79080941   180.19408190

---------------------
BASIS SET INFORMATION
---------------------
There are 3 groups of distinct atoms

 Group   1 Type C   : 11s6p2d1f contracted to 5s3p2d1f pattern {62111/411/11/1}
 Group   2 Type H   : 5s1p contracted to 3s1p pattern {311/1}
 Group   3 Type N   : 11s6p2d1f contracted to 5s3p2d1f pattern {62111/411/11/1}

Atom   0C    basis set group =>   1
Atom   1C    basis set group =>   1
Atom   2C    basis set group =>   1
Atom   3H    basis set group =>   2
Atom   4H    basis set group =>   2
Atom   5N    basis set group =>   3
Atom   6N    basis set group =>   3
Atom   7C    basis set group =>   1
Atom   8C    basis set group =>   1
Atom   9C    basis set group =>   1
Atom  10C    basis set group =>   1
Atom  11C    basis set group =>   1
Atom  12C    basis set group =>   1
Atom  13H    basis set group =>   2
Atom  14H    basis set group =>   2
Atom  15H    basis set group =>   2
Atom  16C    basis set group =>   1
Atom  17C    basis set group =>   1
Atom  18C    basis set group =>   1
Atom  19C    basis set group =>   1
Atom  20C    basis set group =>   1
Atom  21C    basis set group =>   1
Atom  22H    basis set group =>   2
Atom  23H    basis set group =>   2
Atom  24H    basis set group =>   2
Atom  25C    basis set group =>   1
Atom  26H    basis set group =>   2
Atom  27H    basis set group =>   2
Atom  28H    basis set group =>   2
Atom  29C    basis set group =>   1
Atom  30H    basis set group =>   2
Atom  31H    basis set group =>   2
Atom  32H    basis set group =>   2
Atom  33C    basis set group =>   1
Atom  34H    basis set group =>   2
Atom  35H    basis set group =>   2
Atom  36H    basis set group =>   2
Atom  37C    basis set group =>   1
Atom  38H    basis set group =>   2
Atom  39H    basis set group =>   2
Atom  40H    basis set group =>   2
---------------------------------
AUXILIARY/J BASIS SET INFORMATION
---------------------------------
There are 3 groups of distinct atoms

 Group   1 Type C   : 12s5p4d2f1g contracted to 6s4p3d1f1g pattern {711111/2111/211/2/1}
 Group   2 Type H   : 5s2p1d contracted to 3s1p1d pattern {311/2/1}
 Group   3 Type N   : 12s5p4d2f1g contracted to 6s4p3d1f1g pattern {711111/2111/211/2/1}

Atom   0C    basis set group =>   1
Atom   1C    basis set group =>   1
Atom   2C    basis set group =>   1
Atom   3H    basis set group =>   2
Atom   4H    basis set group =>   2
Atom   5N    basis set group =>   3
Atom   6N    basis set group =>   3
Atom   7C    basis set group =>   1
Atom   8C    basis set group =>   1
Atom   9C    basis set group =>   1
Atom  10C    basis set group =>   1
Atom  11C    basis set group =>   1
Atom  12C    basis set group =>   1
Atom  13H    basis set group =>   2
Atom  14H    basis set group =>   2
Atom  15H    basis set group =>   2
Atom  16C    basis set group =>   1
Atom  17C    basis set group =>   1
Atom  18C    basis set group =>   1
Atom  19C    basis set group =>   1
Atom  20C    basis set group =>   1
Atom  21C    basis set group =>   1
Atom  22H    basis set group =>   2
Atom  23H    basis set group =>   2
Atom  24H    basis set group =>   2
Atom  25C    basis set group =>   1
Atom  26H    basis set group =>   2
Atom  27H    basis set group =>   2
Atom  28H    basis set group =>   2
Atom  29C    basis set group =>   1
Atom  30H    basis set group =>   2
Atom  31H    basis set group =>   2
Atom  32H    basis set group =>   2
Atom  33C    basis set group =>   1
Atom  34H    basis set group =>   2
Atom  35H    basis set group =>   2
Atom  36H    basis set group =>   2
Atom  37C    basis set group =>   1
Atom  38H    basis set group =>   2
Atom  39H    basis set group =>   2
Atom  40H    basis set group =>   2


           ************************************************************
           *        Program running with 4 parallel MPI-processes     *
           *              working on a common directory               *
           ************************************************************
------------------------------------------------------------------------------
                           ORCA GTO INTEGRAL CALCULATION
                           -- RI-GTO INTEGRALS CHOSEN --
------------------------------------------------------------------------------
------------------------------------------------------------------------------
                   ___                                                        
                  /   \      - P O W E R E D   B Y -                         
                 /     \                                                     
                 |  |  |   _    _      __       _____    __    __             
                 |  |  |  | |  | |    /  \     |  _  \  |  |  /  |          
                  \  \/   | |  | |   /    \    | | | |  |  | /  /          
                 / \  \   | |__| |  /  /\  \   | |_| |  |  |/  /          
                |  |  |   |  __  | /  /__\  \  |    /   |      \           
                |  |  |   | |  | | |   __   |  |    \   |  |\   \          
                \     /   | |  | | |  |  |  |  | |\  \  |  | \   \       
                 \___/    |_|  |_| |__|  |__|  |_| \__\ |__|  \__/        
                                                                              
                      - O R C A' S   B I G   F R I E N D -                    
                                      &                                       
                       - I N T E G R A L  F E E D E R -                       
                                                                              
 v1 FN, 2020, v2 2021                                                         
------------------------------------------------------------------------------


Reading SHARK input file 8_deprot.SHARKINP.tmp ... ok
----------------------
SHARK INTEGRAL PACKAGE
----------------------

Number of atoms                             ...     41
Number of basis functions                   ...    771
Number of shells                            ...    311
Maximum angular momentum                    ...      3
Integral batch strategy                     ... SHARK/LIBINT Hybrid
RI-J (if used) integral strategy            ... SPLIT-RIJ (Revised 2003 algorithm where possible)
Printlevel                                  ...      1
Contraction scheme used                     ... SEGMENTED contraction
Coulomb Range Separation                    ... NOT USED
Exchange Range Separation                   ... Long Range
   Mu parameter                             ...  0.300000
   Scaling (regular/separated)              ...  0.157706  0.842294
Finite Nucleus Model                        ... NOT USED
Auxiliary Coulomb fitting basis             ... AVAILABLE
   # of basis functions in Aux-J            ...   1249
   # of shells in Aux-J                     ...    415
   Maximum angular momentum in Aux-J        ...      4
Auxiliary J/K fitting basis                 ... NOT available
Auxiliary Correlation fitting basis         ... NOT available
Auxiliary 'external' fitting basis          ... NOT available
Integral threshold                          ...     2.500000e-11
Primitive cut-off                           ...     2.500000e-12
Primitive pair pre-selection threshold      ...     2.500000e-12

Calculating pre-screening integrals         ... done (  0.1 sec) Dimension = 311
Organizing shell pair data                  ... done (  0.3 sec)
Shell pair information
Total number of shell pairs                 ...     48516
Shell pairs after pre-screening             ...     35286
Total number of primitive shell pairs       ...    146592
Primitive shell pairs kept                  ...     71750
          la=0 lb=0:   9632 shell pairs
          la=1 lb=0:  10242 shell pairs
          la=1 lb=1:   2763 shell pairs
          la=2 lb=0:   4954 shell pairs
          la=2 lb=1:   2634 shell pairs
          la=2 lb=2:    659 shell pairs
          la=3 lb=0:   2339 shell pairs
          la=3 lb=1:   1292 shell pairs
          la=3 lb=2:    613 shell pairs
          la=3 lb=3:    158 shell pairs

Calculating one electron integrals          ... done (  0.1 sec)
Calculating RI/J V-Matrix + Cholesky decomp.... done (  0.1 sec)
Calculating Nuclear repulsion               ... done (  0.0 sec) ENN=   1599.290600124670 Eh

SHARK setup successfully completed in   1.3 seconds

Maximum memory used throughout the entire GTOINT-calculation: 53.5 MB


           ************************************************************
           *        Program running with 4 parallel MPI-processes     *
           *              working on a common directory               *
           ************************************************************
-------------------------------------------------------------------------------
                                 ORCA SCF
-------------------------------------------------------------------------------

------------
SCF SETTINGS
------------
Hamiltonian:
 Density Functional     Method          .... DFT(GTOs)
 Exchange Functional    Exchange        .... WB97X
 Correlation Functional Correlation     .... WB97X
 Gradients option       PostSCFGGA      .... off
 Hybrid DFT is turned on
   Fraction HF Exchange ScalHFX         ....  0.157706
   Scaling of DF-GGA-X  ScalDFX         ....  0.000000
   Scaling of DF-GGA-C  ScalDFC         ....  1.000000
   Scaling of DF-LDA-C  ScalLDAC        ....  1.000000
   Perturbative correction              ....  0.000000
   Density functional embedding theory  .... OFF
 Long-range corrected/Screened/Range-Separated Hybrid DFT is turned on
   Amount of maximum screened exact exchange              ....  0.842294
   Range separation parameter mu (erf(mu*r12)/r12)        ....  0.300000
 RI-approximation to the Coulomb term is turned on
   Number of AuxJ basis functions       .... 1249
   RIJ-COSX (HFX calculated with COS-X)).... on


General Settings:
 Integral files         IntName         .... 8_deprot
 Hartree-Fock type      HFTyp           .... RHF
 Total Charge           Charge          ....    0
 Multiplicity           Mult            ....    1
 Number of Electrons    NEL             ....  148
 Basis Dimension        Dim             ....  771
 Nuclear Repulsion      ENuc            ....   1599.2906001247 Eh

Convergence Acceleration:
 DIIS                   CNVDIIS         .... on
   Start iteration      DIISMaxIt       ....     0
   Startup error        DIISStart       ....  0.200000
   # of expansion vecs  DIISMaxEq       ....     5
   Bias factor          DIISBfac        ....   1.050
   Max. coefficient     DIISMaxC        ....  10.000
 Trust-Rad. Augm. Hess. CNVTRAH         .... auto
   Auto Start mean grad. ratio tolernc. ....  1.125000
   Auto Start start iteration           ....    20
   Auto Start num. interpolation iter.  ....    10
   Max. Number of Micro iterations      ....    16
   Max. Number of Macro iterations      .... Maxiter - #DIIS iter
   Number of Davidson start vectors     ....     2
   Converg. threshold I  (grad. norm)   ....   1.000e-05
   Converg. threshold II (energy diff.) ....   1.000e-08
   Grad. Scal. Fac. for Micro threshold ....   0.100
   Minimum threshold for Micro iter.    ....   0.010
   NR start threshold (gradient norm)   ....   0.001
   Initial trust radius                 ....   0.400
   Minimum AH scaling param. (alpha)    ....   1.000
   Maximum AH scaling param. (alpha)    .... 1000.000
   Orbital update algorithm             .... Taylor
   White noise on init. David. guess    .... on
   Maximum white noise                  ....   0.010
   Quad. conv. algorithm                .... NR
 SOSCF                  CNVSOSCF        .... on
   Start iteration      SOSCFMaxIt      ....   150
   Startup grad/error   SOSCFStart      ....  0.001000
 Level Shifting         CNVShift        .... on
   Level shift para.    LevelShift      ....    0.2500
   Turn off err/grad.   ShiftErr        ....    0.0000
 Zerner damping         CNVZerner       .... off
 Static damping         CNVDamp         .... on
   Fraction old density DampFac         ....    0.8500
   Max. Damping (<1)    DampMax         ....    0.9800
   Min. Damping (>=0)   DampMin         ....    0.0000
   Turn off err/grad.   DampErr         ....    0.0300
 Fernandez-Rico         CNVRico         .... off

SCF Procedure:
 Maximum # iterations   MaxIter         ....   125
 SCF integral mode      SCFMode         .... Direct
   Integral package                     .... SHARK and LIBINT hybrid scheme
 Reset frequency        DirectResetFreq ....    20
 Integral Threshold     Thresh          ....  2.500e-11 Eh
 Primitive CutOff       TCut            ....  2.500e-12 Eh

Convergence Tolerance:
 Convergence Check Mode ConvCheckMode   .... Total+1el-Energy
 Convergence forced     ConvForced      .... 0
 Energy Change          TolE            ....  1.000e-08 Eh
 1-El. energy change                    ....  1.000e-05 Eh
 Orbital Gradient       TolG            ....  1.000e-05
 Orbital Rotation angle TolX            ....  1.000e-05
 DIIS Error             TolErr          ....  5.000e-07


Diagonalization of the overlap matrix:
Smallest eigenvalue                        ... 3.815e-06
Time for diagonalization                   ...    0.127 sec
Threshold for overlap eigenvalues          ... 1.000e-08
Number of eigenvalues below threshold      ... 0
Time for construction of square roots      ...    0.057 sec
Total time needed                          ...    0.188 sec

Time for model grid setup =    0.525 sec

------------------------------
INITIAL GUESS: MODEL POTENTIAL
------------------------------
Loading Hartree-Fock densities                     ... done
Calculating cut-offs                               ... done
Initializing the effective Hamiltonian             ... done
Setting up the integral package (SHARK)            ... done
Starting the Coulomb interaction                   ... done (   1.4 sec)
Reading the grid                                   ... done
Mapping shells                                     ... done
Starting the XC term evaluation                    ... done (   0.8 sec)
  promolecular density results
     # of electrons  =    147.998627992
     EX              =   -116.253249566
     EC              =     -4.941353878
     EX+EC           =   -121.194603444
Transforming the Hamiltonian                       ... done (   0.1 sec)
Diagonalizing the Hamiltonian                      ... done (   0.1 sec)
Back transforming the eigenvectors                 ... done (   0.0 sec)
Now organizing SCF variables                       ... done
                      ------------------
                      INITIAL GUESS DONE (   3.0 sec)
                      ------------------
-------------------
DFT GRID GENERATION
-------------------

General Integration Accuracy     IntAcc      ... 4.388
Radial Grid Type                 RadialGrid  ... OptM3 with GC (2021)
Angular Grid (max. ang.)         AngularGrid ... 4 (Lebedev-302)
Angular grid pruning method      GridPruning ... 4 (adaptive)
Weight generation scheme         WeightScheme... Becke
Basis function cutoff            BFCut       ... 1.0000e-11
Integration weight cutoff        WCut        ... 1.0000e-14
Angular grids for H and He will be reduced by one unit
Partially contracted basis set               ... off
Rotationally invariant grid construction     ... off

Total number of grid points                  ...   188693
Total number of batches                      ...     2968
Average number of points per batch           ...       63
Average number of grid points per atom       ...     4602
Time for grid setup =    1.979 sec

--------------------
COSX GRID GENERATION
--------------------

GRIDX 1
-------
General Integration Accuracy     IntAcc      ... 3.816
Radial Grid Type                 RadialGrid  ... OptM3 with GC (2021)
Angular Grid (max. ang.)         AngularGrid ... 1 (Lebedev-50)
Angular grid pruning method      GridPruning ... 4 (adaptive)
Weight generation scheme         WeightScheme... Becke
Basis function cutoff            BFCut       ... 1.0000e-11
Integration weight cutoff        WCut        ... 1.0000e-14
Angular grids for H and He will be reduced by one unit
Partially contracted basis set               ... on
Rotationally invariant grid construction     ... off

Total number of grid points                  ...    24002
Total number of batches                      ...      392
Average number of points per batch           ...       61
Average number of grid points per atom       ...      585
UseSFitting                                  ... on

GRIDX 2
-------
General Integration Accuracy     IntAcc      ... 4.020
Radial Grid Type                 RadialGrid  ... OptM3 with GC (2021)
Angular Grid (max. ang.)         AngularGrid ... 2 (Lebedev-110)
Angular grid pruning method      GridPruning ... 4 (adaptive)
Weight generation scheme         WeightScheme... Becke
Basis function cutoff            BFCut       ... 1.0000e-11
Integration weight cutoff        WCut        ... 1.0000e-14
Angular grids for H and He will be reduced by one unit
Partially contracted basis set               ... on
Rotationally invariant grid construction     ... off

Total number of grid points                  ...    51362
Total number of batches                      ...      821
Average number of points per batch           ...       62
Average number of grid points per atom       ...     1253
UseSFitting                                  ... on

GRIDX 3
-------
General Integration Accuracy     IntAcc      ... 4.338
Radial Grid Type                 RadialGrid  ... OptM3 with GC (2021)
Angular Grid (max. ang.)         AngularGrid ... 3 (Lebedev-194)
Angular grid pruning method      GridPruning ... 4 (adaptive)
Weight generation scheme         WeightScheme... Becke
Basis function cutoff            BFCut       ... 1.0000e-11
Integration weight cutoff        WCut        ... 1.0000e-14
Angular grids for H and He will be reduced by one unit
Partially contracted basis set               ... on
Rotationally invariant grid construction     ... off

Total number of grid points                  ...   112040
Total number of batches                      ...     1777
Average number of points per batch           ...       63
Average number of grid points per atom       ...     2733
UseSFitting                                  ... on

Time for X-Grid setup             =    2.984 sec

--------------
SCF ITERATIONS
--------------
ITER       Energy         Delta-E        Max-DP      RMS-DP      [F,P]     Damp
               ***  Starting incremental Fock matrix formation  ***
  0   -845.1310204830   0.000000000000 0.03993607  0.00034619  0.1726759 0.8500
  1   -845.2284474227  -0.097426939732 0.04170253  0.00033919  0.1394807 0.8500
                               ***Turning on DIIS***
  2   -845.3033319777  -0.074884555003 0.03475677  0.00027876  0.1075501 0.8500
  3   -845.3592977239  -0.055965746240 0.02662898  0.00021707  0.0819192 0.8500
  4   -845.4025993834  -0.043301659454 0.02080981  0.00017961  0.0654165 0.8500
  5   -845.4367720903  -0.034172706950 0.01685466  0.00015372  0.0541946 0.8500
  6   -845.4645535903  -0.027781500014 0.01391071  0.00013271  0.0456586 0.8500
  7   -845.4875384331  -0.022984842708 0.01156029  0.00011505  0.0387312 0.8500
  8   -845.5067579246  -0.019219491578 0.00964621  0.00009920  0.0328054 0.8500
  9   -845.5228699752  -0.016112050571 0.05375871  0.00056643  0.0277236 0.0000
 10   -845.6102065687  -0.087336593474 0.00196488  0.00002361  0.0011727 0.0000
                      *** Initiating the SOSCF procedure ***
                           *** Shutting down DIIS ***
                      *** Re-Reading the Fockian *** 
                      *** Removing any level shift *** 
ITER      Energy       Delta-E        Grad      Rot      Max-DP    RMS-DP
 11   -845.61023623  -0.0000296578  0.000300  0.000300  0.000707  0.000009
               *** Restarting incremental Fock matrix formation ***
 12   -845.61024367  -0.0000074476  0.000174  0.000401  0.020504  0.000252
 13   -845.61024541  -0.0000017371  0.000083  0.000321  0.005045  0.000062
 14   -845.61024567  -0.0000002625  0.000040  0.000081  0.003417  0.000042
 15   -845.61024576  -0.0000000911  0.000011  0.000019  0.000748  0.000009
 16   -845.61024579  -0.0000000226  0.000005  0.000009  0.000073  0.000001
 17   -845.61024579  -0.0000000009  0.000003  0.000005  0.000132  0.000002
                 **** Energy Check signals convergence ****
              ***Rediagonalizing the Fockian in SOSCF/NRSCF***

               *****************************************************
               *                     SUCCESS                       *
               *           SCF CONVERGED AFTER  18 CYCLES          *
               *****************************************************

Old exchange energy                            =    -38.217018169 Eh
New exchange energy                            =    -38.216999791 Eh
Exchange energy change after final integration =      0.000018378 Eh
Total energy after final integration           =   -845.610227405 Eh
Final COS-X integration done in                =   129.794 sec

----------------
TOTAL SCF ENERGY
----------------

Total Energy       :         -845.61022741 Eh          -23010.22410 eV

Components:
Nuclear Repulsion  :         1599.29060012 Eh           43518.90969 eV
Electronic Energy  :        -2444.90082753 Eh          -66529.13379 eV
One Electron Energy:        -4319.01535823 Eh         -117526.38282 eV
Two Electron Energy:         1874.11453070 Eh           50997.24903 eV
Max COSX asymmetry :            0.00000113 Eh               0.00003 eV

Virial components:
Potential Energy   :        -1687.66049976 Eh          -45923.57691 eV
Kinetic Energy     :          842.05027236 Eh           22913.35280 eV
Virial Ratio       :            2.00422772


DFT components:
N(Alpha)           :       73.999825512294 electrons
N(Beta)            :       73.999825512294 electrons
N(Total)           :      147.999651024587 electrons
E(XC)              :      -86.251183664579 Eh       
DFET-embed. en.    :        0.000000000000 Eh       

---------------
SCF CONVERGENCE
---------------

  Last Energy change         ...    5.4287e-09  Tolerance :   1.0000e-08
  Last MAX-Density change    ...    1.1727e-15  Tolerance :   1.0000e-07
  Last RMS-Density change    ...    1.1590e-17  Tolerance :   5.0000e-09
  Last Orbital Gradient      ...    3.8469e-07  Tolerance :   1.0000e-05
  Last Orbital Rotation      ...    1.3282e-06  Tolerance :   1.0000e-05

             **** THE GBW FILE WAS UPDATED (8_deprot.gbw) ****
             **** DENSITY 8_deprot.scfp WAS UPDATED ****
             **** ENERGY FILE WAS UPDATED (8_deprot.en.tmp) ****
             **** THE GBW FILE WAS UPDATED (8_deprot.gbw) ****
             **** DENSITY 8_deprot.scfp WAS UPDATED ****
----------------
ORBITAL ENERGIES
----------------

  NO   OCC          E(Eh)            E(eV) 
   0   2.0000     -14.441190      -392.9648 
   1   2.0000     -14.441032      -392.9605 
   2   2.0000     -10.292448      -280.0717 
   3   2.0000     -10.292210      -280.0653 
   4   2.0000     -10.287437      -279.9354 
   5   2.0000     -10.286631      -279.9134 
   6   2.0000     -10.271706      -279.5073 
   7   2.0000     -10.271495      -279.5016 
   8   2.0000     -10.271415      -279.4994 
   9   2.0000     -10.270710      -279.4802 
  10   2.0000     -10.265863      -279.3483 
  11   2.0000     -10.258793      -279.1560 
  12   2.0000     -10.258407      -279.1455 
  13   2.0000     -10.254582      -279.0414 
  14   2.0000     -10.254578      -279.0413 
  15   2.0000     -10.254514      -279.0395 
  16   2.0000     -10.254002      -279.0256 
  17   2.0000     -10.251586      -278.9598 
  18   2.0000     -10.249879      -278.9134 
  19   2.0000     -10.249674      -278.9078 
  20   2.0000     -10.247266      -278.8423 
  21   2.0000      -1.164489       -31.6873 
  22   2.0000      -1.065294       -28.9881 
  23   2.0000      -1.004327       -27.3291 
  24   2.0000      -0.983512       -26.7627 
  25   2.0000      -0.920724       -25.0542 
  26   2.0000      -0.920325       -25.0433 
  27   2.0000      -0.912972       -24.8432 
  28   2.0000      -0.880735       -23.9660 
  29   2.0000      -0.876846       -23.8602 
  30   2.0000      -0.836296       -22.7568 
  31   2.0000      -0.818876       -22.2827 
  32   2.0000      -0.809698       -22.0330 
  33   2.0000      -0.808628       -22.0039 
  34   2.0000      -0.764551       -20.8045 
  35   2.0000      -0.740537       -20.1510 
  36   2.0000      -0.703369       -19.1396 
  37   2.0000      -0.702150       -19.1065 
  38   2.0000      -0.698941       -19.0192 
  39   2.0000      -0.682335       -18.5673 
  40   2.0000      -0.653632       -17.7862 
  41   2.0000      -0.619032       -16.8447 
  42   2.0000      -0.611537       -16.6408 
  43   2.0000      -0.597890       -16.2694 
  44   2.0000      -0.595528       -16.2052 
  45   2.0000      -0.563366       -15.3300 
  46   2.0000      -0.558272       -15.1914 
  47   2.0000      -0.554153       -15.0793 
  48   2.0000      -0.538256       -14.6467 
  49   2.0000      -0.534485       -14.5441 
  50   2.0000      -0.531442       -14.4613 
  51   2.0000      -0.524969       -14.2851 
  52   2.0000      -0.524412       -14.2700 
  53   2.0000      -0.523956       -14.2576 
  54   2.0000      -0.521158       -14.1814 
  55   2.0000      -0.514213       -13.9924 
  56   2.0000      -0.513613       -13.9761 
  57   2.0000      -0.513040       -13.9605 
  58   2.0000      -0.510947       -13.9036 
  59   2.0000      -0.482020       -13.1164 
  60   2.0000      -0.479155       -13.0385 
  61   2.0000      -0.461839       -12.5673 
  62   2.0000      -0.459004       -12.4901 
  63   2.0000      -0.454274       -12.3614 
  64   2.0000      -0.451413       -12.2836 
  65   2.0000      -0.444288       -12.0897 
  66   2.0000      -0.443412       -12.0659 
  67   2.0000      -0.386970       -10.5300 
  68   2.0000      -0.344804        -9.3826 
  69   2.0000      -0.339322        -9.2334 
  70   2.0000      -0.336076        -9.1451 
  71   2.0000      -0.334298        -9.0967 
  72   2.0000      -0.330621        -8.9967 
  73   2.0000      -0.320229        -8.7139 
  74   0.0000       0.062193         1.6924 
  75   0.0000       0.068315         1.8589 
  76   0.0000       0.072464         1.9718 
  77   0.0000       0.073719         2.0060 
  78   0.0000       0.103438         2.8147 
  79   0.0000       0.106001         2.8844 
  80   0.0000       0.112120         3.0509 
  81   0.0000       0.136516         3.7148 
  82   0.0000       0.138713         3.7746 
  83   0.0000       0.144983         3.9452 
  84   0.0000       0.147039         4.0011 
  85   0.0000       0.154388         4.2011 
  86   0.0000       0.158733         4.3193 
  87   0.0000       0.168761         4.5922 
  88   0.0000       0.172585         4.6963 
  89   0.0000       0.175575         4.7776 
  90   0.0000       0.188469         5.1285 
  91   0.0000       0.195402         5.3172 
  92   0.0000       0.198381         5.3982 
  93   0.0000       0.199433         5.4269 
  94   0.0000       0.200984         5.4690 
  95   0.0000       0.210882         5.7384 
  96   0.0000       0.217607         5.9214 
  97   0.0000       0.220459         5.9990 
  98   0.0000       0.222703         6.0601 
  99   0.0000       0.225064         6.1243 
 100   0.0000       0.225768         6.1435 
 101   0.0000       0.233817         6.3625 
 102   0.0000       0.240183         6.5357 
 103   0.0000       0.247748         6.7416 
 104   0.0000       0.248708         6.7677 
 105   0.0000       0.255806         6.9608 
 106   0.0000       0.258358         7.0303 
 107   0.0000       0.264691         7.2026 
 108   0.0000       0.272201         7.4070 
 109   0.0000       0.274816         7.4781 
 110   0.0000       0.275345         7.4925 
 111   0.0000       0.279187         7.5971 
 112   0.0000       0.280613         7.6359 
 113   0.0000       0.282853         7.6968 
 114   0.0000       0.287924         7.8348 
 115   0.0000       0.293703         7.9921 
 116   0.0000       0.309710         8.4276 
 117   0.0000       0.321609         8.7514 
 118   0.0000       0.324700         8.8355 
 119   0.0000       0.329522         8.9668 
 120   0.0000       0.332533         9.0487 
 121   0.0000       0.335303         9.1241 
 122   0.0000       0.337498         9.1838 
 123   0.0000       0.340367         9.2619 
 124   0.0000       0.343420         9.3449 
 125   0.0000       0.348111         9.4726 
 126   0.0000       0.352395         9.5892 
 127   0.0000       0.360583         9.8120 
 128   0.0000       0.368885        10.0379 
 129   0.0000       0.373411        10.1610 
 130   0.0000       0.386226        10.5098 
 131   0.0000       0.391564        10.6550 
 132   0.0000       0.392497        10.6804 
 133   0.0000       0.398065        10.8319 
 134   0.0000       0.400488        10.8978 
 135   0.0000       0.402263        10.9461 
 136   0.0000       0.406322        11.0566 
 137   0.0000       0.408486        11.1155 
 138   0.0000       0.412190        11.2162 
 139   0.0000       0.416584        11.3358 
 140   0.0000       0.427587        11.6352 
 141   0.0000       0.429754        11.6942 
 142   0.0000       0.432898        11.7797 
 143   0.0000       0.439330        11.9548 
 144   0.0000       0.442638        12.0448 
 145   0.0000       0.447633        12.1807 
 146   0.0000       0.452360        12.3093 
 147   0.0000       0.452951        12.3254 
 148   0.0000       0.463623        12.6158 
 149   0.0000       0.466557        12.6957 
 150   0.0000       0.471065        12.8183 
 151   0.0000       0.475854        12.9487 
 152   0.0000       0.478530        13.0215 
 153   0.0000       0.482907        13.1406 
 154   0.0000       0.486908        13.2494 
 155   0.0000       0.493767        13.4361 
 156   0.0000       0.494014        13.4428 
 157   0.0000       0.499535        13.5930 
 158   0.0000       0.501943        13.6586 
 159   0.0000       0.507337        13.8053 
 160   0.0000       0.509205        13.8562 
 161   0.0000       0.515067        14.0157 
 162   0.0000       0.520542        14.1647 
 163   0.0000       0.522765        14.2252 
 164   0.0000       0.526692        14.3320 
 165   0.0000       0.530023        14.4226 
 166   0.0000       0.533160        14.5080 
 167   0.0000       0.533883        14.5277 
 168   0.0000       0.534318        14.5395 
 169   0.0000       0.549340        14.9483 
 170   0.0000       0.556430        15.1412 
 171   0.0000       0.558287        15.1918 
 172   0.0000       0.564514        15.3612 
 173   0.0000       0.570262        15.5176 
 174   0.0000       0.572248        15.5717 
 175   0.0000       0.575269        15.6539 
 176   0.0000       0.577226        15.7071 
 177   0.0000       0.583430        15.8759 
 178   0.0000       0.591734        16.1019 
 179   0.0000       0.597232        16.2515 
 180   0.0000       0.604358        16.4454 
 181   0.0000       0.605707        16.4821 
 182   0.0000       0.610360        16.6087 
 183   0.0000       0.611421        16.6376 
 184   0.0000       0.612765        16.6742 
 185   0.0000       0.618934        16.8421 
 186   0.0000       0.622088        16.9279 
 187   0.0000       0.629300        17.1241 
 188   0.0000       0.635193        17.2845 
 189   0.0000       0.641469        17.4553 
 190   0.0000       0.645338        17.5605 
 191   0.0000       0.648082        17.6352 
 192   0.0000       0.653586        17.7850 
 193   0.0000       0.656002        17.8507 
 194   0.0000       0.661143        17.9906 
 195   0.0000       0.667383        18.1604 
 196   0.0000       0.677387        18.4326 
 197   0.0000       0.685101        18.6426 
 198   0.0000       0.688739        18.7416 
 199   0.0000       0.695975        18.9384 
 200   0.0000       0.701573        19.0908 
 201   0.0000       0.711397        19.3581 
 202   0.0000       0.717269        19.5179 
 203   0.0000       0.726650        19.7732 
 204   0.0000       0.732611        19.9354 
 205   0.0000       0.742135        20.1945 
 206   0.0000       0.753867        20.5138 
 207   0.0000       0.757127        20.6025 
 208   0.0000       0.775475        21.1018 
 209   0.0000       0.780300        21.2330 
 210   0.0000       0.784538        21.3484 
 211   0.0000       0.792871        21.5751 
 212   0.0000       0.801469        21.8091 
 213   0.0000       0.804282        21.8856 
 214   0.0000       0.806729        21.9522 
 215   0.0000       0.813394        22.1336 
 216   0.0000       0.818626        22.2760 
 217   0.0000       0.821796        22.3622 
 218   0.0000       0.824443        22.4342 
 219   0.0000       0.828851        22.5542 
 220   0.0000       0.832734        22.6598 
 221   0.0000       0.834249        22.7011 
 222   0.0000       0.844300        22.9746 
 223   0.0000       0.853470        23.2241 
 224   0.0000       0.864127        23.5141 
 225   0.0000       0.872407        23.7394 
 226   0.0000       0.883584        24.0435 
 227   0.0000       0.890588        24.2341 
 228   0.0000       0.894644        24.3445 
 229   0.0000       0.899146        24.4670 
 230   0.0000       0.907657        24.6986 
 231   0.0000       0.917944        24.9785 
 232   0.0000       0.925061        25.1722 
 233   0.0000       0.926803        25.2196 
 234   0.0000       0.933644        25.4057 
 235   0.0000       0.942514        25.6471 
 236   0.0000       0.946471        25.7548 
 237   0.0000       0.951870        25.9017 
 238   0.0000       0.955605        26.0033 
 239   0.0000       0.958662        26.0865 
 240   0.0000       0.970048        26.3964 
 241   0.0000       0.985623        26.8202 
 242   0.0000       0.989119        26.9153 
 243   0.0000       1.002986        27.2926 
 244   0.0000       1.006462        27.3872 
 245   0.0000       1.010024        27.4841 
 246   0.0000       1.012490        27.5513 
 247   0.0000       1.021433        27.7946 
 248   0.0000       1.031181        28.0599 
 249   0.0000       1.041689        28.3458 
 250   0.0000       1.055478        28.7210 
 251   0.0000       1.059313        28.8254 
 252   0.0000       1.070276        29.1237 
 253   0.0000       1.081360        29.4253 
 254   0.0000       1.085519        29.5385 
 255   0.0000       1.088448        29.6182 
 256   0.0000       1.089896        29.6576 
 257   0.0000       1.091282        29.6953 
 258   0.0000       1.107242        30.1296 
 259   0.0000       1.111315        30.2404 
 260   0.0000       1.121478        30.5170 
 261   0.0000       1.129678        30.7401 
 262   0.0000       1.139981        31.0205 
 263   0.0000       1.144228        31.1360 
 264   0.0000       1.157391        31.4942 
 265   0.0000       1.159160        31.5423 
 266   0.0000       1.162466        31.6323 
 267   0.0000       1.170927        31.8626 
 268   0.0000       1.175735        31.9934 
 269   0.0000       1.182956        32.1899 
 270   0.0000       1.192214        32.4418 
 271   0.0000       1.200350        32.6632 
 272   0.0000       1.214172        33.0393 
 273   0.0000       1.221248        33.2318 
 274   0.0000       1.230790        33.4915 
 275   0.0000       1.233990        33.5786 
 276   0.0000       1.238651        33.7054 
 277   0.0000       1.242085        33.7989 
 278   0.0000       1.251033        34.0423 
 279   0.0000       1.252199        34.0741 
 280   0.0000       1.261998        34.3407 
 281   0.0000       1.285549        34.9816 
 282   0.0000       1.290341        35.1120 
 283   0.0000       1.300271        35.3822 
 284   0.0000       1.317904        35.8620 
 285   0.0000       1.329249        36.1707 
 286   0.0000       1.335048        36.3285 
 287   0.0000       1.339061        36.4377 
 288   0.0000       1.345962        36.6255 
 289   0.0000       1.352327        36.7987 
 290   0.0000       1.357940        36.9514 
 291   0.0000       1.367378        37.2082 
 292   0.0000       1.373303        37.3695 
 293   0.0000       1.378682        37.5158 
 294   0.0000       1.381404        37.5899 
 295   0.0000       1.386599        37.7313 
 296   0.0000       1.393919        37.9305 
 297   0.0000       1.399800        38.0905 
 298   0.0000       1.406000        38.2592 
 299   0.0000       1.413786        38.4711 
 300   0.0000       1.416678        38.5498 
 301   0.0000       1.438995        39.1571 
 302   0.0000       1.446537        39.3623 
 303   0.0000       1.456638        39.6371 
 304   0.0000       1.468337        39.9555 
 305   0.0000       1.484712        40.4011 
 306   0.0000       1.505716        40.9726 
 307   0.0000       1.515093        41.2278 
 308   0.0000       1.521387        41.3990 
 309   0.0000       1.527523        41.5660 
 310   0.0000       1.540819        41.9278 
 311   0.0000       1.546826        42.0913 
 312   0.0000       1.553838        42.2821 
 313   0.0000       1.561575        42.4926 
 314   0.0000       1.563266        42.5386 
 315   0.0000       1.565340        42.5951 
 316   0.0000       1.585686        43.1487 
 317   0.0000       1.595288        43.4100 
 318   0.0000       1.602452        43.6049 
 319   0.0000       1.609109        43.7861 
 320   0.0000       1.617239        44.0073 
 321   0.0000       1.622959        44.1629 
 322   0.0000       1.631168        44.3863 
 323   0.0000       1.640820        44.6490 
 324   0.0000       1.647246        44.8238 
 325   0.0000       1.651784        44.9473 
 326   0.0000       1.657433        45.1010 
 327   0.0000       1.661270        45.2055 
 328   0.0000       1.662570        45.2408 
 329   0.0000       1.665707        45.3262 
 330   0.0000       1.673370        45.5347 
 331   0.0000       1.677145        45.6374 
 332   0.0000       1.679418        45.6993 
 333   0.0000       1.687935        45.9310 
 334   0.0000       1.688813        45.9549 
 335   0.0000       1.692480        46.0547 
 336   0.0000       1.697024        46.1784 
 337   0.0000       1.702319        46.3224 
 338   0.0000       1.704186        46.3733 
 339   0.0000       1.711666        46.5768 
 340   0.0000       1.715943        46.6932 
 341   0.0000       1.724173        46.9171 
 342   0.0000       1.732932        47.1555 
 343   0.0000       1.737704        47.2853 
 344   0.0000       1.743070        47.4314 
 345   0.0000       1.751475        47.6601 
 346   0.0000       1.759094        47.8674 
 347   0.0000       1.767896        48.1069 
 348   0.0000       1.775111        48.3032 
 349   0.0000       1.775348        48.3097 
 350   0.0000       1.786672        48.6178 
 351   0.0000       1.789254        48.6881 
 352   0.0000       1.798011        48.9264 
 353   0.0000       1.804043        49.0905 
 354   0.0000       1.808704        49.2173 
 355   0.0000       1.820183        49.5297 
 356   0.0000       1.824046        49.6348 
 357   0.0000       1.831327        49.8329 
 358   0.0000       1.836985        49.9869 
 359   0.0000       1.839014        50.0421 
 360   0.0000       1.844635        50.1951 
 361   0.0000       1.851885        50.3923 
 362   0.0000       1.869762        50.8788 
 363   0.0000       1.877331        51.0848 
 364   0.0000       1.881257        51.1916 
 365   0.0000       1.896586        51.6087 
 366   0.0000       1.909938        51.9721 
 367   0.0000       1.911323        52.0097 
 368   0.0000       1.933295        52.6076 
 369   0.0000       1.938799        52.7574 
 370   0.0000       1.961279        53.3691 
 371   0.0000       1.964375        53.4534 
 372   0.0000       1.969954        53.6052 
 373   0.0000       1.982119        53.9362 
 374   0.0000       1.990624        54.1676 
 375   0.0000       2.000285        54.4305 
 376   0.0000       2.011868        54.7457 
 377   0.0000       2.018947        54.9383 
 378   0.0000       2.025323        55.1118 
 379   0.0000       2.052552        55.8528 
 380   0.0000       2.059836        56.0510 
 381   0.0000       2.077712        56.5374 
 382   0.0000       2.083455        56.6937 
 383   0.0000       2.087014        56.7906 
 384   0.0000       2.093477        56.9664 
 385   0.0000       2.100553        57.1590 
 386   0.0000       2.108466        57.3743 
 387   0.0000       2.126768        57.8723 
 388   0.0000       2.128781        57.9271 
 389   0.0000       2.137142        58.1546 
 390   0.0000       2.158989        58.7491 
 391   0.0000       2.169296        59.0295 
 392   0.0000       2.185747        59.4772 
 393   0.0000       2.186880        59.5080 
 394   0.0000       2.199366        59.8478 
 395   0.0000       2.200826        59.8875 
 396   0.0000       2.205701        60.0202 
 397   0.0000       2.207618        60.0723 
 398   0.0000       2.210607        60.1537 
 399   0.0000       2.220942        60.4349 
 400   0.0000       2.228607        60.6435 
 401   0.0000       2.245355        61.0992 
 402   0.0000       2.252761        61.3007 
 403   0.0000       2.261561        61.5402 
 404   0.0000       2.268210        61.7211 
 405   0.0000       2.275812        61.9280 
 406   0.0000       2.286800        62.2270 
 407   0.0000       2.291620        62.3582 
 408   0.0000       2.298589        62.5478 
 409   0.0000       2.311030        62.8863 
 410   0.0000       2.321350        63.1672 
 411   0.0000       2.330727        63.4223 
 412   0.0000       2.332798        63.4787 
 413   0.0000       2.339822        63.6698 
 414   0.0000       2.343537        63.7709 
 415   0.0000       2.354971        64.0820 
[...]
  9:     56.32   0.000102    0.52  0.000567  ( 0.022388 -0.000389 -0.008104)
 10:     59.56   0.000883    4.46  0.004625  ( 0.064427 -0.001831  0.021692)
 11:     88.62   0.000009    0.05  0.000032  ( 0.005534  0.000836  0.000691)
 12:     93.68   0.000034    0.17  0.000115  (-0.002965  0.010089  0.001990)
 13:    131.13   0.000482    2.44  0.001148  ( 0.015592  0.007177 -0.029210)
 14:    145.52   0.000141    0.71  0.000303  (-0.001476  0.010335  0.013921)
 15:    160.45   0.000016    0.08  0.000031  ( 0.002613 -0.003468 -0.003422)
 16:    183.12   0.000154    0.78  0.000263  (-0.003429 -0.015747  0.001806)
 17:    198.51   0.000994    5.02  0.001562  (-0.007435 -0.038620 -0.003907)
 18:    208.37   0.000465    2.35  0.000696  ( 0.007407 -0.001694 -0.025262)
 19:    236.10   0.000011    0.05  0.000014  ( 0.003544  0.001186 -0.000366)
 20:    237.92   0.000006    0.03  0.000008  ( 0.002052 -0.000719  0.001700)
 21:    284.26   0.000575    2.90  0.000631  ( 0.000704 -0.024828 -0.003717)
 22:    309.28   0.001598    8.07  0.001612  ( 0.038484 -0.000342  0.011434)
 23:    336.30   0.001195    6.04  0.001109  ( 0.011840  0.003523 -0.030926)
 24:    359.12   0.000539    2.73  0.000469  (-0.006579 -0.000044  0.020628)
 25:    360.29   0.000109    0.55  0.000094  (-0.002368 -0.003141  0.008888)
 26:    399.05   0.000497    2.51  0.000389  ( 0.000149 -0.019697 -0.000900)
 27:    438.22   0.000025    0.12  0.000018  (-0.001259  0.003999 -0.000008)
 28:    484.95   0.000142    0.72  0.000091  ( 0.009332 -0.000444  0.001945)
 29:    494.84   0.000020    0.10  0.000013  ( 0.000067  0.003572  0.000157)
 30:    535.87   0.000038    0.19  0.000022  ( 0.003954 -0.002221  0.001287)
 31:    536.31   0.000018    0.09  0.000010  ( 0.003126  0.000004  0.000642)
 32:    546.78   0.000051    0.26  0.000029  ( 0.004636 -0.001720  0.002159)
 33:    551.18   0.000003    0.01  0.000002  ( 0.000136  0.000928  0.000815)
 34:    578.42   0.000180    0.91  0.000097  (-0.002314 -0.000473  0.009574)
 35:    594.07   0.000050    0.25  0.000026  (-0.001112 -0.000352  0.004986)
 36:    601.33   0.000037    0.19  0.000019  (-0.000187 -0.004324 -0.000751)
 37:    626.70   0.001653    8.35  0.000823  ( 0.002083  0.028506  0.002488)
 38:    677.47   0.001080    5.46  0.000498  (-0.020443  0.006474 -0.006140)
 39:    682.63   0.000021    0.11  0.000010  (-0.003034  0.000279  0.000699)
 40:    743.58   0.007820   39.52  0.003282  (-0.056185  0.006882 -0.008816)
 41:    773.14   0.000020    0.10  0.000008  ( 0.000179  0.000098  0.002807)
 42:    785.46   0.000969    4.90  0.000385  (-0.002282 -0.019441 -0.001303)
 43:    788.38   0.000154    0.78  0.000061  (-0.000165  0.001883  0.007571)
 44:    796.13   0.000487    2.46  0.000191  (-0.000645 -0.012199  0.006461)
 45:    802.66   0.014918   75.39  0.005800  (-0.022901  0.005186  0.072448)
 46:    804.20   0.003933   19.88  0.001526  ( 0.015148  0.032975 -0.014467)
 47:    865.19   0.000013    0.07  0.000005  (-0.001316 -0.001111 -0.001340)
 48:    929.04   0.000014    0.07  0.000005  (-0.001346  0.001154  0.001220)
 49:    931.43   0.000019    0.10  0.000006  ( 0.002145  0.000004  0.001307)
 50:    946.07   0.000534    2.70  0.000176  ( 0.012855  0.000695  0.003227)
 51:    947.09   0.000764    3.86  0.000252  ( 0.013973 -0.005098  0.005523)
 52:    970.35   0.007713   38.98  0.002480  (-0.004526 -0.049365 -0.004799)
 53:    975.89   0.000449    2.27  0.000144  ( 0.002122  0.000173 -0.011793)
 54:   1003.90   0.000046    0.23  0.000014  (-0.000871 -0.000105  0.003679)
 55:   1005.82   0.000022    0.11  0.000007  (-0.001027 -0.000244  0.002359)
 56:   1019.26   0.000435    2.20  0.000133  ( 0.001140  0.011483 -0.000022)
 57:   1022.37   0.000410    2.07  0.000125  (-0.000927 -0.010866 -0.002517)
 58:   1066.51   0.000020    0.10  0.000006  (-0.000449 -0.000360  0.002346)
 59:   1068.35   0.000048    0.24  0.000014  (-0.000946  0.000779 -0.003545)
 60:   1069.33   0.000034    0.17  0.000010  ( 0.000891  0.002357  0.001869)
 61:   1072.61   0.001184    5.98  0.000344  (-0.001879 -0.000521  0.018456)
 62:   1076.40   0.000630    3.18  0.000183  ( 0.003753  0.002314 -0.012777)
 63:   1077.29   0.000045    0.23  0.000013  ( 0.001756 -0.002921  0.001193)
 64:   1096.79   0.001055    5.33  0.000300  (-0.004162  0.001028  0.016788)
 65:   1098.50   0.000365    1.85  0.000104  (-0.002581 -0.003616  0.009166)
 66:   1108.59   0.001646    8.32  0.000463  (-0.004604 -0.000825  0.021012)
 67:   1140.04   0.003773   19.07  0.001033  (-0.002728 -0.031889 -0.002909)
 68:   1151.10   0.000046    0.23  0.000012  ( 0.000319  0.003362 -0.001046)
 69:   1190.61   0.000490    2.48  0.000128  ( 0.010443 -0.000827  0.004322)
 70:   1193.77   0.000535    2.71  0.000140  (-0.011500  0.000960 -0.002602)
 71:   1260.58   0.003434   17.35  0.000850  (-0.002912 -0.028850 -0.003054)
 72:   1291.57   0.001151    5.82  0.000278  ( 0.000381  0.016670  0.000232)
 73:   1295.65   0.000422    2.13  0.000102  ( 0.002639  0.009486  0.002187)
 74:   1296.32   0.000111    0.56  0.000027  (-0.004739 -0.001660 -0.001232)
 75:   1301.22   0.000004    0.02  0.000001  ( 0.000623  0.000051  0.000746)
 76:   1308.19   0.000413    2.08  0.000098  ( 0.009364  0.002715  0.001831)
 77:   1309.50   0.000532    2.69  0.000127  ( 0.010667 -0.002934  0.002092)
 78:   1316.16   0.004610   23.30  0.001093  ( 0.001475  0.032905  0.002870)
 79:   1347.14   0.001124    5.68  0.000260  (-0.000574 -0.001523  0.016052)
 80:   1409.46   0.000007    0.03  0.000002  ( 0.000197 -0.000864 -0.000861)
 81:   1422.01   0.000149    0.75  0.000033  ( 0.004070  0.003690  0.001614)
 82:   1424.74   0.000780    3.94  0.000171  ( 0.011738  0.000800  0.005700)
 83:   1426.60   0.000662    3.35  0.000145  ( 0.005026 -0.010927  0.000503)
 84:   1432.61   0.000061    0.31  0.000013  (-0.002450 -0.001102  0.002446)
 85:   1447.80   0.011825   59.76  0.002549  (-0.004394 -0.050082 -0.004614)
 86:   1480.81   0.001814    9.17  0.000382  (-0.004550  0.005500  0.018200)
 87:   1487.43   0.000162    0.82  0.000034  ( 0.002785  0.000818  0.005062)
 88:   1487.89   0.000265    1.34  0.000056  (-0.005828  0.000701 -0.004597)
 89:   1488.75   0.000381    1.93  0.000080  (-0.003577 -0.006069 -0.005498)
 90:   1489.04   0.005669   28.65  0.001188  ( 0.009738  0.005177 -0.032658)
 91:   1492.83   0.000096    0.49  0.000020  (-0.000056 -0.004343 -0.001112)
 92:   1496.06   0.001115    5.63  0.000233  (-0.001192 -0.001664  0.015111)
 93:   1496.87   0.002563   12.95  0.000534  (-0.022969  0.002476 -0.000778)
 94:   1535.06   0.000915    4.62  0.000186  (-0.011717  0.002517 -0.006511)
 95:   1536.04   0.005920   29.92  0.001203  (-0.033163  0.004385 -0.009143)
 96:   1549.27   0.036374  183.82  0.007327  ( 0.007981  0.084661  0.009769)
 97:   1555.90   0.001360    6.87  0.000273  (-0.003042 -0.005870  0.015132)
 98:   1637.16   0.000170    0.86  0.000032  ( 0.001901 -0.000516 -0.005335)
 99:   1686.01   0.000309    1.56  0.000057  (-0.000427 -0.007523 -0.000605)
100:   1687.47   0.000003    0.01  0.000001  ( 0.000493  0.000284  0.000452)
101:   1689.03   0.000013    0.07  0.000002  (-0.000059  0.000801 -0.001323)
102:   1690.00   0.001999   10.10  0.000369  (-0.018219  0.002650 -0.005496)
103:   3069.25   0.001153    5.83  0.000117  ( 0.008341  0.006771  0.001359)
104:   3069.39   0.010684   53.99  0.001086  (-0.030954  0.005153 -0.010078)
105:   3069.85   0.000777    3.93  0.000079  (-0.003511  0.000858  0.008119)
106:   3070.40   0.000967    4.89  0.000098  (-0.001799  0.009661  0.001298)
107:   3133.68   0.002769   13.99  0.000276  ( 0.006901  0.001052 -0.015066)
108:   3134.38   0.001975    9.98  0.000197  ( 0.003724  0.001089 -0.013474)
109:   3135.53   0.000415    2.09  0.000041  ( 0.000045  0.001326 -0.006285)
110:   3135.68   0.001075    5.43  0.000107  ( 0.002232 -0.002007 -0.009900)
111:   3160.65   0.003614   18.26  0.000357  ( 0.003954 -0.018459 -0.000684)
112:   3160.90   0.006533   33.01  0.000645  (-0.023887 -0.001429 -0.008505)
113:   3161.39   0.000910    4.60  0.000090  ( 0.006681  0.003998 -0.005403)
114:   3161.53   0.005032   25.43  0.000497  (-0.000847 -0.022138 -0.002430)
115:   3197.04   0.000031    0.16  0.000003  (-0.000800  0.001532 -0.000129)
116:   3197.24   0.000058    0.29  0.000006  (-0.000934  0.002177  0.000130)
117:   3205.03   0.003149   15.92  0.000307  (-0.015955  0.003556 -0.006280)
118:   3205.29   0.003438   17.37  0.000335  (-0.017680  0.001756 -0.004364)
119:   3222.69   0.004490   22.69  0.000435  ( 0.002890  0.020476 -0.002683)
120:   3223.40   0.003641   18.40  0.000353  ( 0.000941  0.017365  0.007077)
121:   3285.42   0.000561    2.83  0.000053  ( 0.000843  0.007204  0.000806)
122:   3307.53   0.000011    0.06  0.000001  (-0.000497  0.000146  0.000881)

* The epsilon (eps) is given for a Dirac delta lineshape.
** The dipole moment derivative (T) already includes vibrational overlap.

The first frequency considered to be a vibration is 7
The total number of vibrations considered is 116


--------------------------
THERMOCHEMISTRY AT 298.15K
--------------------------

Temperature         ... 298.15 K
Pressure            ... 1.00 atm
Total Mass          ... 276.38 AMU

Throughout the following assumptions are being made:
  (1) The electronic state is orbitally nondegenerate
  (2) There are no thermally accessible electronically excited states
  (3) Hindered rotations indicated by low frequency modes are not
      treated as such but are treated as vibrations and this may
      cause some error
  (4) All equations used are the standard statistical mechanics
      equations for an ideal gas
  (5) All vibrations are strictly harmonic

freq.      14.34  E(vib)   ...       0.57 
freq.      31.56  E(vib)   ...       0.55 
freq.      56.32  E(vib)   ...       0.52 
freq.      59.56  E(vib)   ...       0.51 
freq.      88.62  E(vib)   ...       0.47 
freq.      93.68  E(vib)   ...       0.47 
freq.     131.13  E(vib)   ...       0.42 
freq.     145.52  E(vib)   ...       0.41 
freq.     160.45  E(vib)   ...       0.39 
freq.     183.12  E(vib)   ...       0.37 
freq.     198.51  E(vib)   ...       0.35 
freq.     208.37  E(vib)   ...       0.34 
freq.     236.10  E(vib)   ...       0.32 
freq.     237.92  E(vib)   ...       0.32 
freq.     284.26  E(vib)   ...       0.28 
freq.     309.28  E(vib)   ...       0.26 
freq.     336.30  E(vib)   ...       0.24 
freq.     359.12  E(vib)   ...       0.22 
freq.     360.29  E(vib)   ...       0.22 
freq.     399.05  E(vib)   ...       0.19 
freq.     438.22  E(vib)   ...       0.17 
freq.     484.95  E(vib)   ...       0.15 
freq.     494.84  E(vib)   ...       0.14 
freq.     535.87  E(vib)   ...       0.12 
freq.     536.31  E(vib)   ...       0.12 
freq.     546.78  E(vib)   ...       0.12 
freq.     551.18  E(vib)   ...       0.12 
freq.     578.42  E(vib)   ...       0.11 
freq.     594.07  E(vib)   ...       0.10 
freq.     601.33  E(vib)   ...       0.10 
freq.     626.70  E(vib)   ...       0.09 
freq.     677.47  E(vib)   ...       0.08 
freq.     682.63  E(vib)   ...       0.08 
freq.     743.58  E(vib)   ...       0.06 
freq.     773.14  E(vib)   ...       0.05 
freq.     785.46  E(vib)   ...       0.05 
freq.     788.38  E(vib)   ...       0.05 
freq.     796.13  E(vib)   ...       0.05 
freq.     802.66  E(vib)   ...       0.05 
freq.     804.20  E(vib)   ...       0.05 
freq.     865.19  E(vib)   ...       0.04 
freq.     929.04  E(vib)   ...       0.03 
freq.     931.43  E(vib)   ...       0.03 
freq.     946.07  E(vib)   ...       0.03 
freq.     947.09  E(vib)   ...       0.03 
freq.     970.35  E(vib)   ...       0.03 
freq.     975.89  E(vib)   ...       0.03 
freq.    1003.90  E(vib)   ...       0.02 
freq.    1005.82  E(vib)   ...       0.02 
freq.    1019.26  E(vib)   ...       0.02 
freq.    1022.37  E(vib)   ...       0.02 
freq.    1066.51  E(vib)   ...       0.02 
freq.    1068.35  E(vib)   ...       0.02 
freq.    1069.33  E(vib)   ...       0.02 
freq.    1072.61  E(vib)   ...       0.02 
freq.    1076.40  E(vib)   ...       0.02 
freq.    1077.29  E(vib)   ...       0.02 
freq.    1096.79  E(vib)   ...       0.02 
freq.    1098.50  E(vib)   ...       0.02 
freq.    1108.59  E(vib)   ...       0.02 
freq.    1140.04  E(vib)   ...       0.01 
freq.    1151.10  E(vib)   ...       0.01 
freq.    1190.61  E(vib)   ...       0.01 
freq.    1193.77  E(vib)   ...       0.01 
freq.    1260.58  E(vib)   ...       0.01 
freq.    1291.57  E(vib)   ...       0.01 
freq.    1295.65  E(vib)   ...       0.01 
freq.    1296.32  E(vib)   ...       0.01 
freq.    1301.22  E(vib)   ...       0.01 
freq.    1308.19  E(vib)   ...       0.01 
freq.    1309.50  E(vib)   ...       0.01 
freq.    1316.16  E(vib)   ...       0.01 
freq.    1347.14  E(vib)   ...       0.01 
freq.    1409.46  E(vib)   ...       0.00 
freq.    1422.01  E(vib)   ...       0.00 
freq.    1424.74  E(vib)   ...       0.00 
freq.    1426.60  E(vib)   ...       0.00 
freq.    1432.61  E(vib)   ...       0.00 
freq.    1447.80  E(vib)   ...       0.00 
freq.    1480.81  E(vib)   ...       0.00 
freq.    1487.43  E(vib)   ...       0.00 
freq.    1487.89  E(vib)   ...       0.00 
freq.    1488.75  E(vib)   ...       0.00 
freq.    1489.04  E(vib)   ...       0.00 
freq.    1492.83  E(vib)   ...       0.00 
freq.    1496.06  E(vib)   ...       0.00 
freq.    1496.87  E(vib)   ...       0.00 
freq.    1535.06  E(vib)   ...       0.00 
freq.    1536.04  E(vib)   ...       0.00 
freq.    1549.27  E(vib)   ...       0.00 
freq.    1555.90  E(vib)   ...       0.00 
freq.    1637.16  E(vib)   ...       0.00 
freq.    1686.01  E(vib)   ...       0.00 
freq.    1687.47  E(vib)   ...       0.00 
freq.    1689.03  E(vib)   ...       0.00 
freq.    1690.00  E(vib)   ...       0.00 
freq.    3069.25  E(vib)   ...       0.00 
freq.    3069.39  E(vib)   ...       0.00 
freq.    3069.85  E(vib)   ...       0.00 
freq.    3070.40  E(vib)   ...       0.00 
freq.    3133.68  E(vib)   ...       0.00 
freq.    3134.38  E(vib)   ...       0.00 
freq.    3135.53  E(vib)   ...       0.00 
freq.    3135.68  E(vib)   ...       0.00 
freq.    3160.65  E(vib)   ...       0.00 
freq.    3160.90  E(vib)   ...       0.00 
freq.    3161.39  E(vib)   ...       0.00 
freq.    3161.53  E(vib)   ...       0.00 
freq.    3197.04  E(vib)   ...       0.00 
freq.    3197.24  E(vib)   ...       0.00 
freq.    3205.03  E(vib)   ...       0.00 
freq.    3205.29  E(vib)   ...       0.00 
freq.    3222.69  E(vib)   ...       0.00 
freq.    3223.40  E(vib)   ...       0.00 
freq.    3285.42  E(vib)   ...       0.00 
freq.    3307.53  E(vib)   ...       0.00 

------------
INNER ENERGY
------------

The inner energy is: U= E(el) + E(ZPE) + E(vib) + E(rot) + E(trans)
    E(el)   - is the total energy from the electronic structure calculation
              = E(kin-el) + E(nuc-el) + E(el-el) + E(nuc-nuc)
    E(ZPE)  - the the zero temperature vibrational energy from the frequency calculation
    E(vib)  - the the finite temperature correction to E(ZPE) due to population
              of excited vibrational states
    E(rot)  - is the rotational thermal energy
    E(trans)- is the translational thermal energy

Summary of contributions to the inner energy U:
Electronic energy                ...   -845.61989329 Eh
Zero point energy                ...      0.34592508 Eh     217.07 kcal/mol
Thermal vibrational correction   ...      0.01580272 Eh       9.92 kcal/mol
Thermal rotational correction    ...      0.00141627 Eh       0.89 kcal/mol
Thermal translational correction ...      0.00141627 Eh       0.89 kcal/mol
-----------------------------------------------------------------------
Total thermal energy                   -845.25533294 Eh


Summary of corrections to the electronic energy:
(perhaps to be used in another calculation)
Total thermal correction                  0.01863527 Eh      11.69 kcal/mol
Non-thermal (ZPE) correction              0.34592508 Eh     217.07 kcal/mol
-----------------------------------------------------------------------
Total correction                          0.36456035 Eh     228.76 kcal/mol


--------
ENTHALPY
--------

The enthalpy is H = U + kB*T
                kB is Boltzmann's constant
Total free energy                 ...   -845.25533294 Eh 
Thermal Enthalpy correction       ...      0.00094421 Eh       0.59 kcal/mol
-----------------------------------------------------------------------
Total Enthalpy                    ...   -845.25438873 Eh


Note: Only C1 symmetry has been detected, increase convergence thresholds 
      if your molecule has a higher symmetry. Symmetry factor of 1.0 is   
      used for the rotational entropy correction. 
 

Note: Rotational entropy computed according to Herzberg 
Infrared and Raman Spectra, Chapter V,1, Van Nostrand Reinhold, 1945 
Point Group:  C1, Symmetry Number:   1  
Rotational constants in cm-1:     0.023990     0.006004     0.005222 

Vibrational entropy computed according to the QRRHO of S. Grimme
Chem.Eur.J. 2012 18 9955


-------
ENTROPY
-------

The entropy contributions are T*S = T*(S(el)+S(vib)+S(rot)+S(trans))
     S(el)   - electronic entropy
     S(vib)  - vibrational entropy
     S(rot)  - rotational entropy
     S(trans)- translational entropy
The entropies will be listed as multiplied by the temperature to get
units of energy

Electronic entropy                ...      0.00000000 Eh      0.00 kcal/mol
Vibrational entropy               ...      0.02793739 Eh     17.53 kcal/mol
Rotational entropy                ...      0.01616748 Eh     10.15 kcal/mol
Translational entropy             ...      0.02031105 Eh     12.75 kcal/mol
-----------------------------------------------------------------------
Final entropy term                ...      0.06441592 Eh     40.42 kcal/mol

In case the symmetry of your molecule has not been determined correctly
or in case you have a reason to use a different symmetry number we print 
out the resulting rotational entropy values for sn=1,12 :
 --------------------------------------------------------
|  sn= 1 | S(rot)=       0.01616748 Eh     10.15 kcal/mol|
|  sn= 2 | S(rot)=       0.01551302 Eh      9.73 kcal/mol|
|  sn= 3 | S(rot)=       0.01513019 Eh      9.49 kcal/mol|
|  sn= 4 | S(rot)=       0.01485857 Eh      9.32 kcal/mol|
|  sn= 5 | S(rot)=       0.01464788 Eh      9.19 kcal/mol|
|  sn= 6 | S(rot)=       0.01447574 Eh      9.08 kcal/mol|
|  sn= 7 | S(rot)=       0.01433019 Eh      8.99 kcal/mol|
|  sn= 8 | S(rot)=       0.01420411 Eh      8.91 kcal/mol|
|  sn= 9 | S(rot)=       0.01409290 Eh      8.84 kcal/mol|
|  sn=10 | S(rot)=       0.01399342 Eh      8.78 kcal/mol|
|  sn=11 | S(rot)=       0.01390343 Eh      8.72 kcal/mol|
|  sn=12 | S(rot)=       0.01382128 Eh      8.67 kcal/mol|
 --------------------------------------------------------


-------------------
GIBBS FREE ENERGY
-------------------

The Gibbs free energy is G = H - T*S

Total enthalpy                    ...   -845.25438873 Eh 
Total entropy correction          ...     -0.06441592 Eh    -40.42 kcal/mol
-----------------------------------------------------------------------
Final Gibbs free energy         ...   -845.31880465 Eh

For completeness - the Gibbs free energy minus the electronic energy
G-E(el)                           ...      0.30108864 Eh    188.94 kcal/mol


Timings for individual modules:

Sum of individual times         ...     8720.035 sec (= 145.334 min)
GTO integral calculation        ...        3.120 sec (=   0.052 min)   0.0 %
SCF iterations                  ...     1292.963 sec (=  21.549 min)  14.8 %
SCF Gradient evaluation         ...      177.270 sec (=   2.955 min)   2.0 %
Geometry relaxation             ...        0.162 sec (=   0.003 min)   0.0 %
Analytical frequency calculation...     7246.521 sec (= 120.775 min)  83.1 %
                             ****ORCA TERMINATED NORMALLY****
TOTAL RUN TIME: 0 days 2 hours 25 minutes 21 seconds 367 msec
