
                                 *****************
                                 * O   R   C   A *
                                 *****************

                                            #,                                       
                                            ###                                      
                                            ####                                     
                                            #####                                    
                                            ######                                   
                                           ########,                                 
                                     ,,################,,,,,                         
                               ,,#################################,,                 
                          ,,##########################################,,             
                       ,#########################################, ''#####,          
                    ,#############################################,,   '####,        
                  ,##################################################,,,,####,       
                ,###########''''           ''''###############################       
              ,#####''   ,,,,##########,,,,          '''####'''          '####       
            ,##' ,,,,###########################,,,                        '##       
           ' ,,###''''                  '''############,,,                           
         ,,##''                                '''############,,,,        ,,,,,,###''
      ,#''                                            '''#######################'''  
     '                                                          ''''####''''         
             ,#######,   #######,   ,#######,      ##                                
            ,#'     '#,  ##    ##  ,#'     '#,    #''#        ######   ,####,        
            ##       ##  ##   ,#'  ##            #'  '#       #        #'  '#        
            ##       ##  #######   ##           ,######,      #####,   #    #        
            '#,     ,#'  ##    ##  '#,     ,#' ,#      #,         ##   #,  ,#        
             '#######'   ##     ##  '#######'  #'      '#     #####' # '####'        



                  #######################################################
                  #                        -***-                        #
                  #          Department of theory and spectroscopy      #
                  #    Directorship and core code : Frank Neese         #
                  #        Max Planck Institute fuer Kohlenforschung    #
                  #                Kaiser Wilhelm Platz 1               #
                  #                 D-45470 Muelheim/Ruhr               #
                  #                      Germany                        #
                  #                                                     #
                  #                  All rights reserved                #
                  #                        -***-                        #
                  #######################################################


                         Program Version 5.0.4 -  RELEASE  -


 With contributions from (in alphabetic order):
   Daniel Aravena         : Magnetic Suceptibility
   Michael Atanasov       : Ab Initio Ligand Field Theory (pilot matlab implementation)
   Alexander A. Auer      : GIAO ZORA, VPT2 properties, NMR spectrum
   Ute Becker             : Parallelization
   Giovanni Bistoni       : ED, misc. LED, open-shell LED, HFLD
   Martin Brehm           : Molecular dynamics
   Dmytro Bykov           : SCF Hessian
   Vijay G. Chilkuri      : MRCI spin determinant printing, contributions to CSF-ICE
   Dipayan Datta          : RHF DLPNO-CCSD density
   Achintya Kumar Dutta   : EOM-CC, STEOM-CC
   Dmitry Ganyushin       : Spin-Orbit,Spin-Spin,Magnetic field MRCI
   Miquel Garcia          : C-PCM and meta-GGA Hessian, CC/C-PCM, Gaussian charge scheme
   Yang Guo               : DLPNO-NEVPT2, F12-NEVPT2, CIM, IAO-localization
   Andreas Hansen         : Spin unrestricted coupled pair/coupled cluster methods
   Benjamin Helmich-Paris : MC-RPA, TRAH-SCF, COSX integrals
   Lee Huntington         : MR-EOM, pCC
   Robert Izsak           : Overlap fitted RIJCOSX, COSX-SCS-MP3, EOM
   Marcus Kettner         : VPT2
   Christian Kollmar      : KDIIS, OOCD, Brueckner-CCSD(T), CCSD density, CASPT2, CASPT2-K
   Simone Kossmann        : Meta GGA functionals, TD-DFT gradient, OOMP2, MP2 Hessian
   Martin Krupicka        : Initial AUTO-CI
   Lucas Lang             : DCDCAS
   Marvin Lechner         : AUTO-CI (C++ implementation), FIC-MRCC
   Dagmar Lenk            : GEPOL surface, SMD
   Dimitrios Liakos       : Extrapolation schemes; Compound Job, initial MDCI parallelization
   Dimitrios Manganas     : Further ROCIS development; embedding schemes
   Dimitrios Pantazis     : SARC Basis sets
   Anastasios Papadopoulos: AUTO-CI, single reference methods and gradients
   Taras Petrenko         : DFT Hessian,TD-DFT gradient, ASA, ECA, R-Raman, ABS, FL, XAS/XES, NRVS
   Peter Pinski           : DLPNO-MP2, DLPNO-MP2 Gradient
   Christoph Reimann      : Effective Core Potentials
   Marius Retegan         : Local ZFS, SOC
   Christoph Riplinger    : Optimizer, TS searches, QM/MM, DLPNO-CCSD(T), (RO)-DLPNO pert. Triples
   Tobias Risthaus        : Range-separated hybrids, TD-DFT gradient, RPA, STAB
   Michael Roemelt        : Original ROCIS implementation
   Masaaki Saitow         : Open-shell DLPNO-CCSD energy and density
   Barbara Sandhoefer     : DKH picture change effects
   Avijit Sen             : IP-ROCIS
   Kantharuban Sivalingam : CASSCF convergence, NEVPT2, FIC-MRCI
   Bernardo de Souza      : ESD, SOC TD-DFT
   Georgi Stoychev        : AutoAux, RI-MP2 NMR, DLPNO-MP2 response
   Willem Van den Heuvel  : Paramagnetic NMR
   Boris Wezisla          : Elementary symmetry handling
   Frank Wennmohs         : Technical directorship


 We gratefully acknowledge several colleagues who have allowed us to
 interface, adapt or use parts of their codes:
   Stefan Grimme, W. Hujo, H. Kruse, P. Pracht,  : VdW corrections, initial TS optimization,
                  C. Bannwarth, S. Ehlert          DFT functionals, gCP, sTDA/sTD-DF
   Ed Valeev, F. Pavosevic, A. Kumar             : LibInt (2-el integral package), F12 methods
   Garnet Chan, S. Sharma, J. Yang, R. Olivares  : DMRG
   Ulf Ekstrom                                   : XCFun DFT Library
   Mihaly Kallay                                 : mrcc  (arbitrary order and MRCC methods)
   Jiri Pittner, Ondrej Demel                    : Mk-CCSD
   Frank Weinhold                                : gennbo (NPA and NBO analysis)
   Christopher J. Cramer and Donald G. Truhlar   : smd solvation model
   Lars Goerigk                                  : TD-DFT with DH, B97 family of functionals
   V. Asgeirsson, H. Jonsson                     : NEB implementation
   FAccTs GmbH                                   : IRC, NEB, NEB-TS, DLPNO-Multilevel, CI-OPT
                                                   MM, QMMM, 2- and 3-layer-ONIOM, Crystal-QMMM,
                                                   LR-CPCM, SF, NACMEs, symmetry and pop. for TD-DFT,
                                                   nearIR, NL-DFT gradient (VV10), updates on ESD,
                                                   ML-optimized integration grids
   S Lehtola, MJT Oliveira, MAL Marques          : LibXC Library
   Liviu Ungur et al                             : ANISO software


 Your calculation uses the libint2 library for the computation of 2-el integrals
 For citations please refer to: http://libint.valeyev.net

 Your ORCA version has been built with support for libXC version: 5.1.0
 For citations please refer to: https://tddft.org/programs/libxc/

 This ORCA versions uses:
   CBLAS   interface :  Fast vector & matrix operations
   LAPACKE interface :  Fast linear algebra routines
   SCALAPACK package :  Parallel linear algebra routines
   Shared memory     :  Shared parallel matrices
   BLAS/LAPACK       :  OpenBLAS 0.3.15  USE64BITINT DYNAMIC_ARCH NO_AFFINITY SkylakeX SINGLE_THREADED
        Core in use  :  SkylakeX
   Copyright (c) 2011-2014, The OpenBLAS Project




***************************************
The coordinates will be read from file: 9_deprot.xyz
***************************************


Your calculation utilizes the atom-pairwise dispersion correction
based on tight binding partial charges (D4)
Cite in your paper:
E.Caldeweyher, C.Bannwarth, S.Grimme, J.Chem.Phys., (2017), 147, 034112.
E.Caldeweyher, S.Ehlert, A.Hansen, H.Neugebauer, S.Grimme, J.Chem.Phys., (2018), in progress.
   

XCFun DFT library Copyright 2009-2010 Ulf Ekstrom and contributors.
See http://admol.org/xcfun for more information.
This is free software; see the source code for copying conditions.
There is ABSOLUTELY NO WARRANTY; not even for MERCHANTABILITY or FITNESS FOR A PARTICULAR PURPOSE.
For details see the documentation.
Scientific users of this library should cite U. Ekstrom, L. Visscher, R. Bast, A. J. Thorvaldsen and K. Ruud;
J.Chem.Theor.Comp. 2010, DOI: 10.1021/ct100117s
XCFun Version 0.99 

================================================================================

----- Orbital basis set information -----
Your calculation utilizes the basis: def2-TZVP
   F. Weigend and R. Ahlrichs, Phys. Chem. Chem. Phys. 7, 3297 (2005).

----- AuxJ basis set information -----
Your calculation utilizes the auxiliary basis: def2/J
   F. Weigend, Phys. Chem. Chem. Phys. 8, 1057 (2006).

================================================================================
                                        WARNINGS
                       Please study these warnings very carefully!
================================================================================


WARNING: Geometry Optimization
  ===> : Switching off AutoStart
         For restart on a previous wavefunction, please use MOREAD

INFO   : the flag for use of the SHARK integral package has been found!

================================================================================
                                       INPUT FILE
================================================================================
NAME = 9_deprot.inp
|  1> # ORCA 5.0.4 - /users/bwb16179/postgrad/2024_06/pKa_Reviewer_Comments/Gas_Z=0/9_deprot.inp # write input file
|  2> # Basic Mode
|  3> #
|  4> ! Opt Freq wB97X Def2-TZVP D4 SlowConv TightSCF Defgrid2 Def2/J RIJCOSX 
|  5> 
|  6> %PAL NPROCS 4 END
|  7> 
|  8> %maxcore 4500
|  9> 
| 10> %geom
| 11> Maxiter 150
| 12> END
| 13> 
| 14> * xyzfile 0 1 9_deprot.xyz
| 15> 
| 16>                          ****END OF INPUT****
================================================================================

                       *****************************
                       * Geometry Optimization Run *
                       *****************************

Geometry optimization settings:
Update method            Update   .... BFGS
Choice of coordinates    CoordSys .... Z-matrix Internals
Initial Hessian          InHess   .... Almoef's Model

Convergence Tolerances:
Energy Change            TolE     ....  5.0000e-06 Eh
Max. Gradient            TolMAXG  ....  3.0000e-04 Eh/bohr
RMS Gradient             TolRMSG  ....  1.0000e-04 Eh/bohr
Max. Displacement        TolMAXD  ....  4.0000e-03 bohr
RMS Displacement         TolRMSD  ....  2.0000e-03 bohr
Strict Convergence                ....  False
------------------------------------------------------------------------------
                        ORCA OPTIMIZATION COORDINATE SETUP
------------------------------------------------------------------------------

The optimization will be done in new redundant internal coordinates
Making redundant internal coordinates   ...  (new redundants) done
Evaluating the initial hessian          ...  (Almloef) done
Evaluating the coordinates              ...  done
Calculating the B-matrix                .... done
Calculating the G-matrix                .... done
Diagonalizing the G-matrix              .... done
The first mode is                       ....   40
The number of degrees of freedom        ....   45

    -----------------------------------------------------------------
                    Redundant Internal Coordinates


    -----------------------------------------------------------------
         Definition                    Initial Value    Approx d2E/dq
    -----------------------------------------------------------------
      1. B(C   1,C   0)                  1.5311         0.372004   
      2. B(N   2,C   0)                  1.4614         0.430514   
      3. B(N   3,C   1)                  1.4614         0.430515   
      4. B(C   4,N   2)                  1.3458         0.658136   
      5. B(C   4,N   3)                  1.3458         0.658136   
      6. B(H   5,C   0)                  1.1029         0.343458   
      7. B(H   6,C   1)                  1.1029         0.343459   
      8. B(C   7,N   2)                  1.4372         0.470558   
      9. B(C   8,N   3)                  1.4372         0.470557   
     10. B(H   9,C   7)                  1.1041         0.341883   
     11. B(H  10,C   8)                  1.1041         0.341883   
     12. B(H  11,C   7)                  1.0970         0.351019   
     13. B(H  12,C   8)                  1.0970         0.351019   
     14. B(H  13,C   7)                  1.1056         0.340068   
     15. B(H  14,C   8)                  1.1056         0.340067   
     16. B(H  15,C   0)                  1.1062         0.339245   
     17. B(H  16,C   1)                  1.1062         0.339246   
     18. A(N   2,C   0,H   5)          111.4930         0.327431   
     19. A(C   1,C   0,H   5)          113.1722         0.321590   
     20. A(C   1,C   0,N   2)          101.7279         0.369705   
     21. A(C   1,C   0,H  15)          112.4197         0.320941   
     22. A(H   5,C   0,H  15)          107.4341         0.286011   
     23. A(N   2,C   0,H  15)          110.6045         0.326765   
     24. A(N   3,C   1,H  16)          110.6045         0.326766   
     25. A(H   6,C   1,H  16)          107.4342         0.286011   
     26. A(C   0,C   1,N   3)          101.7279         0.369705   
     27. A(C   0,C   1,H  16)          112.4197         0.320941   
     28. A(N   3,C   1,H   6)          111.4930         0.327431   
     29. A(C   0,C   1,H   6)          113.1722         0.321590   
     30. A(C   0,N   2,C   4)          114.8404         0.405767   
     31. A(C   4,N   2,C   7)          124.2711         0.412208   
     32. A(C   0,N   2,C   7)          120.3023         0.382604   
     33. A(C   4,N   3,C   8)          124.2711         0.412208   
     34. A(C   1,N   3,C   8)          120.3022         0.382604   
     35. A(C   1,N   3,C   4)          114.8405         0.405767   
     36. A(N   2,C   4,N   3)          105.4985         0.437707   
     37. A(N   2,C   7,H   9)          111.1715         0.332026   
     38. A(H  11,C   7,H  13)          108.7022         0.287093   
     39. A(H   9,C   7,H  13)          107.8958         0.285914   
     40. A(N   2,C   7,H  13)          111.7190         0.331733   
     41. A(H   9,C   7,H  11)          108.9714         0.287332   
     42. A(N   2,C   7,H  11)          108.3213         0.333481   
     43. A(N   3,C   8,H  10)          111.1715         0.332026   
     44. A(H  12,C   8,H  14)          108.7022         0.287093   
     45. A(H  10,C   8,H  14)          107.8958         0.285914   
     46. A(N   3,C   8,H  14)          111.7190         0.331733   
     47. A(H  10,C   8,H  12)          108.9715         0.287332   
     48. A(N   3,C   8,H  12)          108.3213         0.333481   
     49. D(H  16,C   1,C   0,N   2)    107.4163         0.011056   
     50. D(N   3,C   1,C   0,H   5)   -130.6364         0.011056   
     51. D(N   3,C   1,C   0,N   2)    -10.9077         0.011056   
     52. D(H  16,C   1,C   0,H  15)   -134.2598         0.011056   
     53. D(H   6,C   1,C   0,H   5)    109.6349         0.011056   
     54. D(H   6,C   1,C   0,H  15)    -12.3124         0.011056   
     55. D(H   6,C   1,C   0,N   2)   -130.6364         0.011056   
     56. D(N   3,C   1,C   0,H  15)    107.4162         0.011056   
     57. D(H  16,C   1,C   0,H   5)    -12.3124         0.011056   
     58. D(C   7,N   2,C   0,H   5)    -57.4675         0.015802   
     59. D(C   7,N   2,C   0,C   1)   -178.3759         0.015802   
     60. D(C   4,N   2,C   0,H  15)   -109.5817         0.015802   
     61. D(C   7,N   2,C   0,H  15)     62.0078         0.015802   
     62. D(C   4,N   2,C   0,H   5)    130.9430         0.015802   
     63. D(C   4,N   2,C   0,C   1)     10.0346         0.015802   
     64. D(C   8,N   3,C   1,H  16)     62.0081         0.015802   
     65. D(C   8,N   3,C   1,H   6)    -57.4673         0.015802   
     66. D(C   8,N   3,C   1,C   0)   -178.3757         0.015802   
     67. D(C   4,N   3,C   1,H  16)   -109.5818         0.015802   
     68. D(C   4,N   3,C   1,H   6)    130.9428         0.015802   
     69. D(C   4,N   3,C   1,C   0)     10.0345         0.015802   
     70. D(N   2,C   4,N   3,C   8)   -175.4130         0.032078   
     71. D(N   2,C   4,N   3,C   1)     -4.2025         0.032078   
     72. D(N   3,C   4,N   2,C   7)   -175.4128         0.032078   
     73. D(N   3,C   4,N   2,C   0)     -4.2027         0.032078   
     74. D(H  13,C   7,N   2,C   0)    -60.2066         0.018920   
     75. D(H  11,C   7,N   2,C   4)     -9.1510         0.018920   
     76. D(H  11,C   7,N   2,C   0)   -179.9083         0.018920   
     77. D(H   9,C   7,N   2,C   4)   -128.8532         0.018920   
     78. D(H  13,C   7,N   2,C   4)    110.5506         0.018920   
     79. D(H   9,C   7,N   2,C   0)     60.3896         0.018920   
     80. D(H  14,C   8,N   3,C   4)    110.5508         0.018920   
     81. D(H  14,C   8,N   3,C   1)    -60.2068         0.018920   
     82. D(H  12,C   8,N   3,C   4)     -9.1507         0.018920   
     83. D(H  12,C   8,N   3,C   1)   -179.9083         0.018920   
     84. D(H  10,C   8,N   3,C   4)   -128.8530         0.018920   
     85. D(H  10,C   8,N   3,C   1)     60.3894         0.018920   
    -----------------------------------------------------------------

Number of atoms                         .... 17
Number of degrees of freedom            .... 85

         *************************************************************
         *                GEOMETRY OPTIMIZATION CYCLE   1            *
         *************************************************************
---------------------------------
CARTESIAN COORDINATES (ANGSTROEM)
---------------------------------
  C      0.008559    0.765525   -1.219467
  C     -0.008560   -0.765526   -1.219467
  N     -0.124108    1.064075    0.204931
  N      0.124105   -1.064075    0.204931
  C     -0.000001    0.000000    1.019579
  H     -0.815223    1.208742   -1.803664
  H      0.815223   -1.208742   -1.803662
  C     -0.187406    2.426693    0.657406
  C      0.187407   -2.426693    0.657406
  H     -1.056019    2.951405    0.222325
  H      1.056021   -2.951402    0.222325
  H     -0.283624    2.423061    1.750125
  H      0.283624   -2.423061    1.750125
  H      0.722754    2.991422    0.383548
  H     -0.722752   -2.991425    0.383548
  H      0.955452    1.176871   -1.616902
  H     -0.955452   -1.176871   -1.616904

----------------------------
CARTESIAN COORDINATES (A.U.)
----------------------------
  NO LB      ZA    FRAG     MASS         X           Y           Z
   0 C     6.0000    0    12.011    0.016174    1.446633   -2.304459
   1 C     6.0000    0    12.011   -0.016176   -1.446634   -2.304459
   2 N     7.0000    0    14.007   -0.234530    2.010810    0.387263
   3 N     7.0000    0    14.007    0.234524   -2.010810    0.387263
   4 C     6.0000    0    12.011   -0.000002    0.000000    1.926725
   5 H     1.0000    0     1.008   -1.540548    2.284191   -3.408431
   6 H     1.0000    0     1.008    1.540548   -2.284191   -3.408427
   7 C     6.0000    0    12.011   -0.354146    4.585785    1.242317
   8 C     6.0000    0    12.011    0.354148   -4.585785    1.242317
   9 H     1.0000    0     1.008   -1.995587    5.577347    0.420133
  10 H     1.0000    0     1.008    1.995590   -5.577341    0.420133
  11 H     1.0000    0     1.008   -0.535972    4.578922    3.307257
  12 H     1.0000    0     1.008    0.535972   -4.578922    3.307257
  13 H     1.0000    0     1.008    1.365807    5.652968    0.724801
  14 H     1.0000    0     1.008   -1.365803   -5.652974    0.724801
  15 H     1.0000    0     1.008    1.805543    2.223964   -3.055502
  16 H     1.0000    0     1.008   -1.805543   -2.223964   -3.055506

--------------------------------
INTERNAL COORDINATES (ANGSTROEM)
--------------------------------
 C      0   0   0     0.000000000000     0.00000000     0.00000000
 C      1   0   0     1.531146702561     0.00000000     0.00000000
 N      1   2   0     1.461383692872   101.72794856     0.00000000
 N      2   1   3     1.461383307018   101.72791255   349.09233408
 C      4   2   1     1.345848902650   114.84047674    10.03448890
 H      1   2   3     1.102879969635   113.17221422   240.27126317
 H      2   1   3     1.102879255300   113.17217296   229.36364165
 C      3   1   2     1.437173641685   120.30225558   181.62413005
 C      4   2   1     1.437173817864   120.30223002   181.62434295
 H      8   3   1     1.104131651242   111.17149445    60.38956887
 H      9   4   2     1.104131012262   111.17148327    60.38943039
 H      8   3   1     1.096953010803   108.32130560   180.09174628
 H      9   4   2     1.096952923089   108.32131710   180.09167117
 H      8   3   1     1.105580514121   111.71901591   299.79337278
 H      9   4   2     1.105581223280   111.71901829   299.79323171
 H      1   2   3     1.106239786118   112.41971064   118.32390978
 H      2   1   3     1.106239276856   112.41966487   107.41628847

---------------------------
INTERNAL COORDINATES (A.U.)
---------------------------
 C      0   0   0     0.000000000000     0.00000000     0.00000000
 C      1   0   0     2.893447938696     0.00000000     0.00000000
 N      1   2   0     2.761614956107   101.72794856     0.00000000
 N      2   1   3     2.761614226948   101.72791255   349.09233408
 C      4   2   1     2.543285843647   114.84047674    10.03448890
 H      1   2   3     2.084141101197   113.17221422   240.27126317
 H      2   1   3     2.084139751299   113.17217296   229.36364165
 C      3   1   2     2.715864589674   120.30225558   181.62413005
 C      4   2   1     2.715864922604   120.30223002   181.62434295
 H      8   3   1     2.086506436641   111.17149445    60.38956887
 H      9   4   2     2.086505229144   111.17148327    60.38943039
 H      8   3   1     2.072940772197   108.32130560   180.09174628
 H      9   4   2     2.072940606443   108.32131710   180.09167117
 H      8   3   1     2.089244390689   111.71901591   299.79337278
 H      9   4   2     2.089245730805   111.71901829   299.79323171
 H      1   2   3     2.090490234210   112.41971064   118.32390978
 H      2   1   3     2.090489271844   112.41966487   107.41628847

---------------------
BASIS SET INFORMATION
---------------------
There are 3 groups of distinct atoms

 Group   1 Type C   : 11s6p2d1f contracted to 5s3p2d1f pattern {62111/411/11/1}
 Group   2 Type N   : 11s6p2d1f contracted to 5s3p2d1f pattern {62111/411/11/1}
 Group   3 Type H   : 5s1p contracted to 3s1p pattern {311/1}

Atom   0C    basis set group =>   1
Atom   1C    basis set group =>   1
Atom   2N    basis set group =>   2
Atom   3N    basis set group =>   2
Atom   4C    basis set group =>   1
Atom   5H    basis set group =>   3
Atom   6H    basis set group =>   3
Atom   7C    basis set group =>   1
Atom   8C    basis set group =>   1
Atom   9H    basis set group =>   3
Atom  10H    basis set group =>   3
Atom  11H    basis set group =>   3
Atom  12H    basis set group =>   3
Atom  13H    basis set group =>   3
Atom  14H    basis set group =>   3
Atom  15H    basis set group =>   3
Atom  16H    basis set group =>   3
---------------------------------
AUXILIARY/J BASIS SET INFORMATION
---------------------------------
There are 3 groups of distinct atoms

 Group   1 Type C   : 12s5p4d2f1g contracted to 6s4p3d1f1g pattern {711111/2111/211/2/1}
 Group   2 Type N   : 12s5p4d2f1g contracted to 6s4p3d1f1g pattern {711111/2111/211/2/1}
 Group   3 Type H   : 5s2p1d contracted to 3s1p1d pattern {311/2/1}

Atom   0C    basis set group =>   1
Atom   1C    basis set group =>   1
Atom   2N    basis set group =>   2
Atom   3N    basis set group =>   2
Atom   4C    basis set group =>   1
Atom   5H    basis set group =>   3
Atom   6H    basis set group =>   3
Atom   7C    basis set group =>   1
Atom   8C    basis set group =>   1
Atom   9H    basis set group =>   3
Atom  10H    basis set group =>   3
Atom  11H    basis set group =>   3
Atom  12H    basis set group =>   3
Atom  13H    basis set group =>   3
Atom  14H    basis set group =>   3
Atom  15H    basis set group =>   3
Atom  16H    basis set group =>   3


           ************************************************************
           *        Program running with 4 parallel MPI-processes     *
           *              working on a common directory               *
           ************************************************************
------------------------------------------------------------------------------
                           ORCA GTO INTEGRAL CALCULATION
                           -- RI-GTO INTEGRALS CHOSEN --
------------------------------------------------------------------------------
------------------------------------------------------------------------------
                   ___                                                        
                  /   \      - P O W E R E D   B Y -                         
                 /     \                                                     
                 |  |  |   _    _      __       _____    __    __             
                 |  |  |  | |  | |    /  \     |  _  \  |  |  /  |          
                  \  \/   | |  | |   /    \    | | | |  |  | /  /          
                 / \  \   | |__| |  /  /\  \   | |_| |  |  |/  /          
                |  |  |   |  __  | /  /__\  \  |    /   |      \           
                |  |  |   | |  | | |   __   |  |    \   |  |\   \          
                \     /   | |  | | |  |  |  |  | |\  \  |  | \   \       
                 \___/    |_|  |_| |__|  |__|  |_| \__\ |__|  \__/        
                                                                              
                      - O R C A' S   B I G   F R I E N D -                    
                                      &                                       
                       - I N T E G R A L  F E E D E R -                       
                                                                              
 v1 FN, 2020, v2 2021                                                         
------------------------------------------------------------------------------


Reading SHARK input file 9_deprot.SHARKINP.tmp ... ok
----------------------
SHARK INTEGRAL PACKAGE
----------------------

Number of atoms                             ...     17
Number of basis functions                   ...    277
Number of shells                            ...    117
Maximum angular momentum                    ...      3
Integral batch strategy                     ... SHARK/LIBINT Hybrid
RI-J (if used) integral strategy            ... SPLIT-RIJ (Revised 2003 algorithm where possible)
Printlevel                                  ...      1
Contraction scheme used                     ... SEGMENTED contraction
Coulomb Range Separation                    ... NOT USED
Exchange Range Separation                   ... Long Range
   Mu parameter                             ...  0.300000
   Scaling (regular/separated)              ...  0.157706  0.842294
Finite Nucleus Model                        ... NOT USED
Auxiliary Coulomb fitting basis             ... AVAILABLE
   # of basis functions in Aux-J            ...    453
   # of shells in Aux-J                     ...    155
   Maximum angular momentum in Aux-J        ...      4
Auxiliary J/K fitting basis                 ... NOT available
Auxiliary Correlation fitting basis         ... NOT available
Auxiliary 'external' fitting basis          ... NOT available
Integral threshold                          ...     2.500000e-11
Primitive cut-off                           ...     2.500000e-12
Primitive pair pre-selection threshold      ...     2.500000e-12

Calculating pre-screening integrals         ... done (  0.1 sec) Dimension = 117
Organizing shell pair data                  ... done (  0.1 sec)
Shell pair information
Total number of shell pairs                 ...      6903
Shell pairs after pre-screening             ...      6412
Total number of primitive shell pairs       ...     20284
Primitive shell pairs kept                  ...     14532
          la=0 lb=0:   1925 shell pairs
          la=1 lb=0:   1865 shell pairs
          la=1 lb=1:    470 shell pairs
          la=2 lb=0:    866 shell pairs
          la=2 lb=1:    420 shell pairs
          la=2 lb=2:    104 shell pairs
          la=3 lb=0:    429 shell pairs
          la=3 lb=1:    209 shell pairs
          la=3 lb=2:     96 shell pairs
          la=3 lb=3:     28 shell pairs

Calculating one electron integrals          ... done (  0.0 sec)
Calculating RI/J V-Matrix + Cholesky decomp.... done (  0.0 sec)
Calculating Nuclear repulsion               ... done (  0.0 sec) ENN=    313.687534704156 Eh

SHARK setup successfully completed in   0.3 seconds

Maximum memory used throughout the entire GTOINT-calculation: 19.7 MB


           ************************************************************
           *        Program running with 4 parallel MPI-processes     *
           *              working on a common directory               *
           ************************************************************
-------------------------------------------------------------------------------
                                 ORCA SCF
-------------------------------------------------------------------------------

------------
SCF SETTINGS
------------
Hamiltonian:
 Density Functional     Method          .... DFT(GTOs)
 Exchange Functional    Exchange        .... WB97X
 Correlation Functional Correlation     .... WB97X
 Gradients option       PostSCFGGA      .... off
 Hybrid DFT is turned on
   Fraction HF Exchange ScalHFX         ....  0.157706
   Scaling of DF-GGA-X  ScalDFX         ....  0.000000
   Scaling of DF-GGA-C  ScalDFC         ....  1.000000
   Scaling of DF-LDA-C  ScalLDAC        ....  1.000000
   Perturbative correction              ....  0.000000
   Density functional embedding theory  .... OFF
 Long-range corrected/Screened/Range-Separated Hybrid DFT is turned on
   Amount of maximum screened exact exchange              ....  0.842294
   Range separation parameter mu (erf(mu*r12)/r12)        ....  0.300000
 RI-approximation to the Coulomb term is turned on
   Number of AuxJ basis functions       .... 453
   RIJ-COSX (HFX calculated with COS-X)).... on


General Settings:
 Integral files         IntName         .... 9_deprot
 Hartree-Fock type      HFTyp           .... RHF
 Total Charge           Charge          ....    0
 Multiplicity           Mult            ....    1
 Number of Electrons    NEL             ....   54
 Basis Dimension        Dim             ....  277
 Nuclear Repulsion      ENuc            ....    313.6875347042 Eh

Convergence Acceleration:
 DIIS                   CNVDIIS         .... on
   Start iteration      DIISMaxIt       ....     0
   Startup error        DIISStart       ....  0.200000
   # of expansion vecs  DIISMaxEq       ....     5
   Bias factor          DIISBfac        ....   1.050
   Max. coefficient     DIISMaxC        ....  10.000
 Trust-Rad. Augm. Hess. CNVTRAH         .... auto
   Auto Start mean grad. ratio tolernc. ....  1.125000
   Auto Start start iteration           ....    20
   Auto Start num. interpolation iter.  ....    10
   Max. Number of Micro iterations      ....    16
   Max. Number of Macro iterations      .... Maxiter - #DIIS iter
   Number of Davidson start vectors     ....     2
   Converg. threshold I  (grad. norm)   ....   1.000e-05
   Converg. threshold II (energy diff.) ....   1.000e-08
   Grad. Scal. Fac. for Micro threshold ....   0.100
   Minimum threshold for Micro iter.    ....   0.010
   NR start threshold (gradient norm)   ....   0.001
   Initial trust radius                 ....   0.400
   Minimum AH scaling param. (alpha)    ....   1.000
   Maximum AH scaling param. (alpha)    .... 1000.000
   Orbital update algorithm             .... Taylor
   White noise on init. David. guess    .... on
   Maximum white noise                  ....   0.010
   Quad. conv. algorithm                .... NR
 SOSCF                  CNVSOSCF        .... on
   Start iteration      SOSCFMaxIt      ....   150
   Startup grad/error   SOSCFStart      ....  0.001000
 Level Shifting         CNVShift        .... on
   Level shift para.    LevelShift      ....    0.2500
   Turn off err/grad.   ShiftErr        ....    0.0000
 Zerner damping         CNVZerner       .... off
 Static damping         CNVDamp         .... on
   Fraction old density DampFac         ....    0.8500
   Max. Damping (<1)    DampMax         ....    0.9800
   Min. Damping (>=0)   DampMin         ....    0.0000
   Turn off err/grad.   DampErr         ....    0.0300
 Fernandez-Rico         CNVRico         .... off

SCF Procedure:
 Maximum # iterations   MaxIter         ....   125
 SCF integral mode      SCFMode         .... Direct
   Integral package                     .... SHARK and LIBINT hybrid scheme
 Reset frequency        DirectResetFreq ....    20
 Integral Threshold     Thresh          ....  2.500e-11 Eh
 Primitive CutOff       TCut            ....  2.500e-12 Eh

Convergence Tolerance:
 Convergence Check Mode ConvCheckMode   .... Total+1el-Energy
 Convergence forced     ConvForced      .... 0
 Energy Change          TolE            ....  1.000e-08 Eh
 1-El. energy change                    ....  1.000e-05 Eh
 Orbital Gradient       TolG            ....  1.000e-05
 Orbital Rotation angle TolX            ....  1.000e-05
 DIIS Error             TolErr          ....  5.000e-07


Diagonalization of the overlap matrix:
Smallest eigenvalue                        ... 1.766e-04
Time for diagonalization                   ...    0.013 sec
Threshold for overlap eigenvalues          ... 1.000e-08
Number of eigenvalues below threshold      ... 0
Time for construction of square roots      ...    0.007 sec
Total time needed                          ...    0.020 sec

Time for model grid setup =    0.102 sec

------------------------------
INITIAL GUESS: MODEL POTENTIAL
------------------------------
Loading Hartree-Fock densities                     ... done
Calculating cut-offs                               ... done
Initializing the effective Hamiltonian             ... done
Setting up the integral package (SHARK)            ... done
Starting the Coulomb interaction                   ... done (   0.1 sec)
Reading the grid                                   ... done
Mapping shells                                     ... done
Starting the XC term evaluation                    ... done (   0.1 sec)
  promolecular density results
     # of electrons  =     53.995706862
     EX              =    -41.605840399
     EC              =     -1.783170874
     EX+EC           =    -43.389011273
Transforming the Hamiltonian                       ... done (   0.0 sec)
Diagonalizing the Hamiltonian                      ... done (   0.0 sec)
Back transforming the eigenvectors                 ... done (   0.0 sec)
Now organizing SCF variables                       ... done
                      ------------------
                      INITIAL GUESS DONE (   0.4 sec)
                      ------------------
-------------------
DFT GRID GENERATION
-------------------

General Integration Accuracy     IntAcc      ... 4.388
Radial Grid Type                 RadialGrid  ... OptM3 with GC (2021)
Angular Grid (max. ang.)         AngularGrid ... 4 (Lebedev-302)
Angular grid pruning method      GridPruning ... 4 (adaptive)
Weight generation scheme         WeightScheme... Becke
Basis function cutoff            BFCut       ... 1.0000e-11
Integration weight cutoff        WCut        ... 1.0000e-14
Angular grids for H and He will be reduced by one unit
Partially contracted basis set               ... off
Rotationally invariant grid construction     ... off

Total number of grid points                  ...    74233
Total number of batches                      ...     1170
Average number of points per batch           ...       63
Average number of grid points per atom       ...     4367
Time for grid setup =    0.488 sec

--------------------
COSX GRID GENERATION
--------------------

GRIDX 1
-------
General Integration Accuracy     IntAcc      ... 3.816
Radial Grid Type                 RadialGrid  ... OptM3 with GC (2021)
Angular Grid (max. ang.)         AngularGrid ... 1 (Lebedev-50)
Angular grid pruning method      GridPruning ... 4 (adaptive)
Weight generation scheme         WeightScheme... Becke
Basis function cutoff            BFCut       ... 1.0000e-11
Integration weight cutoff        WCut        ... 1.0000e-14
Angular grids for H and He will be reduced by one unit
Partially contracted basis set               ... on
Rotationally invariant grid construction     ... off

Total number of grid points                  ...     9535
Total number of batches                      ...      158
Average number of points per batch           ...       60
Average number of grid points per atom       ...      561
UseSFitting                                  ... on

GRIDX 2
-------
General Integration Accuracy     IntAcc      ... 4.020
Radial Grid Type                 RadialGrid  ... OptM3 with GC (2021)
Angular Grid (max. ang.)         AngularGrid ... 2 (Lebedev-110)
Angular grid pruning method      GridPruning ... 4 (adaptive)
Weight generation scheme         WeightScheme... Becke
Basis function cutoff            BFCut       ... 1.0000e-11
Integration weight cutoff        WCut        ... 1.0000e-14
Angular grids for H and He will be reduced by one unit
Partially contracted basis set               ... on
Rotationally invariant grid construction     ... off

Total number of grid points                  ...    20171
Total number of batches                      ...      323
Average number of points per batch           ...       62
Average number of grid points per atom       ...     1187
UseSFitting                                  ... on

GRIDX 3
-------
General Integration Accuracy     IntAcc      ... 4.338
Radial Grid Type                 RadialGrid  ... OptM3 with GC (2021)
Angular Grid (max. ang.)         AngularGrid ... 3 (Lebedev-194)
Angular grid pruning method      GridPruning ... 4 (adaptive)
Weight generation scheme         WeightScheme... Becke
Basis function cutoff            BFCut       ... 1.0000e-11
Integration weight cutoff        WCut        ... 1.0000e-14
Angular grids for H and He will be reduced by one unit
Partially contracted basis set               ... on
Rotationally invariant grid construction     ... off

Total number of grid points                  ...    44201
Total number of batches                      ...      700
Average number of points per batch           ...       63
Average number of grid points per atom       ...     2600
UseSFitting                                  ... on

Time for X-Grid setup             =    0.696 sec

--------------
SCF ITERATIONS
--------------
ITER       Energy         Delta-E        Max-DP      RMS-DP      [F,P]     Damp
               ***  Starting incremental Fock matrix formation  ***
  0   -305.8685709183   0.000000000000 0.02361633  0.00037254  0.1471603 0.8500
  1   -305.9023670413  -0.033796122999 0.02956344  0.00039039  0.1195685 0.8500
                               ***Turning on DIIS***
  2   -305.9279613870  -0.025594345702 0.02754282  0.00033285  0.0927741 0.8500
  3   -305.9468549046  -0.018893517601 0.02263896  0.00024778  0.0711289 0.8500
  4   -305.9614088340  -0.014553929390 0.01881896  0.00019504  0.0569250 0.8500
  5   -305.9728757348  -0.011466900827 0.01612535  0.00016278  0.0471420 0.8500
  6   -305.9822089012  -0.009333166459 0.01407060  0.00013938  0.0397193 0.8500
  7   -305.9899457390  -0.007736837810 0.01250711  0.00012135  0.0337238 0.8500
  8   -305.9964294420  -0.006483702991 0.07421502  0.00070325  0.0286296 0.0000
  9   -306.0315245246  -0.035095082524 0.00328248  0.00003474  0.0016765 0.0000
                      *** Initiating the SOSCF procedure ***
                           *** Shutting down DIIS ***
                      *** Re-Reading the Fockian *** 
                      *** Removing any level shift *** 
ITER      Energy       Delta-E        Grad      Rot      Max-DP    RMS-DP
 10   -306.03154279  -0.0000182684  0.000326  0.000326  0.002044  0.000019
               *** Restarting incremental Fock matrix formation ***
 11   -306.03156439  -0.0000215942  0.000317  0.000590  0.002028  0.000019
 12   -306.03156556  -0.0000011704  0.000057  0.000283  0.001143  0.000012
 13   -306.03156579  -0.0000002324  0.000036  0.000042  0.000275  0.000004
 14   -306.03156584  -0.0000000486  0.000006  0.000007  0.000046  0.000001
                  ***Gradient check signals convergence***
              ***Rediagonalizing the Fockian in SOSCF/NRSCF***

               *****************************************************
               *                     SUCCESS                       *
               *           SCF CONVERGED AFTER  15 CYCLES          *
               *****************************************************

Old exchange energy                            =    -13.838076906 Eh
New exchange energy                            =    -13.838077109 Eh
Exchange energy change after final integration =     -0.000000203 Eh
Total energy after final integration           =   -306.031566038 Eh
Final COS-X integration done in                =    12.800 sec

----------------
TOTAL SCF ENERGY
----------------

Total Energy       :         -306.03156604 Eh           -8327.54228 eV

Components:
Nuclear Repulsion  :          313.68753470 Eh            8535.87177 eV
Electronic Energy  :         -619.71910074 Eh          -16863.41405 eV
One Electron Energy:        -1033.64364205 Eh          -28126.87344 eV
Two Electron Energy:          413.92454131 Eh           11263.45939 eV
Max COSX asymmetry :            0.00000106 Eh               0.00003 eV

Virial components:
Potential Energy   :         -610.56366993 Eh          -16614.28211 eV
Kinetic Energy     :          304.53210389 Eh            8286.73984 eV
Virial Ratio       :            2.00492382


DFT components:
N(Alpha)           :       26.999980999627 electrons
N(Beta)            :       26.999980999627 electrons
N(Total)           :       53.999961999254 electrons
E(XC)              :      -30.825103153355 Eh       
DFET-embed. en.    :        0.000000000000 Eh       

---------------
SCF CONVERGENCE
---------------

  Last Energy change         ...    3.3785e-09  Tolerance :   1.0000e-08
  Last MAX-Density change    ...    7.7716e-16  Tolerance :   1.0000e-07
  Last RMS-Density change    ...    1.1533e-17  Tolerance :   5.0000e-09
  Last Orbital Gradient      ...    2.2368e-06  Tolerance :   1.0000e-05
  Last Orbital Rotation      ...    5.4377e-06  Tolerance :   1.0000e-05

             **** THE GBW FILE WAS UPDATED (9_deprot.gbw) ****
             **** DENSITY 9_deprot.scfp WAS UPDATED ****
             **** ENERGY FILE WAS UPDATED (9_deprot.en.tmp) ****
             **** THE GBW FILE WAS UPDATED (9_deprot.gbw) ****
             **** DENSITY 9_deprot.scfp WAS UPDATED ****
----------------
ORBITAL ENERGIES
----------------

  NO   OCC          E(Eh)            E(eV) 
   0   2.0000     -14.407818      -392.0566 
   1   2.0000     -14.407783      -392.0557 
   2   2.0000     -10.296116      -280.1716 
   3   2.0000     -10.295944      -280.1669 
   4   2.0000     -10.278948      -279.7044 
   5   2.0000     -10.278943      -279.7043 
   6   2.0000     -10.263587      -279.2864 
   7   2.0000      -1.124783       -30.6069 
   8   2.0000      -1.026030       -27.9197 
   9   2.0000      -0.895176       -24.3590 
  10   2.0000      -0.851956       -23.1829 
  11   2.0000      -0.799904       -21.7665 
  12   2.0000      -0.732754       -19.9393 
  13   2.0000      -0.666437       -18.1347 
  14   2.0000      -0.617457       -16.8019 
  15   2.0000      -0.613866       -16.7041 
  16   2.0000      -0.570796       -15.5321 
  17   2.0000      -0.552993       -15.0477 
  18   2.0000      -0.527671       -14.3587 
  19   2.0000      -0.519350       -14.1322 
  20   2.0000      -0.517177       -14.0731 
  21   2.0000      -0.476704       -12.9718 
  22   2.0000      -0.475125       -12.9288 
  23   2.0000      -0.466837       -12.7033 
  24   2.0000      -0.420812       -11.4509 
  25   2.0000      -0.309740        -8.4285 
  26   2.0000      -0.307312        -8.3624 
  27   0.0000       0.110317         3.0019 
  28   0.0000       0.116441         3.1685 
  29   0.0000       0.129350         3.5198 
  30   0.0000       0.159121         4.3299 
  31   0.0000       0.172278         4.6879 
  32   0.0000       0.175908         4.7867 
  33   0.0000       0.188741         5.1359 
  34   0.0000       0.200620         5.4591 
  35   0.0000       0.203101         5.5267 
  36   0.0000       0.205736         5.5983 
  37   0.0000       0.211522         5.7558 
  38   0.0000       0.219609         5.9759 
  39   0.0000       0.222897         6.0653 
  40   0.0000       0.243392         6.6230 
  41   0.0000       0.254679         6.9302 
  42   0.0000       0.256511         6.9800 
  43   0.0000       0.278206         7.5704 
  44   0.0000       0.312942         8.5156 
  45   0.0000       0.316296         8.6068 
  46   0.0000       0.328218         8.9313 
  47   0.0000       0.349363         9.5067 
  48   0.0000       0.354706         9.6520 
  49   0.0000       0.361136         9.8270 
  50   0.0000       0.373470        10.1626 
  51   0.0000       0.377831        10.2813 
  52   0.0000       0.414679        11.2840 
  53   0.0000       0.427297        11.6273 
  54   0.0000       0.439825        11.9683 
  55   0.0000       0.459512        12.5039 
  56   0.0000       0.469201        12.7676 
  57   0.0000       0.475645        12.9430 
  58   0.0000       0.482874        13.1397 
  59   0.0000       0.494079        13.4446 
  60   0.0000       0.510626        13.8948 
  61   0.0000       0.516753        14.0616 
  62   0.0000       0.537185        14.6176 
  63   0.0000       0.551009        14.9937 
  64   0.0000       0.552169        15.0253 
  65   0.0000       0.564210        15.3529 
  66   0.0000       0.566513        15.4156 
  67   0.0000       0.580359        15.7924 
  68   0.0000       0.582927        15.8622 
  69   0.0000       0.592494        16.1226 
  70   0.0000       0.599592        16.3157 
  71   0.0000       0.632877        17.2215 
  72   0.0000       0.644911        17.5489 
  73   0.0000       0.646288        17.5864 
  74   0.0000       0.663865        18.0647 
  75   0.0000       0.697579        18.9821 
  76   0.0000       0.707155        19.2427 
  77   0.0000       0.711400        19.3582 
  78   0.0000       0.735625        20.0174 
  79   0.0000       0.737563        20.0701 
  80   0.0000       0.768199        20.9038 
  81   0.0000       0.779832        21.2203 
  82   0.0000       0.814348        22.1595 
  83   0.0000       0.838726        22.8229 
  84   0.0000       0.843173        22.9439 
  85   0.0000       0.927559        25.2402 
  86   0.0000       0.929673        25.2977 
  87   0.0000       0.960497        26.1365 
  88   0.0000       0.990709        26.9586 
  89   0.0000       1.014982        27.6191 
  90   0.0000       1.016482        27.6599 
  91   0.0000       1.051278        28.6067 
  92   0.0000       1.061067        28.8731 
  93   0.0000       1.095972        29.8229 
  94   0.0000       1.114862        30.3369 
  95   0.0000       1.125512        30.6267 
  96   0.0000       1.150117        31.2963 
  97   0.0000       1.157052        31.4850 
  98   0.0000       1.171588        31.8805 
  99   0.0000       1.182183        32.1688 
 100   0.0000       1.202777        32.7292 
 101   0.0000       1.220500        33.2115 
 102   0.0000       1.241577        33.7850 
 103   0.0000       1.279706        34.8226 
 104   0.0000       1.297345        35.3026 
 105   0.0000       1.315213        35.7888 
 106   0.0000       1.355801        36.8932 
 107   0.0000       1.454147        39.5693 
 108   0.0000       1.463312        39.8187 
 109   0.0000       1.475231        40.1431 
 110   0.0000       1.519658        41.3520 
 111   0.0000       1.549135        42.1541 
 112   0.0000       1.552929        42.2573 
 113   0.0000       1.590743        43.2863 
 114   0.0000       1.607813        43.7508 
 115   0.0000       1.616568        43.9891 
 116   0.0000       1.625918        44.2435 
 117   0.0000       1.632120        44.4122 
 118   0.0000       1.644827        44.7580 
 119   0.0000       1.670386        45.4535 
 120   0.0000       1.675787        45.6005 
 121   0.0000       1.690127        45.9907 
 122   0.0000       1.693528        46.0832 
 123   0.0000       1.718898        46.7736 
 124   0.0000       1.722233        46.8644 
 125   0.0000       1.725938        46.9652 
 126   0.0000       1.751040        47.6482 
 127   0.0000       1.759588        47.8808 
 128   0.0000       1.765418        48.0395 
 129   0.0000       1.780621        48.4532 
 130   0.0000       1.780780        48.4575 
 131   0.0000       1.826639        49.7054 
 132   0.0000       1.855400        50.4880 
 133   0.0000       1.896525        51.6071 
 134   0.0000       1.956152        53.2296 
 135   0.0000       1.956764        53.2463 
 136   0.0000       1.978311        53.8326 
 137   0.0000       1.991739        54.1980 
 138   0.0000       2.070058        56.3292 
 139   0.0000       2.074608        56.4530 
 140   0.0000       2.088541        56.8321 
 141   0.0000       2.110198        57.4214 
 142   0.0000       2.124431        57.8087 
 143   0.0000       2.171357        59.0856 
 144   0.0000       2.175747        59.2051 
 145   0.0000       2.212463        60.2042 
 146   0.0000       2.251056        61.2543 
 147   0.0000       2.266593        61.6771 
 148   0.0000       2.316859        63.0449 
 149   0.0000       2.339513        63.6614 
 150   0.0000       2.345182        63.8156 
 151   0.0000       2.356093        64.1126 
 152   0.0000       2.377088        64.6839 
 153   0.0000       2.387603        64.9700 
 154   0.0000       2.437565        66.3295 
 155   0.0000       2.439612        66.3852 
 156   0.0000       2.459636        66.9301 
 157   0.0000       2.464444        67.0609 
 158   0.0000       2.476054        67.3769 
 159   0.0000       2.505011        68.1648 
 160   0.0000       2.512428        68.3666 
 161   0.0000       2.558927        69.6319 
 162   0.0000       2.561483        69.7015 
 163   0.0000       2.579654        70.1960 
 164   0.0000       2.587595        70.4120 
 165   0.0000       2.624596        71.4189 
 166   0.0000       2.643633        71.9369 
 167   0.0000       2.659029        72.3559 
 168   0.0000       2.673773        72.7571 
 169   0.0000       2.676200        72.8231 
 170   0.0000       2.688389        73.1548 
 171   0.0000       2.731991        74.3413 
 172   0.0000       2.732607        74.3580 
 173   0.0000       2.743494        74.6543 
 174   0.0000       2.784154        75.7607 
 175   0.0000       2.817371        76.6646 
 176   0.0000       2.827883        76.9506 
 177   0.0000       2.864392        77.9441 
 178   0.0000       2.932120        79.7871 
 179   0.0000       2.967609        80.7527 
 180   0.0000       2.987394        81.2911 
 181   0.0000       3.013641        82.0053 
 182   0.0000       3.022518        82.2469 
 183   0.0000       3.092418        84.1490 
 184   0.0000       3.107937        84.5713 
 185   0.0000       3.108004        84.5731 
 186   0.0000       3.138621        85.4062 
 187   0.0000       3.153795        85.8191 
 188   0.0000       3.172169        86.3191 
 189   0.0000       3.176095        86.4259 
 190   0.0000       3.183976        86.6404 
 191   0.0000       3.199493        87.0626 
 192   0.0000       3.224790        87.7510 
 193   0.0000       3.234166        88.0061 
 194   0.0000       3.271093        89.0110 
 195   0.0000       3.286243        89.4232 
 196   0.0000       3.305762        89.9544 
 197   0.0000       3.306215        89.9667 
 198   0.0000       3.338159        90.8359 
 199   0.0000       3.360547        91.4451 
 200   0.0000       3.373040        91.7851 
 201   0.0000       3.398448        92.4765 
 202   0.0000       3.419901        93.0602 
 203   0.0000       3.426982        93.2529 
 204   0.0000       3.437932        93.5509 
 205   0.0000       3.463770        94.2540 
 206   0.0000       3.486377        94.8692 
 207   0.0000       3.531689        96.1021 
 208   0.0000       3.557644        96.8084 
 209   0.0000       3.581246        97.4507 
 210   0.0000       3.597133        97.8830 
 211   0.0000       3.612384        98.2980 
 212   0.0000       3.633049        98.8603 
 213   0.0000       3.662504        99.6618 
 214   0.0000       3.674690        99.9934 
 215   0.0000       3.702673       100.7548 
 216   0.0000       3.713307       101.0442 
 217   0.0000       3.756521       102.2201 
 218   0.0000       3.796310       103.3029 
 219   0.0000       3.814697       103.8032 
 220   0.0000       3.818767       103.9139 
 221   0.0000       3.825648       104.1012 
 222   0.0000       3.889524       105.8393 
 223   0.0000       3.898520       106.0841 
 224   0.0000       3.926815       106.8541 
 225   0.0000       3.960316       107.7657 
 226   0.0000       3.980866       108.3249 
 227   0.0000       4.008702       109.0823 
 228   0.0000       4.111474       111.8789 
 229   0.0000       4.124542       112.2345 
 230   0.0000       4.141833       112.7050 
 231   0.0000       4.201325       114.3239 
 232   0.0000       4.221229       114.8655 
 233   0.0000       4.253331       115.7390 
 234   0.0000       4.295138       116.8767 
 235   0.0000       4.302682       117.0819 
 236   0.0000       4.362921       118.7211 
 237   0.0000       4.368193       118.8646 
 238   0.0000       4.444328       120.9363 
 239   0.0000       4.460657       121.3806 
 240   0.0000       4.480809       121.9290 
 241   0.0000       4.540008       123.5399 
 242   0.0000       4.560109       124.0869 
 243   0.0000       4.595089       125.0387 
 244   0.0000       4.806004       130.7780 
 245   0.0000       4.884585       132.9163 
 246   0.0000       4.969586       135.2293 
 247   0.0000       5.008944       136.3003 
 248   0.0000       5.042452       137.2121 
 249   0.0000       5.066083       137.8551 
 250   0.0000       5.132825       139.6713 
 251   0.0000       5.152559       140.2083 
 252   0.0000       5.211956       141.8245 
 253   0.0000       5.272406       143.4695 
 254   0.0000       5.285927       143.8374 
 255   0.0000       5.328499       144.9958 
 256   0.0000       5.345700       145.4639 
 257   0.0000       5.349955       145.5797 
 258   0.0000       5.409751       147.2068 
 259   0.0000       5.443355       148.1212 
 260   0.0000       5.449778       148.2960 
 261   0.0000       5.551832       151.0730 
 262   0.0000       5.640417       153.4836 
 263   0.0000       5.760646       156.7551 
 264   0.0000       5.798414       157.7829 
 265   0.0000       5.861404       159.4969 
 266   0.0000       5.877404       159.9323 
 267   0.0000       6.012349       163.6043 
 268   0.0000       6.033459       164.1788 
 269   0.0000       6.128969       166.7777 
 270   0.0000      22.390166       609.2674 
 271   0.0000      22.487639       611.9198 
 272   0.0000      22.497513       612.1885 
 273   0.0000      22.575507       614.3108 
 274   0.0000      22.683968       617.2621 
 275   0.0000      32.746585       891.0799 
 276   0.0000      33.024112       898.6318 

                    ********************************
                    * MULLIKEN POPULATION ANALYSIS *
                    ********************************

-----------------------
MULLIKEN ATOMIC CHARGES
-----------------------
   0 C :   -0.133743
   1 C :   -0.133703
   2 N :   -0.104709
   3 N :   -0.104714
   4 C :   -0.171969
   5 H :    0.111633
   6 H :    0.111626
   7 C :   -0.255092
   8 C :   -0.255103
   9 H :    0.110384
  10 H :    0.110386
  11 H :    0.149487
  12 H :    0.149489
  13 H :    0.107498
  14 H :    0.107498
  15 H :    0.100518
  16 H :    0.100516
Sum of atomic charges:    0.0000000

--------------------------------
MULLIKEN REDUCED ORBITAL CHARGES
--------------------------------
  0 C s       :     3.228743  s :     3.228743
      pz      :     0.816711  p :     2.798467
      px      :     1.041768
      py      :     0.939988
      dz2     :     0.016232  d :     0.098709
      dxz     :     0.032630
      dyz     :     0.023628
      dx2y2   :     0.008729
      dxy     :     0.017491
      f0      :     0.002014  f :     0.007824
      f+1     :     0.001832
      f-1     :     0.001339
      f+2     :     0.000787
      f-2     :     0.000309
      f+3     :     0.000757
      f-3     :     0.000786
  1 C s       :     3.228723  s :     3.228723
      pz      :     0.816690  p :     2.798450
      px      :     1.041770
      py      :     0.939989
      dz2     :     0.016229  d :     0.098706
      dxz     :     0.032628
      dyz     :     0.023628
      dx2y2   :     0.008730
      dxy     :     0.017491
      f0      :     0.002014  f :     0.007825
      f+1     :     0.001832
      f-1     :     0.001339
      f+2     :     0.000787
      f-2     :     0.000309
      f+3     :     0.000757
      f-3     :     0.000786
  2 N s       :     3.415734  s :     3.415734
      pz      :     1.015038  p :     3.591984
      px      :     1.550465
      py      :     1.026481
      dz2     :     0.027873  d :     0.091732
      dxz     :     0.009292
      dyz     :     0.026379
      dx2y2   :     0.014687
      dxy     :     0.013501
      f0      :     0.000732  f :     0.005260
      f+1     :     0.000509
      f-1     :     0.001297
      f+2     :     0.000784
      f-2     :     0.000227
      f+3     :     0.000851
      f-3     :     0.000859
  3 N s       :     3.415745  s :     3.415745
      pz      :     1.015030  p :     3.591976
      px      :     1.550465
      py      :     1.026480
      dz2     :     0.027872  d :     0.091734
      dxz     :     0.009292
      dyz     :     0.026381
      dx2y2   :     0.014686
      dxy     :     0.013502
      f0      :     0.000732  f :     0.005260
      f+1     :     0.000509
      f-1     :     0.001297
      f+2     :     0.000784
      f-2     :     0.000227
      f+3     :     0.000851
      f-3     :     0.000859
  4 C s       :     3.668747  s :     3.668747
      pz      :     1.158068  p :     2.365419
      px      :     0.554027
      py      :     0.653324
      dz2     :     0.015088  d :     0.123549
      dxz     :     0.023185
      dyz     :     0.033058
      dx2y2   :     0.009977
      dxy     :     0.042240
      f0      :     0.001249  f :     0.014253
      f+1     :     0.000408
      f-1     :     0.003433
      f+2     :     0.001954
      f-2     :     0.004246
      f+3     :     0.001850
      f-3     :     0.001114
  5 H s       :     0.866634  s :     0.866634
      pz      :     0.006655  p :     0.021734
      px      :     0.009477
      py      :     0.005602
  6 H s       :     0.866640  s :     0.866640
      pz      :     0.006655  p :     0.021734
      px      :     0.009477
      py      :     0.005602
  7 C s       :     3.279897  s :     3.279897
      pz      :     1.072362  p :     2.897102
      px      :     1.039075
      py      :     0.785664
      dz2     :     0.012612  d :     0.072580
      dxz     :     0.003739
      dyz     :     0.012886
      dx2y2   :     0.005806
      dxy     :     0.037537
      f0      :     0.000981  f :     0.005514
      f+1     :    -0.000004
      f-1     :     0.000768
      f+2     :     0.000586
      f-2     :     0.000423
      f+3     :     0.001598
      f-3     :     0.001164
  8 C s       :     3.279897  s :     3.279897
      pz      :     1.072370  p :     2.897113
      px      :     1.039076
      py      :     0.785667
      dz2     :     0.012612  d :     0.072580
      dxz     :     0.003739
      dyz     :     0.012886
      dx2y2   :     0.005805
      dxy     :     0.037537
      f0      :     0.000980  f :     0.005514
      f+1     :    -0.000004
      f-1     :     0.000768
      f+2     :     0.000586
      f-2     :     0.000423
      f+3     :     0.001598
      f-3     :     0.001164
  9 H s       :     0.868609  s :     0.868609
      pz      :     0.005063  p :     0.021007
      px      :     0.010170
      py      :     0.005773
 10 H s       :     0.868607  s :     0.868607
      pz      :     0.005063  p :     0.021008
      px      :     0.010170
      py      :     0.005774
 11 H s       :     0.828479  s :     0.828479
      pz      :     0.014741  p :     0.022034
      px      :     0.004050
      py      :     0.003243
 12 H s       :     0.828478  s :     0.828478
      pz      :     0.014741  p :     0.022033
      px      :     0.004049
      py      :     0.003242
 13 H s       :     0.871505  s :     0.871505
      pz      :     0.004251  p :     0.020997
      px      :     0.010581
      py      :     0.006165
 14 H s       :     0.871506  s :     0.871506
      pz      :     0.004251  p :     0.020996
      px      :     0.010581
      py      :     0.006165
 15 H s       :     0.877672  s :     0.877672
      pz      :     0.004966  p :     0.021810
      px      :     0.011485
      py      :     0.005359
 16 H s       :     0.877674  s :     0.877674
      pz      :     0.004967  p :     0.021810
      px      :     0.011485
      py      :     0.005359


                     *******************************
                     * LOEWDIN POPULATION ANALYSIS *
                     *******************************

----------------------
LOEWDIN ATOMIC CHARGES
----------------------
   0 C :   -0.246612
   1 C :   -0.246612
   2 N :    0.116757
   3 N :    0.116757
   4 C :   -0.346025
   5 H :    0.128633
   6 H :    0.128633
   7 C :   -0.302252
   8 C :   -0.302252
   9 H :    0.110767
  10 H :    0.110767
  11 H :    0.129029
  12 H :    0.129029
  13 H :    0.109713
  14 H :    0.109713
  15 H :    0.126977
  16 H :    0.126977

-------------------------------
LOEWDIN REDUCED ORBITAL CHARGES
-------------------------------
  0 C s       :     2.786619  s :     2.786619
      pz      :     0.899457  p :     2.963840
      px      :     1.047169
      py      :     1.017214
      dz2     :     0.095086  d :     0.440995
      dxz     :     0.120416
      dyz     :     0.090139
      dx2y2   :     0.060184
      dxy     :     0.075170
      f0      :     0.014335  f :     0.055158
      f+1     :     0.010023
      f-1     :     0.010522
      f+2     :     0.005307
      f-2     :     0.005356
      f+3     :     0.005358
      f-3     :     0.004258
  1 C s       :     2.786618  s :     2.786618
      pz      :     0.899457  p :     2.963841
      px      :     1.047169
      py      :     1.017215
      dz2     :     0.095086  d :     0.440995
      dxz     :     0.120416
      dyz     :     0.090139
      dx2y2   :     0.060185
      dxy     :     0.075170
      f0      :     0.014335  f :     0.055158
      f+1     :     0.010023
      f-1     :     0.010522
      f+2     :     0.005307
      f-2     :     0.005356
      f+3     :     0.005358
      f-3     :     0.004258
  2 N s       :     2.884896  s :     2.884896
      pz      :     1.139518  p :     3.654652
      px      :     1.352061
      py      :     1.163073
      dz2     :     0.101517  d :     0.321721
      dxz     :     0.031387
      dyz     :     0.102654
      dx2y2   :     0.046253
      dxy     :     0.039909
      f0      :     0.002643  f :     0.021975
      f+1     :     0.002013
      f-1     :     0.007984
      f+2     :     0.002905
      f-2     :     0.001542
      f+3     :     0.002484
      f-3     :     0.002403
  3 N s       :     2.884896  s :     2.884896
      pz      :     1.139518  p :     3.654651
      px      :     1.352061
      py      :     1.163073
      dz2     :     0.101517  d :     0.321721
      dxz     :     0.031387
      dyz     :     0.102654
      dx2y2   :     0.046253
      dxy     :     0.039909
      f0      :     0.002643  f :     0.021975
      f+1     :     0.002013
      f-1     :     0.007984
      f+2     :     0.002905
      f-2     :     0.001542
      f+3     :     0.002484
      f-3     :     0.002403
  4 C s       :     3.029093  s :     3.029093
      pz      :     1.306768  p :     2.736703
      px      :     0.587134
      py      :     0.842800
      dz2     :     0.069785  d :     0.487340
      dxz     :     0.040623
      dyz     :     0.145366
      dx2y2   :     0.087513
      dxy     :     0.144053
      f0      :     0.009458  f :     0.092888
      f+1     :     0.001284
      f-1     :     0.026998
      f+2     :     0.015268
      f-2     :     0.026153
      f+3     :     0.007036
      f-3     :     0.006693
  5 H s       :     0.813911  s :     0.813911
      pz      :     0.016845  p :     0.057456
      px      :     0.025730
      py      :     0.014880
  6 H s       :     0.813911  s :     0.813911
      pz      :     0.016845  p :     0.057456
      px      :     0.025731
      py      :     0.014880
  7 C s       :     2.836332  s :     2.836332
      pz      :     1.081303  p :     3.091409
      px      :     1.081512
      py      :     0.928594
      dz2     :     0.069172  d :     0.333850
      dxz     :     0.015553
      dyz     :     0.058176
      dx2y2   :     0.052452
      dxy     :     0.138497
      f0      :     0.004859  f :     0.040660
      f+1     :     0.000663
      f-1     :     0.005557
      f+2     :     0.007388
      f-2     :     0.006400
      f+3     :     0.008563
      f-3     :     0.007230
  8 C s       :     2.836331  s :     2.836331
      pz      :     1.081304  p :     3.091410
      px      :     1.081512
      py      :     0.928595
      dz2     :     0.069172  d :     0.333850
      dxz     :     0.015553
      dyz     :     0.058176
      dx2y2   :     0.052452
      dxy     :     0.138497
      f0      :     0.004859  f :     0.040660
      f+1     :     0.000663
      f-1     :     0.005557
      f+2     :     0.007388
      f-2     :     0.006400
      f+3     :     0.008563
      f-3     :     0.007230
  9 H s       :     0.830892  s :     0.830892
      pz      :     0.016036  p :     0.058341
      px      :     0.027471
      py      :     0.014833
 10 H s       :     0.830892  s :     0.830892
      pz      :     0.016036  p :     0.058341
      px      :     0.027471
      py      :     0.014834
 11 H s       :     0.810543  s :     0.810543
      pz      :     0.038411  p :     0.060429
      px      :     0.012701
      py      :     0.009317
 12 H s       :     0.810543  s :     0.810543
      pz      :     0.038411  p :     0.060428
      px      :     0.012701
      py      :     0.009317
 13 H s       :     0.831844  s :     0.831844
      pz      :     0.013880  p :     0.058443
      px      :     0.028683
      py      :     0.015881
 14 H s       :     0.831844  s :     0.831844
      pz      :     0.013879  p :     0.058443
      px      :     0.028683
      py      :     0.015881
 15 H s       :     0.815816  s :     0.815816
      pz      :     0.013166  p :     0.057207
      px      :     0.029764
      py      :     0.014277
 16 H s       :     0.815816  s :     0.815816
      pz      :     0.013166  p :     0.057207
      px      :     0.029764
      py      :     0.014277


                      *****************************
                      * MAYER POPULATION ANALYSIS *
                      *****************************

  NA   - Mulliken gross atomic population
  ZA   - Total nuclear charge
  QA   - Mulliken gross atomic charge
  VA   - Mayer's total valence
  BVA  - Mayer's bonded valence
  FA   - Mayer's free valence

  ATOM       NA         ZA         QA         VA         BVA        FA
  0 C      6.1337     6.0000    -0.1337     3.9384     3.9384    -0.0000
  1 C      6.1337     6.0000    -0.1337     3.9384     3.9384     0.0000
  2 N      7.1047     7.0000    -0.1047     3.0487     3.0487    -0.0000
  3 N      7.1047     7.0000    -0.1047     3.0487     3.0487     0.0000
  4 C      6.1720     6.0000    -0.1720     2.6101     2.6101     0.0000
  5 H      0.8884     1.0000     0.1116     0.9622     0.9622     0.0000
  6 H      0.8884     1.0000     0.1116     0.9622     0.9622    -0.0000
  7 C      6.2551     6.0000    -0.2551     3.8547     3.8547    -0.0000
  8 C      6.2551     6.0000    -0.2551     3.8547     3.8547     0.0000
  9 H      0.8896     1.0000     0.1104     0.9574     0.9574     0.0000
 10 H      0.8896     1.0000     0.1104     0.9574     0.9574     0.0000
 11 H      0.8505     1.0000     0.1495     0.9821     0.9821    -0.0000
 12 H      0.8505     1.0000     0.1495     0.9821     0.9821    -0.0000
 13 H      0.8925     1.0000     0.1075     0.9591     0.9591    -0.0000
 14 H      0.8925     1.0000     0.1075     0.9591     0.9591     0.0000
 15 H      0.8995     1.0000     0.1005     0.9631     0.9631    -0.0000
 16 H      0.8995     1.0000     0.1005     0.9631     0.9631     0.0000

  Mayer bond orders larger than 0.100000
B(  0-C ,  1-C ) :   1.0213 B(  0-C ,  2-N ) :   0.9272 B(  0-C ,  5-H ) :   0.9734 
B(  0-C , 15-H ) :   0.9607 B(  1-C ,  3-N ) :   0.9272 B(  1-C ,  6-H ) :   0.9734 
B(  1-C , 16-H ) :   0.9607 B(  2-N ,  4-C ) :   1.2131 B(  2-N ,  7-C ) :   0.9309 
B(  3-N ,  4-C ) :   1.2132 B(  3-N ,  8-C ) :   0.9309 B(  7-C ,  9-H ) :   0.9710 
B(  7-C , 11-H ) :   0.9753 B(  7-C , 13-H ) :   0.9714 B(  8-C , 10-H ) :   0.9710 
B(  8-C , 12-H ) :   0.9753 B(  8-C , 14-H ) :   0.9714 

-------
TIMINGS
-------

Total SCF time: 0 days 0 hours 1 min 27 sec 

Total time                  ....      87.574 sec
Sum of individual times     ....      86.842 sec  ( 99.2%)

Fock matrix formation       ....      84.773 sec  ( 96.8%)
  Split-RI-J                ....       3.988 sec  (  4.7% of F)
  Chain of spheres X        ....      71.015 sec  ( 83.8% of F)
  XC integration            ....       9.195 sec  ( 10.8% of F)
    Basis function eval.    ....       2.073 sec  ( 22.5% of XC)
    Density eval.           ....       2.155 sec  ( 23.4% of XC)
    XC-Functional eval.     ....       0.669 sec  (  7.3% of XC)
    XC-Potential eval.      ....       3.025 sec  ( 32.9% of XC)
Diagonalization             ....       0.205 sec  (  0.2%)
Density matrix formation    ....       0.013 sec  (  0.0%)
Population analysis         ....       0.058 sec  (  0.1%)
Initial guess               ....       0.290 sec  (  0.3%)
Orbital Transformation      ....       0.000 sec  (  0.0%)
Orbital Orthonormalization  ....       0.000 sec  (  0.0%)
DIIS solution               ....       0.129 sec  (  0.1%)
SOSCF solution              ....       0.086 sec  (  0.1%)
Grid generation             ....       1.287 sec  (  1.5%)

Maximum memory used throughout the entire SCF-calculation: 77.4 MB


-------------------------------------------------------------------------------
                          DFT DISPERSION CORRECTION                            
                                                                               
                                 DFTD4 V2.5                                    
-------------------------------------------------------------------------------
The WB97X functional is recognized
Active option DFTDOPT                   ...         5   

Starting D4
-------------------------   ----------------
Dispersion correction           -0.001939902
-------------------------   ----------------


-------------------------   --------------------
FINAL SINGLE POINT ENERGY      -306.033505940546
-------------------------   --------------------



           ************************************************************
           *        Program running with 4 parallel MPI-processes     *
           *              working on a common directory               *
           ************************************************************
------------------------------------------------------------------------------
                         ORCA SCF GRADIENT CALCULATION
------------------------------------------------------------------------------

 ... reading COSX grid (gridx3)
Gradient of the Kohn-Sham DFT energy:
Kohn-Sham wavefunction type      ... RKS
Hartree-Fock exchange scaling    ...    0.158
Number of operators              ...    1
Number of atoms                  ...   17
Basis set dimensions             ...  277
Integral neglect threshold       ... 2.5e-11
Integral primitive cutoff        ... 2.5e-12
SHARK Integral package           ... ON

Nuc. rep. gradient       (SHARK) ... done (  0.0 sec)
HCore & Overlap gradient (SHARK) ... done (  0.2 sec)
RI-J gradient            (SHARK) ... done (  1.0 sec)
COSX-gradient                    ... done ( 14.1 sec)
Exchange-correlation gradient    ... done
Dispersion correction            ... Starting D4
Starting D4
Starting D4


Starting D4
------------------- 
Dispersion Gradient 
------------------- 
   1  :    0.000000836    0.000013294   -0.000024769
   2  :   -0.000000836   -0.000013294   -0.000024769
   3  :   -0.000001288    0.000012963    0.000000687
   4  :    0.000001288   -0.000012963    0.000000687
   5  :   -0.000000000    0.000000000    0.000007689
   6  :    0.000000154    0.000002188   -0.000000531
   7  :   -0.000000154   -0.000002188   -0.000000531
   8  :   -0.000002703    0.000044883    0.000012139
   9  :    0.000002703   -0.000044883    0.000012139
  10  :    0.000000430    0.000006783    0.000003600
  11  :   -0.000000430   -0.000006783    0.000003600
  12  :   -0.000000603    0.000007848    0.000001734
  13  :    0.000000603   -0.000007848    0.000001734
  14  :   -0.000001879    0.000006717    0.000003381
  15  :    0.000001879   -0.000006717    0.000003381
  16  :   -0.000001304    0.000001854   -0.000000086
  17  :    0.000001304   -0.000001854   -0.000000086

  |G| =    0.000071213

done

------------------
CARTESIAN GRADIENT
------------------

   1   C   :   -0.000831177   -0.003208715    0.005062151
   2   C   :    0.000831182    0.003207992    0.005062085
   3   N   :    0.000124273    0.002516005   -0.002416995
   4   N   :   -0.000124461   -0.002515696   -0.002417098
   5   C   :    0.000000135   -0.000000045    0.006814448
   6   H   :   -0.004343892    0.002687322   -0.003818097
   7   H   :    0.004343663   -0.002687056   -0.003817858
   8   C   :    0.000315855   -0.005343609   -0.002603297
   9   C   :   -0.000315062    0.005343597   -0.002603365
  10   H   :   -0.004574738    0.003359728   -0.002035624
  11   H   :    0.004574460   -0.003359584   -0.002035525
  12   H   :   -0.000505801    0.000154208    0.006221744
  13   H   :    0.000505728   -0.000154192    0.006221648
  14   H   :    0.004664780    0.003412213   -0.001117481
  15   H   :   -0.004665135   -0.003412400   -0.001117534
  16   H   :    0.005099095    0.002469076   -0.002629813
  17   H   :   -0.005098862   -0.002468899   -0.002629888

Difference to translation invariance:
           :    0.0000000430   -0.0000000521    0.0001395009

Difference to rotation invariance:
           :    0.0000001924    0.0000000010   -0.0020222025

Norm of the cartesian gradient     ...    0.0243772480
RMS gradient                       ...    0.0034134975
MAX gradient                       ...    0.0068144483

-------
TIMINGS
-------

Total SCF gradient time            ...       18.421 sec

One electron gradient       ....       0.179 sec  (  1.0%)
RI-J Coulomb gradient       ....       0.961 sec  (  5.2%)
COSX gradient               ....      14.062 sec  ( 76.3%)
XC gradient                 ....       2.489 sec  ( 13.5%)

Maximum memory used throughout the entire SCFGRAD-calculation: 49.8 MB
------------------------------------------------------------------------------
                         ORCA GEOMETRY RELAXATION STEP
------------------------------------------------------------------------------

Reading the OPT-File                    .... done
Getting information on internals        .... done
Copying old internal coords+grads       .... done
Making the new internal coordinates     .... (new redundants).... done
Validating the new internal coordinates .... (new redundants).... done
Calculating the B-matrix                .... done
Calculating the G,G- and P matrices     .... done
Transforming gradient to internals      .... done
Projecting the internal gradient        .... done
Number of atoms                         ....  17
Number of internal coordinates          ....  85
Current Energy                          ....  -306.033505941 Eh
Current gradient norm                   ....     0.024377248 Eh/bohr
Maximum allowed component of the step   ....  0.300
Current trust radius                    ....  0.300
Evaluating the initial hessian          ....  (Almloef) done
Projecting the Hessian                  .... done
Forming the augmented Hessian           .... done
Diagonalizing the augmented Hessian     .... done
Last element of RFO vector              ....  0.998168796
Lowest eigenvalues of augmented Hessian:
 -0.001231467  0.013906102  0.018919583  0.018919618  0.019938018
Length of the computed step             ....  0.060601101
The final length of the internal step   ....  0.060601101
Converting the step to cartesian space:
 Initial RMS(Int)=    0.0065731122
Transforming coordinates:
 Iter   0:  RMS(Cart)=    0.0104339523 RMS(Int)=    0.0065735579
 Iter   1:  RMS(Cart)=    0.0000166575 RMS(Int)=    0.0000109554
 Iter   2:  RMS(Cart)=    0.0000001271 RMS(Int)=    0.0000000931
 Iter   3:  RMS(Cart)=    0.0000000009 RMS(Int)=    0.0000000007
done
Storing new coordinates                 .... done

                                .--------------------.
          ----------------------|Geometry convergence|-------------------------
          Item                value                   Tolerance       Converged
          ---------------------------------------------------------------------
          RMS gradient        0.0022912114            0.0001000000      NO
          MAX gradient        0.0063596208            0.0003000000      NO
          RMS step            0.0065731122            0.0020000000      NO
          MAX step            0.0184502772            0.0040000000      NO
          ........................................................
          Max(Bonds)      0.0098      Max(Angles)    0.16
          Max(Dihed)        0.24      Max(Improp)    0.00
          ---------------------------------------------------------------------

[...]
     26       0.019463   0.011555   0.008108   0.001499   0.002154  -0.007599
     27      -0.022366  -0.160673   0.193982   0.144475   0.195508  -0.309792
     28      -0.144094  -0.195182   0.264067   0.223184   0.310499   0.171776
     29      -0.170418   0.073731  -0.077694  -0.029880  -0.013311  -0.148393
     30      -0.022375  -0.160669  -0.193980  -0.144473   0.195506  -0.309786
     31      -0.144101  -0.195179  -0.264066  -0.223182   0.310500   0.171770
     32       0.170410  -0.073733  -0.077696  -0.029881   0.013312   0.148388
     33       0.454705   0.034132  -0.033366  -0.014872  -0.011723  -0.020981
     34       0.122636   0.092645  -0.146428  -0.077578  -0.066559  -0.002388
     35       0.025718  -0.004629   0.001226  -0.002361  -0.007906   0.204396
     36       0.454698   0.034127   0.033363   0.014871  -0.011723  -0.020979
     37       0.122638   0.092644   0.146428   0.077578  -0.066560  -0.002388
     38      -0.025715   0.004630   0.001226  -0.002361   0.007906  -0.204393
     39       0.059963   0.151533  -0.184386  -0.143272  -0.201967   0.465504
     40       0.097920  -0.170115   0.231977   0.205006   0.302726   0.268583
     41       0.428099   0.147268  -0.159017  -0.076877  -0.061204  -0.138599
     42       0.059973   0.151532   0.184387   0.143272  -0.201969   0.465491
     43       0.097910  -0.170113  -0.231977  -0.205005   0.302726   0.268578
     44      -0.428100  -0.147263  -0.159014  -0.076875   0.061204   0.138597
     45       0.054405  -0.223773   0.194357  -0.208911  -0.133576  -0.016860
     46      -0.098056   0.224158  -0.237772   0.150016   0.027355  -0.008319
     47       0.020638  -0.269290   0.164941  -0.324798  -0.288793   0.004144
     48       0.054405  -0.223771  -0.194359   0.208911  -0.133576  -0.016858
     49      -0.098058   0.224157   0.237777  -0.150017   0.027355  -0.008318
     50      -0.020635   0.269287   0.164944  -0.324798   0.288794  -0.004144
                 42         43         44         45         46         47    
      0       0.005748   0.024735   0.039736  -0.014032   0.006309   0.051507
      1       0.005645   0.029803   0.027097   0.007371  -0.002030  -0.019072
      2      -0.004870  -0.030779  -0.023681  -0.008860   0.002890   0.024278
      3      -0.005748   0.024731  -0.039739   0.014031   0.006308  -0.051503
      4      -0.005645   0.029800  -0.027100  -0.007371  -0.002030   0.019071
      5      -0.004870   0.030777  -0.023684  -0.008860  -0.002889   0.024277
      6      -0.000048  -0.000163  -0.000193   0.000369  -0.000299  -0.000294
      7      -0.000779   0.000398   0.000263   0.000142  -0.000039  -0.000532
      8      -0.000133  -0.002122  -0.001423  -0.000163   0.000172   0.000245
      9       0.000048  -0.000163   0.000193  -0.000369  -0.000299   0.000294
     10       0.000779   0.000398  -0.000263  -0.000142  -0.000039   0.000532
     11      -0.000133   0.002122  -0.001423  -0.000163  -0.000172   0.000245
     12       0.000000   0.000501  -0.000000  -0.000000   0.000593   0.000000
     13      -0.000000  -0.002709   0.000000  -0.000000   0.000462   0.000000
     14      -0.000707   0.000000   0.001266   0.000365  -0.000000  -0.000790
     15       0.036424   0.251327   0.115451   0.160966  -0.059773  -0.497917
     16      -0.017432  -0.116680  -0.047956  -0.082849   0.030307   0.261759
     17       0.020729   0.160997   0.065335   0.112641  -0.043555  -0.342680
     18      -0.036424   0.251315  -0.115477  -0.160956  -0.059766   0.497888
     19       0.017432  -0.116674   0.047968   0.082844   0.030303  -0.261745
     20       0.020729  -0.160989   0.065351   0.112634   0.043550  -0.342660
     21      -0.011133   0.001974   0.005123  -0.061539   0.064343  -0.019593
     22      -0.035346   0.001238   0.006525   0.005702  -0.005401   0.000658
     23       0.007260  -0.000231  -0.000937  -0.004672   0.004888  -0.001449
     24       0.011133   0.001973  -0.005123   0.061535   0.064348   0.019590
     25       0.035346   0.001237  -0.006525  -0.005701  -0.005401  -0.000658
     26       0.007260   0.000230  -0.000937  -0.004671  -0.004888  -0.001449
     27      -0.305086   0.001186   0.035012   0.429437  -0.443358   0.124846
     28       0.169872  -0.000751  -0.019180  -0.258651   0.266565  -0.073078
     29      -0.146162  -0.001109   0.015127   0.225582  -0.233481   0.067964
     30       0.305095   0.001180  -0.035014  -0.429410  -0.443393  -0.124828
     31      -0.169875  -0.000749   0.019181   0.258632   0.266582   0.073066
     32      -0.146164   0.001111   0.015128   0.225565   0.233497   0.067954
     33      -0.020689   0.000693   0.003766  -0.007263   0.008200  -0.004003
     34      -0.002529  -0.000964  -0.000708  -0.000208   0.000042   0.000777
     35       0.201254  -0.005658  -0.035466  -0.065884   0.064908  -0.012240
     36       0.020688   0.000693  -0.003766   0.007263   0.008201   0.004003
     37       0.002529  -0.000964   0.000709   0.000208   0.000042  -0.000776
     38       0.201260   0.005654  -0.035467  -0.065880  -0.064913  -0.012237
     39       0.457518  -0.024865  -0.100787   0.310193  -0.329927   0.110769
     40       0.264466  -0.017111  -0.062535   0.191269  -0.203346   0.067055
     41      -0.136278   0.005725   0.028606  -0.104564   0.110909  -0.036925
     42      -0.457527  -0.024853   0.100789  -0.310172  -0.329949  -0.110754
     43      -0.264475  -0.017103   0.062537  -0.191258  -0.203362  -0.067047
     44      -0.136283  -0.005722   0.028607  -0.104559  -0.110919  -0.036921
     45      -0.104274  -0.547305  -0.587751   0.003588  -0.016390  -0.111177
     46      -0.044965  -0.223757  -0.244673   0.003268  -0.007227  -0.056064
     47       0.038036   0.210463   0.231974  -0.006451   0.009530   0.053165
     48       0.104271  -0.547250   0.587804  -0.003583  -0.016388   0.111158
     49       0.044964  -0.223733   0.244693  -0.003266  -0.007226   0.056055
     50       0.038035  -0.210440   0.231993  -0.006449  -0.009529   0.053157
                 48         49         50    
      0       0.061936  -0.000010   0.000135
      1      -0.011218  -0.000149  -0.000120
      2       0.018221  -0.000295  -0.000106
      3       0.061939  -0.000008  -0.000135
      4      -0.011220  -0.000151   0.000118
      5      -0.018222   0.000296  -0.000102
      6      -0.000326  -0.000038  -0.000072
      7       0.000054  -0.000454  -0.000536
      8       0.000277   0.000647   0.000352
      9      -0.000326  -0.000039   0.000071
     10       0.000054  -0.000461   0.000529
     11      -0.000277  -0.000652   0.000343
     12       0.000382   0.000054   0.000000
     13       0.000499  -0.000309  -0.000002
     14       0.000000  -0.000001   0.000076
     15      -0.472179   0.000808  -0.001552
     16       0.249891  -0.000907   0.000171
     17      -0.327401   0.000228  -0.002063
     18      -0.472214   0.000787   0.001564
     19       0.249910  -0.000905  -0.000184
     20       0.327425  -0.000199  -0.002066
     21      -0.007560  -0.002885  -0.002900
     22       0.000082  -0.009710  -0.009884
     23      -0.000352   0.062745   0.063605
     24      -0.007561  -0.002924   0.002860
     25       0.000082  -0.009845   0.009751
     26       0.000352  -0.063610   0.062739
     27       0.046649  -0.129007  -0.131084
     28      -0.026280   0.070384   0.071467
     29       0.026478  -0.057429  -0.058324
     30       0.046652  -0.130791   0.129307
     31      -0.026281   0.071356  -0.070496
     32      -0.026479   0.058223  -0.057532
     33      -0.002045   0.058758   0.059554
     34       0.000394  -0.000087  -0.000139
     35      -0.005570  -0.667951  -0.677007
     36      -0.002045   0.059565  -0.058741
     37       0.000394  -0.000089   0.000138
     38       0.005569   0.677161  -0.667795
     39       0.044970   0.104169   0.105938
     40       0.025740   0.056675   0.057695
     41      -0.015585  -0.023253  -0.023634
     42       0.044974   0.105610  -0.104502
     43       0.025742   0.057461  -0.056915
     44       0.015587   0.023575  -0.023314
     45      -0.263063  -0.000025   0.000646
     46      -0.120774  -0.000443  -0.000405
     47       0.112720  -0.000403  -0.000915
     48      -0.263072  -0.000016  -0.000646
     49      -0.120778  -0.000448   0.000398
     50      -0.112724   0.000416  -0.000909


-----------
IR SPECTRUM
-----------

 Mode   freq       eps      Int      T**2         TX        TY        TZ
       cm**-1   L/(mol*cm) km/mol    a.u.
----------------------------------------------------------------------------
  6:    103.58   0.000000    0.00  0.000001  ( 0.000003 -0.000000  0.001154)
  7:    119.35   0.001331    6.73  0.003481  ( 0.057203 -0.014442 -0.000000)
  8:    169.45   0.000000    0.00  0.000001  (-0.000000  0.000000 -0.000934)
  9:    207.69   0.001449    7.32  0.002178  ( 0.046277 -0.005998 -0.000000)
 10:    228.70   0.000016    0.08  0.000022  (-0.000000 -0.000000 -0.004701)
 11:    292.40   0.000169    0.85  0.000180  ( 0.000000  0.000000 -0.013422)
 12:    421.50   0.001109    5.61  0.000821  ( 0.006073 -0.028009  0.000000)
 13:    465.58   0.000934    4.72  0.000626  (-0.011689 -0.022118 -0.000000)
 14:    624.49   0.000182    0.92  0.000091  (-0.000000 -0.000000 -0.009548)
 15:    654.00   0.005519   27.89  0.002633  ( 0.002024 -0.051276  0.000000)
 16:    856.40   0.000235    1.19  0.000086  (-0.003823 -0.008435 -0.000000)
 17:    931.70   0.001872    9.46  0.000627  ( 0.000000  0.000000  0.025041)
 18:    962.45   0.000078    0.39  0.000025  ( 0.004943  0.000852 -0.000000)
 19:   1020.50   0.000044    0.22  0.000013  ( 0.000000 -0.000000 -0.003664)
 20:   1099.48   0.000134    0.68  0.000038  (-0.000000  0.000001  0.006177)
 21:   1102.87   0.004990   25.22  0.001412  (-0.006173  0.037067 -0.000000)
 22:   1115.71   0.000016    0.08  0.000004  (-0.000000 -0.000000  0.002104)
 23:   1158.79   0.000475    2.40  0.000128  (-0.002659  0.010988  0.000000)
 24:   1175.51   0.000004    0.02  0.000001  ( 0.000000  0.000000 -0.001085)
 25:   1210.27   0.002007   10.14  0.000518  ( 0.022597  0.002634 -0.000000)
 26:   1249.25   0.000191    0.97  0.000048  (-0.000000 -0.000000  0.006913)
 27:   1262.53   0.008673   43.83  0.002144  (-0.009463  0.045322  0.000000)
 28:   1326.22   0.015350   77.57  0.003612  (-0.002408  0.060051  0.000000)
 29:   1332.90   0.000004    0.02  0.000001  ( 0.000000  0.000002 -0.001001)
 30:   1349.67   0.001998   10.10  0.000462  ( 0.000000 -0.000000  0.021492)
 31:   1446.39   0.011704   59.15  0.002525  (-0.000137 -0.050251 -0.000000)
 32:   1457.97   0.000422    2.13  0.000090  (-0.000000  0.000001 -0.009509)
 33:   1487.24   0.022407  113.24  0.004702  (-0.018937  0.065901  0.000000)
 34:   1491.98   0.000137    0.69  0.000029  ( 0.000000  0.000000  0.005348)
 35:   1492.31   0.001031    5.21  0.000216  ( 0.000000 -0.000001  0.014685)
 36:   1494.01   0.006537   33.04  0.001365  ( 0.022525  0.029293 -0.000000)
 37:   1515.88   0.000022    0.11  0.000005  ( 0.001455  0.001572  0.000000)
 38:   1529.64   0.001567    7.92  0.000320  ( 0.000000 -0.000000 -0.017882)
 39:   1553.31   0.001073    5.42  0.000216  (-0.000000 -0.000000 -0.014681)
 40:   1560.66   0.024477  123.70  0.004894  (-0.001702  0.069939  0.000000)
 41:   3033.33   0.033053  167.03  0.003400  (-0.006389 -0.057962  0.000000)
 42:   3035.43   0.000151    0.76  0.000016  ( 0.000000  0.000001 -0.003937)
 43:   3042.16   0.012211   61.71  0.001253  ( 0.018814  0.029978 -0.000001)
 44:   3046.51   0.008229   41.58  0.000843  (-0.000001 -0.000001 -0.029032)
 45:   3087.94   0.001025    5.18  0.000104  (-0.000002  0.000000 -0.010178)
 46:   3088.44   0.018608   94.04  0.001880  ( 0.042573 -0.008230  0.000000)
 47:   3095.03   0.003363   16.99  0.000339  ( 0.000000 -0.000000  0.018413)
 48:   3107.96   0.006613   33.42  0.000664  ( 0.024945 -0.006461 -0.000001)
 49:   3183.39   0.000042    0.21  0.000004  (-0.001025 -0.001753 -0.000100)
 50:   3183.44   0.002192   11.08  0.000215  (-0.000007 -0.000012  0.014660)

* The epsilon (eps) is given for a Dirac delta lineshape.
** The dipole moment derivative (T) already includes vibrational overlap.

The first frequency considered to be a vibration is 6
The total number of vibrations considered is 45


--------------------------
THERMOCHEMISTRY AT 298.15K
--------------------------

Temperature         ... 298.15 K
Pressure            ... 1.00 atm
Total Mass          ... 98.15 AMU

Throughout the following assumptions are being made:
  (1) The electronic state is orbitally nondegenerate
  (2) There are no thermally accessible electronically excited states
  (3) Hindered rotations indicated by low frequency modes are not
      treated as such but are treated as vibrations and this may
      cause some error
  (4) All equations used are the standard statistical mechanics
      equations for an ideal gas
  (5) All vibrations are strictly harmonic

freq.     103.58  E(vib)   ...       0.46 
freq.     119.35  E(vib)   ...       0.44 
freq.     169.45  E(vib)   ...       0.38 
freq.     207.69  E(vib)   ...       0.34 
freq.     228.70  E(vib)   ...       0.32 
freq.     292.40  E(vib)   ...       0.27 
freq.     421.50  E(vib)   ...       0.18 
freq.     465.58  E(vib)   ...       0.16 
freq.     624.49  E(vib)   ...       0.09 
freq.     654.00  E(vib)   ...       0.08 
freq.     856.40  E(vib)   ...       0.04 
freq.     931.70  E(vib)   ...       0.03 
freq.     962.45  E(vib)   ...       0.03 
freq.    1020.50  E(vib)   ...       0.02 
freq.    1099.48  E(vib)   ...       0.02 
freq.    1102.87  E(vib)   ...       0.02 
freq.    1115.71  E(vib)   ...       0.01 
freq.    1158.79  E(vib)   ...       0.01 
freq.    1175.51  E(vib)   ...       0.01 
freq.    1210.27  E(vib)   ...       0.01 
freq.    1249.25  E(vib)   ...       0.01 
freq.    1262.53  E(vib)   ...       0.01 
freq.    1326.22  E(vib)   ...       0.01 
freq.    1332.90  E(vib)   ...       0.01 
freq.    1349.67  E(vib)   ...       0.01 
freq.    1446.39  E(vib)   ...       0.00 
freq.    1457.97  E(vib)   ...       0.00 
freq.    1487.24  E(vib)   ...       0.00 
freq.    1491.98  E(vib)   ...       0.00 
freq.    1492.31  E(vib)   ...       0.00 
freq.    1494.01  E(vib)   ...       0.00 
freq.    1515.88  E(vib)   ...       0.00 
freq.    1529.64  E(vib)   ...       0.00 
freq.    1553.31  E(vib)   ...       0.00 
freq.    1560.66  E(vib)   ...       0.00 
freq.    3033.33  E(vib)   ...       0.00 
freq.    3035.43  E(vib)   ...       0.00 
freq.    3042.16  E(vib)   ...       0.00 
freq.    3046.51  E(vib)   ...       0.00 
freq.    3087.94  E(vib)   ...       0.00 
freq.    3088.44  E(vib)   ...       0.00 
freq.    3095.03  E(vib)   ...       0.00 
freq.    3107.96  E(vib)   ...       0.00 
freq.    3183.39  E(vib)   ...       0.00 
freq.    3183.44  E(vib)   ...       0.00 

------------
INNER ENERGY
------------

The inner energy is: U= E(el) + E(ZPE) + E(vib) + E(rot) + E(trans)
    E(el)   - is the total energy from the electronic structure calculation
              = E(kin-el) + E(nuc-el) + E(el-el) + E(nuc-nuc)
    E(ZPE)  - the the zero temperature vibrational energy from the frequency calculation
    E(vib)  - the the finite temperature correction to E(ZPE) due to population
              of excited vibrational states
    E(rot)  - is the rotational thermal energy
    E(trans)- is the translational thermal energy

Summary of contributions to the inner energy U:
Electronic energy                ...   -306.03418730 Eh
Zero point energy                ...      0.15121112 Eh      94.89 kcal/mol
Thermal vibrational correction   ...      0.00477185 Eh       2.99 kcal/mol
Thermal rotational correction    ...      0.00141627 Eh       0.89 kcal/mol
Thermal translational correction ...      0.00141627 Eh       0.89 kcal/mol
-----------------------------------------------------------------------
Total thermal energy                   -305.87537179 Eh


Summary of corrections to the electronic energy:
(perhaps to be used in another calculation)
Total thermal correction                  0.00760440 Eh       4.77 kcal/mol
Non-thermal (ZPE) correction              0.15121112 Eh      94.89 kcal/mol
-----------------------------------------------------------------------
Total correction                          0.15881551 Eh      99.66 kcal/mol


--------
ENTHALPY
--------

The enthalpy is H = U + kB*T
                kB is Boltzmann's constant
Total free energy                 ...   -305.87537179 Eh 
Thermal Enthalpy correction       ...      0.00094421 Eh       0.59 kcal/mol
-----------------------------------------------------------------------
Total Enthalpy                    ...   -305.87442758 Eh


Note: Rotational entropy computed according to Herzberg 
Infrared and Raman Spectra, Chapter V,1, Van Nostrand Reinhold, 1945 
Point Group:  C2, Symmetry Number:   2  
Rotational constants in cm-1:     0.200237     0.068155     0.052937 

Vibrational entropy computed according to the QRRHO of S. Grimme
Chem.Eur.J. 2012 18 9955


-------
ENTROPY
-------

The entropy contributions are T*S = T*(S(el)+S(vib)+S(rot)+S(trans))
     S(el)   - electronic entropy
     S(vib)  - vibrational entropy
     S(rot)  - rotational entropy
     S(trans)- translational entropy
The entropies will be listed as multiplied by the temperature to get
units of energy

Electronic entropy                ...      0.00000000 Eh      0.00 kcal/mol
Vibrational entropy               ...      0.00827584 Eh      5.19 kcal/mol
Rotational entropy                ...      0.01227092 Eh      7.70 kcal/mol
Translational entropy             ...      0.01884478 Eh     11.83 kcal/mol
-----------------------------------------------------------------------
Final entropy term                ...      0.03939154 Eh     24.72 kcal/mol

In case the symmetry of your molecule has not been determined correctly
or in case you have a reason to use a different symmetry number we print 
out the resulting rotational entropy values for sn=1,12 :
 --------------------------------------------------------
|  sn= 1 | S(rot)=       0.01292538 Eh      8.11 kcal/mol|
|  sn= 2 | S(rot)=       0.01227092 Eh      7.70 kcal/mol|
|  sn= 3 | S(rot)=       0.01188809 Eh      7.46 kcal/mol|
|  sn= 4 | S(rot)=       0.01161646 Eh      7.29 kcal/mol|
|  sn= 5 | S(rot)=       0.01140578 Eh      7.16 kcal/mol|
|  sn= 6 | S(rot)=       0.01123363 Eh      7.05 kcal/mol|
|  sn= 7 | S(rot)=       0.01108809 Eh      6.96 kcal/mol|
|  sn= 8 | S(rot)=       0.01096201 Eh      6.88 kcal/mol|
|  sn= 9 | S(rot)=       0.01085080 Eh      6.81 kcal/mol|
|  sn=10 | S(rot)=       0.01075132 Eh      6.75 kcal/mol|
|  sn=11 | S(rot)=       0.01066133 Eh      6.69 kcal/mol|
|  sn=12 | S(rot)=       0.01057918 Eh      6.64 kcal/mol|
 --------------------------------------------------------


-------------------
GIBBS FREE ENERGY
-------------------

The Gibbs free energy is G = H - T*S

Total enthalpy                    ...   -305.87442758 Eh 
Total entropy correction          ...     -0.03939154 Eh    -24.72 kcal/mol
-----------------------------------------------------------------------
Final Gibbs free energy         ...   -305.91381912 Eh

For completeness - the Gibbs free energy minus the electronic energy
G-E(el)                           ...      0.12036818 Eh     75.53 kcal/mol


Timings for individual modules:

Sum of individual times         ...      915.155 sec (=  15.253 min)
GTO integral calculation        ...        3.474 sec (=   0.058 min)   0.4 %
SCF iterations                  ...      301.834 sec (=   5.031 min)  33.0 %
SCF Gradient evaluation         ...       75.458 sec (=   1.258 min)   8.2 %
Geometry relaxation             ...        0.194 sec (=   0.003 min)   0.0 %
Analytical frequency calculation...      534.195 sec (=   8.903 min)  58.4 %
                             ****ORCA TERMINATED NORMALLY****
TOTAL RUN TIME: 0 days 0 hours 15 minutes 17 seconds 22 msec
