
                                 *****************
                                 * O   R   C   A *
                                 *****************

                                            #,                                       
                                            ###                                      
                                            ####                                     
                                            #####                                    
                                            ######                                   
                                           ########,                                 
                                     ,,################,,,,,                         
                               ,,#################################,,                 
                          ,,##########################################,,             
                       ,#########################################, ''#####,          
                    ,#############################################,,   '####,        
                  ,##################################################,,,,####,       
                ,###########''''           ''''###############################       
              ,#####''   ,,,,##########,,,,          '''####'''          '####       
            ,##' ,,,,###########################,,,                        '##       
           ' ,,###''''                  '''############,,,                           
         ,,##''                                '''############,,,,        ,,,,,,###''
      ,#''                                            '''#######################'''  
     '                                                          ''''####''''         
             ,#######,   #######,   ,#######,      ##                                
            ,#'     '#,  ##    ##  ,#'     '#,    #''#        ######   ,####,        
            ##       ##  ##   ,#'  ##            #'  '#       #        #'  '#        
            ##       ##  #######   ##           ,######,      #####,   #    #        
            '#,     ,#'  ##    ##  '#,     ,#' ,#      #,         ##   #,  ,#        
             '#######'   ##     ##  '#######'  #'      '#     #####' # '####'        



                  #######################################################
                  #                        -***-                        #
                  #          Department of theory and spectroscopy      #
                  #    Directorship and core code : Frank Neese         #
                  #        Max Planck Institute fuer Kohlenforschung    #
                  #                Kaiser Wilhelm Platz 1               #
                  #                 D-45470 Muelheim/Ruhr               #
                  #                      Germany                        #
                  #                                                     #
                  #                  All rights reserved                #
                  #                        -***-                        #
                  #######################################################


                         Program Version 5.0.3 -  RELEASE  -


 With contributions from (in alphabetic order):
   Daniel Aravena         : Magnetic Suceptibility
   Michael Atanasov       : Ab Initio Ligand Field Theory (pilot matlab implementation)
   Alexander A. Auer      : GIAO ZORA, VPT2 properties, NMR spectrum
   Ute Becker             : Parallelization
   Giovanni Bistoni       : ED, misc. LED, open-shell LED, HFLD
   Martin Brehm           : Molecular dynamics
   Dmytro Bykov           : SCF Hessian
   Vijay G. Chilkuri      : MRCI spin determinant printing, contributions to CSF-ICE
   Dipayan Datta          : RHF DLPNO-CCSD density
   Achintya Kumar Dutta   : EOM-CC, STEOM-CC
   Dmitry Ganyushin       : Spin-Orbit,Spin-Spin,Magnetic field MRCI
   Miquel Garcia          : C-PCM and meta-GGA Hessian, CC/C-PCM, Gaussian charge scheme
   Yang Guo               : DLPNO-NEVPT2, F12-NEVPT2, CIM, IAO-localization
   Andreas Hansen         : Spin unrestricted coupled pair/coupled cluster methods
   Benjamin Helmich-Paris : MC-RPA, TRAH-SCF, COSX integrals
   Lee Huntington         : MR-EOM, pCC
   Robert Izsak           : Overlap fitted RIJCOSX, COSX-SCS-MP3, EOM
   Marcus Kettner         : VPT2
   Christian Kollmar      : KDIIS, OOCD, Brueckner-CCSD(T), CCSD density, CASPT2, CASPT2-K
   Simone Kossmann        : Meta GGA functionals, TD-DFT gradient, OOMP2, MP2 Hessian
   Martin Krupicka        : Initial AUTO-CI
   Lucas Lang             : DCDCAS
   Marvin Lechner         : AUTO-CI (C++ implementation), FIC-MRCC
   Dagmar Lenk            : GEPOL surface, SMD
   Dimitrios Liakos       : Extrapolation schemes; Compound Job, initial MDCI parallelization
   Dimitrios Manganas     : Further ROCIS development; embedding schemes
   Dimitrios Pantazis     : SARC Basis sets
   Anastasios Papadopoulos: AUTO-CI, single reference methods and gradients
   Taras Petrenko         : DFT Hessian,TD-DFT gradient, ASA, ECA, R-Raman, ABS, FL, XAS/XES, NRVS
   Peter Pinski           : DLPNO-MP2, DLPNO-MP2 Gradient
   Christoph Reimann      : Effective Core Potentials
   Marius Retegan         : Local ZFS, SOC
   Christoph Riplinger    : Optimizer, TS searches, QM/MM, DLPNO-CCSD(T), (RO)-DLPNO pert. Triples
   Tobias Risthaus        : Range-separated hybrids, TD-DFT gradient, RPA, STAB
   Michael Roemelt        : Original ROCIS implementation
   Masaaki Saitow         : Open-shell DLPNO-CCSD energy and density
   Barbara Sandhoefer     : DKH picture change effects
   Avijit Sen             : IP-ROCIS
   Kantharuban Sivalingam : CASSCF convergence, NEVPT2, FIC-MRCI
   Bernardo de Souza      : ESD, SOC TD-DFT
   Georgi Stoychev        : AutoAux, RI-MP2 NMR, DLPNO-MP2 response
   Willem Van den Heuvel  : Paramagnetic NMR
   Boris Wezisla          : Elementary symmetry handling
   Frank Wennmohs         : Technical directorship


 We gratefully acknowledge several colleagues who have allowed us to
 interface, adapt or use parts of their codes:
   Stefan Grimme, W. Hujo, H. Kruse, P. Pracht,  : VdW corrections, initial TS optimization,
                  C. Bannwarth, S. Ehlert          DFT functionals, gCP, sTDA/sTD-DF
   Ed Valeev, F. Pavosevic, A. Kumar             : LibInt (2-el integral package), F12 methods
   Garnet Chan, S. Sharma, J. Yang, R. Olivares  : DMRG
   Ulf Ekstrom                                   : XCFun DFT Library
   Mihaly Kallay                                 : mrcc  (arbitrary order and MRCC methods)
   Jiri Pittner, Ondrej Demel                    : Mk-CCSD
   Frank Weinhold                                : gennbo (NPA and NBO analysis)
   Christopher J. Cramer and Donald G. Truhlar   : smd solvation model
   Lars Goerigk                                  : TD-DFT with DH, B97 family of functionals
   V. Asgeirsson, H. Jonsson                     : NEB implementation
   FAccTs GmbH                                   : IRC, NEB, NEB-TS, DLPNO-Multilevel, CI-OPT
                                                   MM, QMMM, 2- and 3-layer-ONIOM, Crystal-QMMM,
                                                   LR-CPCM, SF, NACMEs, symmetry and pop. for TD-DFT,
                                                   nearIR, NL-DFT gradient (VV10), updates on ESD,
                                                   ML-optimized integration grids
   S Lehtola, MJT Oliveira, MAL Marques          : LibXC Library
   Liviu Ungur et al                             : ANISO software


 Your calculation uses the libint2 library for the computation of 2-el integrals
 For citations please refer to: http://libint.valeyev.net

 Your ORCA version has been built with support for libXC version: 5.1.0
 For citations please refer to: https://tddft.org/programs/libxc/

 This ORCA versions uses:
   CBLAS   interface :  Fast vector & matrix operations
   LAPACKE interface :  Fast linear algebra routines
   SCALAPACK package :  Parallel linear algebra routines
   Shared memory     :  Shared parallel matrices
   BLAS/LAPACK       :  OpenBLAS 0.3.15  USE64BITINT DYNAMIC_ARCH NO_AFFINITY SkylakeX SINGLE_THREADED
        Core in use  :  SkylakeX
   Copyright (c) 2011-2014, The OpenBLAS Project


Your calculation utilizes the atom-pairwise dispersion correction
based on tight binding partial charges (D4)
Cite in your paper:
E.Caldeweyher, C.Bannwarth, S.Grimme, J.Chem.Phys., (2017), 147, 034112.
E.Caldeweyher, S.Ehlert, A.Hansen, H.Neugebauer, S.Grimme, J.Chem.Phys., (2018), in progress.
   

XCFun DFT library Copyright 2009-2010 Ulf Ekstrom and contributors.
See http://admol.org/xcfun for more information.
This is free software; see the source code for copying conditions.
There is ABSOLUTELY NO WARRANTY; not even for MERCHANTABILITY or FITNESS FOR A PARTICULAR PURPOSE.
For details see the documentation.
Scientific users of this library should cite U. Ekstrom, L. Visscher, R. Bast, A. J. Thorvaldsen and K. Ruud;
J.Chem.Theor.Comp. 2010, DOI: 10.1021/ct100117s
XCFun Version 0.99 

================================================================================

----- Orbital basis set information -----
Your calculation utilizes the basis: def2-SVP
   F. Weigend and R. Ahlrichs, Phys. Chem. Chem. Phys. 7, 3297 (2005).

----- AuxJ basis set information -----
Your calculation utilizes the auxiliary basis: def2/J
   F. Weigend, Phys. Chem. Chem. Phys. 8, 1057 (2006).

================================================================================
                                        WARNINGS
                       Please study these warnings very carefully!
================================================================================


WARNING: Geometry Optimization
  ===> : Switching off AutoStart
         For restart on a previous wavefunction, please use MOREAD

INFO   : the flag for use of the SHARK integral package has been found!

================================================================================
                                       INPUT FILE
================================================================================
NAME = Min_22.inp
|  1> ! Opt FREQ wB97X D4 Def2-SVP SlowConv TightSCF DEFGRID2 Def2/J RIJCOSX
|  2> %MAXCORE 4000
|  3> %scf MaxIter 20000 end
|  4> %geom
|  5> MaxIter 500
|  6> end
|  7> %PAL NPROCS 8 END
|  8> 
|  9> * xyz 0 1
| 10> C 0.03919 0.71782 -0.62864
| 11> C -0.01074 -0.67254 -0.57889
| 12> N 0.0477 1.07761 0.70077
| 13> N 0.08148 -1.08239 0.74453
| 14> C -0.05871 0.01757 1.54618
| 15> C -0.02711 2.44672 1.12733
| 16> C 0.02008 -2.50234 1.13973
| 17> H -0.91776 2.95299 0.78072
| 18> H -0.98956 -2.87691 0.95298
| 19> H 0.74184 -3.15512 0.62765
| 20> H 0.8555 2.97587 0.74053
| 21> H 0.00915 2.43819 2.22222
| 22> H 0.20264 -2.52979 2.20843
| 23> C -0.06395 1.66028 -1.78721
| 24> C -0.02524 -1.64765 -1.72383
| 25> H 0.90134 2.17426 -1.81298
| 26> H 0.83527 -2.32926 -1.70948
| 27> H -0.92449 -2.26771 -1.71753
| 28> H -0.81779 2.44004 -1.64244
| 29> H -0.16773 1.16085 -2.75122
| 30> H -0.01938 -1.15334 -2.6966
| 31> **                         ****END OF INPUT****
================================================================================

                       *****************************
                       * Geometry Optimization Run *
                       *****************************

Geometry optimization settings:
Update method            Update   .... BFGS
Choice of coordinates    CoordSys .... Z-matrix Internals
Initial Hessian          InHess   .... Almoef's Model

Convergence Tolerances:
Energy Change            TolE     ....  5.0000e-06 Eh
Max. Gradient            TolMAXG  ....  3.0000e-04 Eh/bohr
RMS Gradient             TolRMSG  ....  1.0000e-04 Eh/bohr
Max. Displacement        TolMAXD  ....  4.0000e-03 bohr
RMS Displacement         TolRMSD  ....  2.0000e-03 bohr
Strict Convergence                ....  False
------------------------------------------------------------------------------
                        ORCA OPTIMIZATION COORDINATE SETUP
------------------------------------------------------------------------------

The optimization will be done in new redundant internal coordinates
Making redundant internal coordinates   ...  (new redundants) done
Evaluating the initial hessian          ...  (Almloef) done
Evaluating the coordinates              ...  done
Calculating the B-matrix                .... done
Calculating the G-matrix                .... done
Diagonalizing the G-matrix              .... done
The first mode is                       ....   41
The number of degrees of freedom        ....   57

    -----------------------------------------------------------------
                    Redundant Internal Coordinates


    -----------------------------------------------------------------
         Definition                    Initial Value    Approx d2E/dq
    -----------------------------------------------------------------
      1. B(C   1,C   0)                  1.3921         0.619891   
      2. B(N   2,C   0)                  1.3773         0.586404   
      3. B(N   3,C   1)                  1.3885         0.562697   
      4. B(C   4,N   3)                  1.3683         0.606063   
      5. B(C   4,N   2)                  1.3600         0.624690   
      6. B(C   5,N   2)                  1.4360         0.472642   
      7. B(C   6,N   3)                  1.4752         0.409210   
      8. B(H   7,C   5)                  1.0815         0.371482   
      9. B(H   8,C   6)                  1.0930         0.356212   
     10. B(H   9,C   6)                  1.0997         0.347526   
     11. B(H  10,C   5)                  1.0994         0.347916   
     12. B(H  11,C   5)                  1.0955         0.352867   
     13. B(H  12,C   6)                  1.0845         0.367412   
     14. B(C  13,C   0)                  1.4970         0.421648   
     15. B(C  14,C   1)                  1.5040         0.411056   
     16. B(H  15,C  13)                  1.0939         0.354973   
     17. B(H  16,C  14)                  1.0979         0.349863   
     18. B(H  17,C  14)                  1.0923         0.357043   
     19. B(H  18,C  13)                  1.0942         0.354595   
     20. B(H  19,C  13)                  1.0906         0.359242   
     21. B(H  20,C  14)                  1.0912         0.358552   
     22. A(C   1,C   0,N   2)          103.0986         0.426925   
     23. A(C   1,C   0,C  13)          130.8381         0.405218   
     24. A(N   2,C   0,C  13)          125.6604         0.398699   
     25. A(N   3,C   1,C  14)          122.3343         0.394058   
     26. A(C   0,C   1,N   3)          109.0550         0.423783   
     27. A(C   0,C   1,C  14)          128.3647         0.403402   
     28. A(C   4,N   2,C   5)          123.6693         0.408735   
     29. A(C   0,N   2,C   4)          113.3229         0.424730   
     30. A(C   0,N   2,C   5)          122.3766         0.404191   
     31. A(C   1,N   3,C   4)          108.3200         0.419338   
     32. A(C   1,N   3,C   6)          122.4590         0.391239   
     33. A(C   4,N   3,C   6)          127.7755         0.396361   
     34. A(N   2,C   4,N   3)          104.7361         0.427245   
     35. A(N   2,C   5,H  10)          108.2142         0.333234   
     36. A(N   2,C   5,H   7)          113.2044         0.336884   
     37. A(H  10,C   5,H  11)          109.1965         0.288355   
     38. A(H   7,C   5,H  11)          110.5606         0.291335   
     39. A(N   2,C   5,H  11)          106.7223         0.334016   
     40. A(H   7,C   5,H  10)          108.8489         0.290689   
     41. A(H   8,C   6,H   9)          108.8627         0.288731   
     42. A(N   3,C   6,H   9)          114.7912         0.325336   
     43. A(N   3,C   6,H   8)          108.8173         0.326661   
     44. A(H   9,C   6,H  12)          109.4729         0.290135   
     45. A(H   8,C   6,H  12)          108.3728         0.291262   
     46. A(N   3,C   6,H  12)          106.3404         0.328332   
     47. A(H  15,C  13,H  18)          106.0350         0.289485   
     48. A(C   0,C  13,H  18)          113.1854         0.330014   
     49. A(C   0,C  13,H  15)          104.6689         0.330072   
     50. A(H  18,C  13,H  19)          112.1924         0.290028   
     51. A(H  15,C  13,H  19)          106.1589         0.290077   
     52. A(C   0,C  13,H  19)          113.7231         0.330725   
     53. A(H  16,C  14,H  17)          107.0235         0.289140   
     54. A(C   1,C  14,H  17)          111.8136         0.329003   
     55. A(C   1,C  14,H  16)          112.6456         0.327902   
     56. A(H  17,C  14,H  20)          105.4689         0.290254   
     57. A(H  16,C  14,H  20)          106.7800         0.289331   
     58. A(C   1,C  14,H  20)          112.6381         0.329232   
     59. D(N   3,C   1,C   0,N   2)     -4.8590         0.026589   
     60. D(C  14,C   1,C   0,N   2)   -179.1920         0.026589   
     61. D(C  14,C   1,C   0,C  13)      7.9386         0.026589   
     62. D(N   3,C   1,C   0,C  13)   -177.7285         0.026589   
     63. D(C   5,N   2,C   0,C   1)   -174.2105         0.027620   
     64. D(C   4,N   2,C   0,C  13)    170.3496         0.027620   
     65. D(C   5,N   2,C   0,C  13)     -0.8479         0.027620   
     66. D(C   4,N   2,C   0,C   1)     -3.0130         0.027620   
     67. D(C   6,N   3,C   1,C  14)     -7.0251         0.025301   
     68. D(C   4,N   3,C   1,C  14)   -174.2778         0.025301   
     69. D(C   6,N   3,C   1,C   0)    178.2326         0.025301   
     70. D(C   4,N   3,C   1,C   0)     10.9798         0.025301   
     71. D(N   2,C   4,N   3,C   1)    -12.2189         0.026863   
     72. D(N   3,C   4,N   2,C   5)   -179.3166         0.028662   
     73. D(N   3,C   4,N   2,C   0)      9.6170         0.028662   
     74. D(N   2,C   4,N   3,C   6)   -178.5951         0.026863   
     75. D(H  11,C   5,N   2,C   4)     10.2875         0.019092   
     76. D(H  11,C   5,N   2,C   0)   -179.4335         0.019092   
     77. D(H  10,C   5,N   2,C   4)    127.6940         0.019092   
     78. D(H  10,C   5,N   2,C   0)    -62.0270         0.019092   
     79. D(H   7,C   5,N   2,C   4)   -111.5679         0.019092   
     80. D(H   7,C   5,N   2,C   0)     58.7111         0.019092   
     81. D(H  12,C   6,N   3,C   4)    -20.1476         0.014286   
     82. D(H  12,C   6,N   3,C   1)    175.2199         0.014286   
     83. D(H   9,C   6,N   3,C   4)   -141.3508         0.014286   
     84. D(H   9,C   6,N   3,C   1)     54.0167         0.014286   
     85. D(H   8,C   6,N   3,C   4)     96.3987         0.014286   
     86. D(H   8,C   6,N   3,C   1)    -68.2338         0.014286   
     87. D(H  18,C  13,C   0,C   1)    127.6518         0.013143   
     88. D(H  15,C  13,C   0,N   2)     71.2166         0.013143   
     89. D(H  15,C  13,C   0,C   1)   -117.3410         0.013143   
     90. D(H  19,C  13,C   0,N   2)   -173.3626         0.013143   
     91. D(H  19,C  13,C   0,C   1)     -1.9201         0.013143   
     92. D(H  18,C  13,C   0,N   2)    -43.7906         0.013143   
     93. D(H  20,C  14,C   1,N   3)   -175.2783         0.012512   
     94. D(H  20,C  14,C   1,C   0)     -1.6204         0.012512   
     95. D(H  17,C  14,C   1,N   3)     66.1548         0.012512   
     96. D(H  17,C  14,C   1,C   0)   -120.1873         0.012512   
     97. D(H  16,C  14,C   1,N   3)    -54.4202         0.012512   
     98. D(H  16,C  14,C   1,C   0)    119.2376         0.012512   
    -----------------------------------------------------------------

Number of atoms                         .... 21
Number of degrees of freedom            .... 98

         *************************************************************
         *                GEOMETRY OPTIMIZATION CYCLE   1            *
         *************************************************************
---------------------------------
CARTESIAN COORDINATES (ANGSTROEM)
---------------------------------
  C      0.039190    0.717820   -0.628640
  C     -0.010740   -0.672540   -0.578890
  N      0.047700    1.077610    0.700770
  N      0.081480   -1.082390    0.744530
  C     -0.058710    0.017570    1.546180
  C     -0.027110    2.446720    1.127330
  C      0.020080   -2.502340    1.139730
  H     -0.917760    2.952990    0.780720
  H     -0.989560   -2.876910    0.952980
  H      0.741840   -3.155120    0.627650
  H      0.855500    2.975870    0.740530
  H      0.009150    2.438190    2.222220
  H      0.202640   -2.529790    2.208430
  C     -0.063950    1.660280   -1.787210
  C     -0.025240   -1.647650   -1.723830
  H      0.901340    2.174260   -1.812980
  H      0.835270   -2.329260   -1.709480
  H     -0.924490   -2.267710   -1.717530
  H     -0.817790    2.440040   -1.642440
  H     -0.167730    1.160850   -2.751220
  H     -0.019380   -1.153340   -2.696600

----------------------------
CARTESIAN COORDINATES (A.U.)
----------------------------
  NO LB      ZA    FRAG     MASS         X           Y           Z
   0 C     6.0000    0    12.011    0.074058    1.356483   -1.187957
   1 C     6.0000    0    12.011   -0.020296   -1.270916   -1.093944
   2 N     7.0000    0    14.007    0.090140    2.036388    1.324263
   3 N     7.0000    0    14.007    0.153975   -2.045421    1.406958
   4 C     6.0000    0    12.011   -0.110946    0.033202    2.921857
   5 C     6.0000    0    12.011   -0.051230    4.623631    2.130345
   6 C     6.0000    0    12.011    0.037946   -4.728737    2.153778
   7 H     1.0000    0     1.008   -1.734315    5.580342    1.475347
   8 H     1.0000    0     1.008   -1.869997   -5.436572    1.800871
   9 H     1.0000    0     1.008    1.401874   -5.962313    1.186087
  10 H     1.0000    0     1.008    1.616661    5.623579    1.399399
  11 H     1.0000    0     1.008    0.017291    4.607511    4.199387
  12 H     1.0000    0     1.008    0.382934   -4.780610    4.173328
  13 C     6.0000    0    12.011   -0.120848    3.137475   -3.377337
  14 C     6.0000    0    12.011   -0.047697   -3.113607   -3.257567
  15 H     1.0000    0     1.008    1.703286    4.108756   -3.426036
  16 H     1.0000    0     1.008    1.578432   -4.401663   -3.230449
  17 H     1.0000    0     1.008   -1.747033   -4.285351   -3.245661
  18 H     1.0000    0     1.008   -1.545399    4.611007   -3.103762
  19 H     1.0000    0     1.008   -0.316964    2.193689   -5.199052
  20 H     1.0000    0     1.008   -0.036623   -2.179497   -5.095835

--------------------------------
INTERNAL COORDINATES (ANGSTROEM)
--------------------------------
 C      0   0   0     0.000000000000     0.00000000     0.00000000
 C      1   0   0     1.392145465460     0.00000000     0.00000000
 N      1   2   0     1.377262579285   103.09860492     0.00000000
 N      2   1   3     1.388496325994   109.05502746   355.14098433
 C      3   1   2     1.360046307226   113.32287242   356.98697784
 C      3   1   2     1.435970808129   122.37664270   185.78954630
 C      4   2   1     1.475198631541   122.45904093   178.23257375
 H      6   3   1     1.081529115419   113.20440212    58.71113361
 H      7   4   2     1.092955249313   108.81732805   291.76617288
 H      7   4   2     1.099675021268   114.79118078    54.01668518
 H      6   3   1     1.099369989858   108.21419184   297.97300595
 H      6   3   1     1.095523464194   106.72231874   180.56649201
 H      7   4   2     1.084528167500   106.34035961   175.21987880
 C      1   2   3     1.497048147556   130.83807610   187.13051531
 C      2   1   3     1.503973858051   128.36469777   180.80804431
 H     14   1   2     1.093903248647   104.66894443   242.65899683
 H     15   2   1     1.097850433666   112.64558930   119.23763303
 H     15   2   1     1.092320766121   111.81357975   239.81266171
 H     14   1   2     1.094193198709   113.18542730   127.65181694
 H     14   1   2     1.090649298996   113.72307633   358.07986343
 H     15   2   1     1.091172850010   112.63806393   358.37958503

---------------------------
INTERNAL COORDINATES (A.U.)
---------------------------
 C      0   0   0     0.000000000000     0.00000000     0.00000000
 C      1   0   0     2.630773668299     0.00000000     0.00000000
 N      1   2   0     2.602649089347   103.09860492     0.00000000
 N      2   1   3     2.623877794085   109.05502746   355.14098433
 C      3   1   2     2.570115050109   113.32287242   356.98697784
 C      3   1   2     2.713591563670   122.37664270   185.78954630
 C      4   2   1     2.787721406748   122.45904093   178.23257375
 H      6   3   1     2.043793834005   113.20440212    58.71113361
 H      7   4   2     2.065386097832   108.81732805   291.76617288
 H      7   4   2     2.078084626510   114.79118078    54.01668518
 H      6   3   1     2.077508200683   108.21419184   297.97300595
 H      6   3   1     2.070239320612   106.72231874   180.56649201
 H      7   4   2     2.049461221098   106.34035961   175.21987880
 C      1   2   3     2.829011008174   130.83807610   187.13051531
 C      2   1   3     2.842098704293   128.36469777   180.80804431
 H     14   1   2     2.067177556949   104.66894443   242.65899683
 H     15   2   1     2.074636655635   112.64558930   119.23763303
 H     15   2   1     2.064187098364   111.81357975   239.81266171
 H     14   1   2     2.067725483158   113.18542730   127.65181694
 H     14   1   2     2.061028483255   113.72307633   358.07986343
 H     15   2   1     2.062017851290   112.63806393   358.37958503

---------------------
BASIS SET INFORMATION
---------------------
There are 3 groups of distinct atoms

 Group   1 Type C   : 7s4p1d contracted to 3s2p1d pattern {511/31/1}
 Group   2 Type N   : 7s4p1d contracted to 3s2p1d pattern {511/31/1}
 Group   3 Type H   : 4s1p contracted to 2s1p pattern {31/1}

Atom   0C    basis set group =>   1
Atom   1C    basis set group =>   1
Atom   2N    basis set group =>   2
Atom   3N    basis set group =>   2
Atom   4C    basis set group =>   1
Atom   5C    basis set group =>   1
Atom   6C    basis set group =>   1
Atom   7H    basis set group =>   3
Atom   8H    basis set group =>   3
Atom   9H    basis set group =>   3
Atom  10H    basis set group =>   3
Atom  11H    basis set group =>   3
Atom  12H    basis set group =>   3
Atom  13C    basis set group =>   1
Atom  14C    basis set group =>   1
Atom  15H    basis set group =>   3
Atom  16H    basis set group =>   3
Atom  17H    basis set group =>   3
Atom  18H    basis set group =>   3
Atom  19H    basis set group =>   3
Atom  20H    basis set group =>   3
---------------------------------
AUXILIARY/J BASIS SET INFORMATION
---------------------------------
There are 3 groups of distinct atoms

 Group   1 Type C   : 12s5p4d2f1g contracted to 6s4p3d1f1g pattern {711111/2111/211/2/1}
 Group   2 Type N   : 12s5p4d2f1g contracted to 6s4p3d1f1g pattern {711111/2111/211/2/1}
 Group   3 Type H   : 5s2p1d contracted to 3s1p1d pattern {311/2/1}

Atom   0C    basis set group =>   1
Atom   1C    basis set group =>   1
Atom   2N    basis set group =>   2
Atom   3N    basis set group =>   2
Atom   4C    basis set group =>   1
Atom   5C    basis set group =>   1
Atom   6C    basis set group =>   1
Atom   7H    basis set group =>   3
Atom   8H    basis set group =>   3
Atom   9H    basis set group =>   3
Atom  10H    basis set group =>   3
Atom  11H    basis set group =>   3
Atom  12H    basis set group =>   3
Atom  13C    basis set group =>   1
Atom  14C    basis set group =>   1
Atom  15H    basis set group =>   3
Atom  16H    basis set group =>   3
Atom  17H    basis set group =>   3
Atom  18H    basis set group =>   3
Atom  19H    basis set group =>   3
Atom  20H    basis set group =>   3


           ************************************************************
           *        Program running with 8 parallel MPI-processes     *
           *              working on a common directory               *
           ************************************************************
------------------------------------------------------------------------------
                           ORCA GTO INTEGRAL CALCULATION
                           -- RI-GTO INTEGRALS CHOSEN --
------------------------------------------------------------------------------
------------------------------------------------------------------------------
                   ___                                                        
                  /   \      - P O W E R E D   B Y -                         
                 /     \                                                     
                 |  |  |   _    _      __       _____    __    __             
                 |  |  |  | |  | |    /  \     |  _  \  |  |  /  |          
                  \  \/   | |  | |   /    \    | | | |  |  | /  /          
                 / \  \   | |__| |  /  /\  \   | |_| |  |  |/  /          
                |  |  |   |  __  | /  /__\  \  |    /   |      \           
                |  |  |   | |  | | |   __   |  |    \   |  |\   \          
                \     /   | |  | | |  |  |  |  | |\  \  |  | \   \       
                 \___/    |_|  |_| |__|  |__|  |_| \__\ |__|  \__/        
                                                                              
                      - O R C A' S   B I G   F R I E N D -                    
                                      &                                       
                       - I N T E G R A L  F E E D E R -                       
                                                                              
 v1 FN, 2020, v2 2021                                                         
------------------------------------------------------------------------------


Reading SHARK input file Min_22.SHARKINP.tmp ... ok
----------------------
SHARK INTEGRAL PACKAGE
----------------------

Number of atoms                             ...     21
Number of basis functions                   ...    186
Number of shells                            ...     90
Maximum angular momentum                    ...      2
Integral batch strategy                     ... SHARK/LIBINT Hybrid
RI-J (if used) integral strategy            ... SPLIT-RIJ (Revised 2003 algorithm where possible)
Printlevel                                  ...      1
Contraction scheme used                     ... SEGMENTED contraction
Coulomb Range Separation                    ... NOT USED
Exchange Range Separation                   ... Long Range
   Mu parameter                             ...  0.300000
   Scaling (regular/separated)              ...  0.157706  0.842294
Finite Nucleus Model                        ... NOT USED
Auxiliary Coulomb fitting basis             ... AVAILABLE
   # of basis functions in Aux-J            ...    573
   # of shells in Aux-J                     ...    195
   Maximum angular momentum in Aux-J        ...      4
Auxiliary J/K fitting basis                 ... NOT available
Auxiliary Correlation fitting basis         ... NOT available
Auxiliary 'external' fitting basis          ... NOT available
Integral threshold                          ...     2.500000e-11
Primitive cut-off                           ...     2.500000e-12
Primitive pair pre-selection threshold      ...     2.500000e-12

Calculating pre-screening integrals         ... done (  0.0 sec) Dimension = 90
Organizing shell pair data                  ... done (  0.0 sec)
Shell pair information
Total number of shell pairs                 ...      4095
Shell pairs after pre-screening             ...      3784
Total number of primitive shell pairs       ...     14349
Primitive shell pairs kept                  ...      9701
          la=0 lb=0:   1246 shell pairs
          la=1 lb=0:   1402 shell pairs
          la=1 lb=1:    417 shell pairs
          la=2 lb=0:    425 shell pairs
          la=2 lb=1:    252 shell pairs
          la=2 lb=2:     42 shell pairs

Calculating one electron integrals          ... done (  0.0 sec)
Calculating RI/J V-Matrix + Cholesky decomp.... done (  0.1 sec)
Calculating Nuclear repulsion               ... done (  0.0 sec) ENN=    458.789028235542 Eh

SHARK setup successfully completed in   0.3 seconds

Maximum memory used throughout the entire GTOINT-calculation: 12.4 MB


           ************************************************************
           *        Program running with 8 parallel MPI-processes     *
           *              working on a common directory               *
           ************************************************************
-------------------------------------------------------------------------------
                                 ORCA SCF
-------------------------------------------------------------------------------

------------
SCF SETTINGS
------------
Hamiltonian:
 Density Functional     Method          .... DFT(GTOs)
 Exchange Functional    Exchange        .... WB97X
 Correlation Functional Correlation     .... WB97X
 Gradients option       PostSCFGGA      .... off
 Hybrid DFT is turned on
   Fraction HF Exchange ScalHFX         ....  0.157706
   Scaling of DF-GGA-X  ScalDFX         ....  0.000000
   Scaling of DF-GGA-C  ScalDFC         ....  1.000000
   Scaling of DF-LDA-C  ScalLDAC        ....  1.000000
   Perturbative correction              ....  0.000000
   Density functional embedding theory  .... OFF
 Long-range corrected/Screened/Range-Separated Hybrid DFT is turned on
   Amount of maximum screened exact exchange              ....  0.842294
   Range separation parameter mu (erf(mu*r12)/r12)        ....  0.300000
 RI-approximation to the Coulomb term is turned on
   Number of AuxJ basis functions       .... 573
   RIJ-COSX (HFX calculated with COS-X)).... on


General Settings:
 Integral files         IntName         .... Min_22
 Hartree-Fock type      HFTyp           .... RHF
 Total Charge           Charge          ....    0
 Multiplicity           Mult            ....    1
 Number of Electrons    NEL             ....   68
 Basis Dimension        Dim             ....  186
 Nuclear Repulsion      ENuc            ....    458.7890282355 Eh

Convergence Acceleration:
 DIIS                   CNVDIIS         .... on
   Start iteration      DIISMaxIt       ....     0
   Startup error        DIISStart       ....  0.200000
   # of expansion vecs  DIISMaxEq       ....     5
   Bias factor          DIISBfac        ....   1.050
   Max. coefficient     DIISMaxC        ....  10.000
 Trust-Rad. Augm. Hess. CNVTRAH         .... auto
   Auto Start mean grad. ratio tolernc. ....  1.125000
   Auto Start start iteration           ....    20
   Auto Start num. interpolation iter.  ....    10
   Max. Number of Micro iterations      ....    16
   Max. Number of Macro iterations      .... Maxiter - #DIIS iter
   Number of Davidson start vectors     ....     2
   Converg. threshold I  (grad. norm)   ....   1.000e-05
   Converg. threshold II (energy diff.) ....   1.000e-08
   Grad. Scal. Fac. for Micro threshold ....   0.100
   Minimum threshold for Micro iter.    ....   0.010
   NR start threshold (gradient norm)   ....   0.001
   Initial trust radius                 ....   0.400
   Minimum AH scaling param. (alpha)    ....   1.000
   Maximum AH scaling param. (alpha)    .... 1000.000
   Orbital update algorithm             .... Taylor
   White noise on init. David. guess    .... on
   Maximum white noise                  ....   0.010
   Quad. conv. algorithm                .... NR
 SOSCF                  CNVSOSCF        .... on
   Start iteration      SOSCFMaxIt      ....   150
   Startup grad/error   SOSCFStart      ....  0.001000
 Level Shifting         CNVShift        .... on
   Level shift para.    LevelShift      ....    0.2500
   Turn off err/grad.   ShiftErr        ....    0.0000
 Zerner damping         CNVZerner       .... off
 Static damping         CNVDamp         .... on
   Fraction old density DampFac         ....    0.8500
   Max. Damping (<1)    DampMax         ....    0.9800
   Min. Damping (>=0)   DampMin         ....    0.0000
   Turn off err/grad.   DampErr         ....    0.0300
 Fernandez-Rico         CNVRico         .... off

SCF Procedure:
 Maximum # iterations   MaxIter         .... 20000
 SCF integral mode      SCFMode         .... Direct
   Integral package                     .... SHARK and LIBINT hybrid scheme
 Reset frequency        DirectResetFreq ....    20
 Integral Threshold     Thresh          ....  2.500e-11 Eh
 Primitive CutOff       TCut            ....  2.500e-12 Eh

Convergence Tolerance:
 Convergence Check Mode ConvCheckMode   .... Total+1el-Energy
 Convergence forced     ConvForced      .... 0
 Energy Change          TolE            ....  1.000e-08 Eh
 1-El. energy change                    ....  1.000e-05 Eh
 Orbital Gradient       TolG            ....  1.000e-05
 Orbital Rotation angle TolX            ....  1.000e-05
 DIIS Error             TolErr          ....  5.000e-07


Diagonalization of the overlap matrix:
Smallest eigenvalue                        ... 1.033e-03
Time for diagonalization                   ...    0.007 sec
Threshold for overlap eigenvalues          ... 1.000e-08
Number of eigenvalues below threshold      ... 0
Time for construction of square roots      ...    0.005 sec
Total time needed                          ...    0.013 sec

Time for model grid setup =    0.093 sec

------------------------------
INITIAL GUESS: MODEL POTENTIAL
------------------------------
Loading Hartree-Fock densities                     ... done
Calculating cut-offs                               ... done
Initializing the effective Hamiltonian             ... done
Setting up the integral package (SHARK)            ... done
Starting the Coulomb interaction                   ... done (   0.1 sec)
Reading the grid                                   ... done
Mapping shells                                     ... done
Starting the XC term evaluation                    ... done (   0.0 sec)
  promolecular density results
     # of electrons  =     67.998471942
     EX              =    -52.437277039
     EC              =     -2.247133080
     EX+EC           =    -54.684410119
Transforming the Hamiltonian                       ... done (   0.0 sec)
Diagonalizing the Hamiltonian                      ... done (   0.0 sec)
Back transforming the eigenvectors                 ... done (   0.0 sec)
Now organizing SCF variables                       ... done
                      ------------------
                      INITIAL GUESS DONE (   0.3 sec)
                      ------------------
-------------------
DFT GRID GENERATION
-------------------

General Integration Accuracy     IntAcc      ... 4.388
Radial Grid Type                 RadialGrid  ... OptM3 with GC (2021)
Angular Grid (max. ang.)         AngularGrid ... 4 (Lebedev-302)
Angular grid pruning method      GridPruning ... 4 (adaptive)
Weight generation scheme         WeightScheme... Becke
Basis function cutoff            BFCut       ... 1.0000e-11
Integration weight cutoff        WCut        ... 1.0000e-14
Angular grids for H and He will be reduced by one unit
Partially contracted basis set               ... off
Rotationally invariant grid construction     ... off

Total number of grid points                  ...    92566
Total number of batches                      ...     1457
Average number of points per batch           ...       63
Average number of grid points per atom       ...     4408
Time for grid setup =    0.517 sec

--------------------
COSX GRID GENERATION
--------------------

GRIDX 1
-------
General Integration Accuracy     IntAcc      ... 3.816
Radial Grid Type                 RadialGrid  ... OptM3 with GC (2021)
Angular Grid (max. ang.)         AngularGrid ... 1 (Lebedev-50)
Angular grid pruning method      GridPruning ... 4 (adaptive)
Weight generation scheme         WeightScheme... Becke
Basis function cutoff            BFCut       ... 1.0000e-11
Integration weight cutoff        WCut        ... 1.0000e-14
Angular grids for H and He will be reduced by one unit
Partially contracted basis set               ... on
Rotationally invariant grid construction     ... off

Total number of grid points                  ...    11863
Total number of batches                      ...      198
Average number of points per batch           ...       59
Average number of grid points per atom       ...      565
UseSFitting                                  ... on

GRIDX 2
-------
General Integration Accuracy     IntAcc      ... 4.020
Radial Grid Type                 RadialGrid  ... OptM3 with GC (2021)
Angular Grid (max. ang.)         AngularGrid ... 2 (Lebedev-110)
Angular grid pruning method      GridPruning ... 4 (adaptive)
Weight generation scheme         WeightScheme... Becke
Basis function cutoff            BFCut       ... 1.0000e-11
Integration weight cutoff        WCut        ... 1.0000e-14
Angular grids for H and He will be reduced by one unit
Partially contracted basis set               ... on
Rotationally invariant grid construction     ... off

Total number of grid points                  ...    25081
Total number of batches                      ...      402
Average number of points per batch           ...       62
Average number of grid points per atom       ...     1194
UseSFitting                                  ... on

GRIDX 3
-------
General Integration Accuracy     IntAcc      ... 4.338
Radial Grid Type                 RadialGrid  ... OptM3 with GC (2021)
Angular Grid (max. ang.)         AngularGrid ... 3 (Lebedev-194)
Angular grid pruning method      GridPruning ... 4 (adaptive)
Weight generation scheme         WeightScheme... Becke
Basis function cutoff            BFCut       ... 1.0000e-11
Integration weight cutoff        WCut        ... 1.0000e-14
Angular grids for H and He will be reduced by one unit
Partially contracted basis set               ... on
Rotationally invariant grid construction     ... off

Total number of grid points                  ...    54870
Total number of batches                      ...      869
Average number of points per batch           ...       63
Average number of grid points per atom       ...     2613
UseSFitting                                  ... on

Time for X-Grid setup             =    0.607 sec

--------------
SCF ITERATIONS
--------------
ITER       Energy         Delta-E        Max-DP      RMS-DP      [F,P]     Damp
               ***  Starting incremental Fock matrix formation  ***
  0   -382.8648620568   0.000000000000 0.03954609  0.00080438  0.1537076 0.8500
  1   -382.9015647268  -0.036702669965 0.04285144  0.00077626  0.1246951 0.8500
                               ***Turning on DIIS***
  2   -382.9300143900  -0.028449663232 0.03781770  0.00064514  0.0966211 0.8500
  3   -382.9514657535  -0.021451363504 0.03049493  0.00046994  0.0740073 0.8500
  4   -382.9681497072  -0.016683953674 0.02501383  0.00036286  0.0592611 0.8500
  5   -382.9813572440  -0.013207536805 0.02106714  0.00029861  0.0491671 0.8500
  6   -382.9921083385  -0.010751094492 0.01797594  0.00025246  0.0414420 0.8500
  7   -383.0010070800  -0.008898741510 0.01552855  0.00021770  0.0351458 0.8500
  8   -383.0084475854  -0.007440505360 0.08954866  0.00125119  0.0297508 0.0000
  9   -383.0485546069  -0.040107021558 0.00141002  0.00004762  0.0011475 0.0000
                      *** Initiating the SOSCF procedure ***
                           *** Shutting down DIIS ***
                      *** Re-Reading the Fockian *** 
                      *** Removing any level shift *** 
ITER      Energy       Delta-E        Grad      Rot      Max-DP    RMS-DP
 10   -383.04857631  -0.0000217019  0.000619  0.000619  0.000795  0.000027
               *** Restarting incremental Fock matrix formation ***
 11   -383.04864097  -0.0000646572  0.000426  0.000999  0.000678  0.000021
 12   -383.04864322  -0.0000022558  0.000142  0.000892  0.000489  0.000021
 13   -383.04864390  -0.0000006810  0.000055  0.000118  0.000158  0.000006
 14   -383.04864401  -0.0000001025  0.000011  0.000019  0.000053  0.000002
 15   -383.04864401  -0.0000000073  0.000009  0.000018  0.000023  0.000001
                  ***Gradient check signals convergence***
              ***Rediagonalizing the Fockian in SOSCF/NRSCF***

               *****************************************************
               *                     SUCCESS                       *
               *           SCF CONVERGED AFTER  16 CYCLES          *
               *****************************************************

Old exchange energy                            =    -17.408836959 Eh
New exchange energy                            =    -17.408833397 Eh
Exchange energy change after final integration =      0.000003562 Eh
Total energy after final integration           =   -383.048640455 Eh
Final COS-X integration done in                =     4.263 sec

----------------
TOTAL SCF ENERGY
----------------

Total Energy       :         -383.04864046 Eh          -10423.28342 eV

Components:
Nuclear Repulsion  :          458.78902824 Eh           12484.28415 eV
Electronic Energy  :         -841.83766869 Eh          -22907.56756 eV
One Electron Energy:        -1425.33972306 Eh          -38785.46568 eV
Two Electron Energy:          583.50205437 Eh           15877.89812 eV
Max COSX asymmetry :            0.00000232 Eh               0.00006 eV

Virial components:
Potential Energy   :         -761.58965518 Eh          -20723.90810 eV
Kinetic Energy     :          378.54101472 Eh           10300.62468 eV
Virial Ratio       :            2.01190789


DFT components:
N(Alpha)           :       34.000077839399 electrons
N(Beta)            :       34.000077839399 electrons
N(Total)           :       68.000155678799 electrons
E(XC)              :      -38.717085808471 Eh       
DFET-embed. en.    :        0.000000000000 Eh       

---------------
SCF CONVERGENCE
---------------

  Last Energy change         ...   -4.2787e-09  Tolerance :   1.0000e-08
  Last MAX-Density change    ...    2.6645e-15  Tolerance :   1.0000e-07
  Last RMS-Density change    ...    4.3975e-17  Tolerance :   5.0000e-09
  Last Orbital Gradient      ...    1.2310e-06  Tolerance :   1.0000e-05
  Last Orbital Rotation      ...    4.7898e-06  Tolerance :   1.0000e-05

             **** THE GBW FILE WAS UPDATED (Min_22.gbw) ****
             **** DENSITY Min_22.scfp WAS UPDATED ****
             **** ENERGY FILE WAS UPDATED (Min_22.en.tmp) ****
             **** THE GBW FILE WAS UPDATED (Min_22.gbw) ****
             **** DENSITY Min_22.scfp WAS UPDATED ****
----------------
ORBITAL ENERGIES
----------------

  NO   OCC          E(Eh)            E(eV) 
   0   2.0000     -14.439030      -392.9060 
   1   2.0000     -14.436127      -392.8270 
   2   2.0000     -10.305753      -280.4338 
   3   2.0000     -10.296785      -280.1898 
   4   2.0000     -10.289421      -279.9894 
   5   2.0000     -10.288242      -279.9573 
   6   2.0000     -10.282834      -279.8101 
   7   2.0000     -10.276902      -279.6487 
   8   2.0000     -10.258380      -279.1447 
   9   2.0000      -1.133748       -30.8509 
  10   2.0000      -1.030240       -28.0342 
  11   2.0000      -0.907620       -24.6976 
  12   2.0000      -0.870850       -23.6970 
  13   2.0000      -0.855130       -23.2693 
  14   2.0000      -0.792032       -21.5523 
  15   2.0000      -0.771839       -21.0028 
  16   2.0000      -0.678938       -18.4748 
  17   2.0000      -0.672033       -18.2870 
  18   2.0000      -0.610674       -16.6173 
  19   2.0000      -0.591872       -16.1057 
  20   2.0000      -0.557356       -15.1664 
  21   2.0000      -0.544626       -14.8200 
  22   2.0000      -0.541362       -14.7312 
  23   2.0000      -0.530586       -14.4380 
  24   2.0000      -0.524218       -14.2647 
  25   2.0000      -0.514559       -14.0019 
  26   2.0000      -0.509309       -13.8590 
  27   2.0000      -0.499465       -13.5911 
  28   2.0000      -0.478211       -13.0128 
  29   2.0000      -0.469076       -12.7642 
  30   2.0000      -0.466752       -12.7010 
  31   2.0000      -0.363308        -9.8861 
  32   2.0000      -0.298134        -8.1126 
  33   2.0000      -0.281854        -7.6696 
  34   0.0000       0.128933         3.5084 
  35   0.0000       0.139854         3.8056 
  36   0.0000       0.145024         3.9463 
  37   0.0000       0.152169         4.1407 
  38   0.0000       0.180270         4.9054 
  39   0.0000       0.191375         5.2076 
  40   0.0000       0.197783         5.3819 
  41   0.0000       0.207420         5.6442 
  42   0.0000       0.219780         5.9805 
  43   0.0000       0.231281         6.2935 
  44   0.0000       0.233498         6.3538 
  45   0.0000       0.244829         6.6621 
  46   0.0000       0.263785         7.1780 
  47   0.0000       0.281734         7.6664 
  48   0.0000       0.289049         7.8654 
  49   0.0000       0.299090         8.1387 
  50   0.0000       0.310836         8.4583 
  51   0.0000       0.341639         9.2965 
  52   0.0000       0.365641         9.9496 
  53   0.0000       0.389545        10.6001 
  54   0.0000       0.396889        10.7999 
  55   0.0000       0.466368        12.6905 
  56   0.0000       0.474169        12.9028 
  57   0.0000       0.487206        13.2575 
  58   0.0000       0.499880        13.6024 
  59   0.0000       0.511837        13.9278 
  60   0.0000       0.527089        14.3428 
  61   0.0000       0.540016        14.6946 
  62   0.0000       0.552687        15.0394 
  63   0.0000       0.581065        15.8116 
  64   0.0000       0.595163        16.1952 
  65   0.0000       0.610678        16.6174 
  66   0.0000       0.636629        17.3236 
  67   0.0000       0.656381        17.8610 
  68   0.0000       0.663738        18.0612 
  69   0.0000       0.683642        18.6028 
  70   0.0000       0.698484        19.0067 
  71   0.0000       0.729549        19.8521 
  72   0.0000       0.734414        19.9844 
  73   0.0000       0.742542        20.2056 
  74   0.0000       0.747846        20.3499 
  75   0.0000       0.749116        20.3845 
  76   0.0000       0.758481        20.6393 
  77   0.0000       0.766529        20.8583 
  78   0.0000       0.768214        20.9042 
  79   0.0000       0.774321        21.0703 
  80   0.0000       0.785070        21.3628 
  81   0.0000       0.787916        21.4403 
  82   0.0000       0.790679        21.5155 
  83   0.0000       0.805743        21.9254 
  84   0.0000       0.808316        21.9954 
  85   0.0000       0.812483        22.1088 
  86   0.0000       0.822506        22.3815 
  87   0.0000       0.828382        22.5414 
  88   0.0000       0.843433        22.9510 
  89   0.0000       0.850370        23.1398 
  90   0.0000       0.866552        23.5801 
  91   0.0000       0.952500        25.9188 
  92   0.0000       0.994722        27.0677 
  93   0.0000       1.010041        27.4846 
  94   0.0000       1.029496        28.0140 
  95   0.0000       1.051195        28.6045 
  96   0.0000       1.069852        29.1122 
  97   0.0000       1.083393        29.4806 
  98   0.0000       1.172203        31.8973 
  99   0.0000       1.184791        32.2398 
 100   0.0000       1.237671        33.6788 
 101   0.0000       1.272667        34.6310 
 102   0.0000       1.307809        35.5873 
 103   0.0000       1.317742        35.8576 
 104   0.0000       1.331860        36.2418 
 105   0.0000       1.343392        36.5555 
 106   0.0000       1.412004        38.4226 
 107   0.0000       1.424530        38.7634 
 108   0.0000       1.534035        41.7432 
 109   0.0000       1.544121        42.0177 
 110   0.0000       1.578425        42.9511 
 111   0.0000       1.616007        43.9738 
 112   0.0000       1.633542        44.4509 
 113   0.0000       1.637641        44.5625 
 114   0.0000       1.644293        44.7435 
 115   0.0000       1.650590        44.9148 
 116   0.0000       1.656846        45.0851 
 117   0.0000       1.676750        45.6267 
 118   0.0000       1.699584        46.2480 
 119   0.0000       1.719309        46.7848 
 120   0.0000       1.756924        47.8083 
 121   0.0000       1.770850        48.1873 
 122   0.0000       1.818317        49.4789 
 123   0.0000       1.879891        51.1544 
 124   0.0000       1.882087        51.2142 
 125   0.0000       1.885588        51.3094 
 126   0.0000       1.889333        51.4114 
 127   0.0000       1.898531        51.6617 
 128   0.0000       1.908770        51.9403 
 129   0.0000       1.915871        52.1335 
 130   0.0000       1.917553        52.1793 
 131   0.0000       1.935013        52.6544 
 132   0.0000       1.959671        53.3254 
 133   0.0000       1.978025        53.8248 
 134   0.0000       2.004772        54.5526 
 135   0.0000       2.012532        54.7638 
 136   0.0000       2.028659        55.2026 
 137   0.0000       2.040368        55.5212 
 138   0.0000       2.080900        56.6242 
 139   0.0000       2.086961        56.7891 
 140   0.0000       2.122428        57.7542 
 141   0.0000       2.144384        58.3517 
 142   0.0000       2.158274        58.7296 
 143   0.0000       2.202677        59.9379 
 144   0.0000       2.218846        60.3779 
 145   0.0000       2.232572        60.7514 
 146   0.0000       2.263308        61.5877 
 147   0.0000       2.281602        62.0856 
 148   0.0000       2.293907        62.4204 
 149   0.0000       2.326502        63.3073 
 150   0.0000       2.341657        63.7197 
 151   0.0000       2.372058        64.5470 
 152   0.0000       2.384074        64.8739 
 153   0.0000       2.439992        66.3956 
 154   0.0000       2.450679        66.6864 
 155   0.0000       2.516292        68.4718 
 156   0.0000       2.533810        68.9485 
 157   0.0000       2.543638        69.2159 
 158   0.0000       2.582381        70.2701 
 159   0.0000       2.598345        70.7046 
 160   0.0000       2.622720        71.3678 
 161   0.0000       2.640542        71.8528 
 162   0.0000       2.659297        72.3632 
 163   0.0000       2.694743        73.3277 
 164   0.0000       2.772082        75.4322 
 165   0.0000       2.787651        75.8558 
 166   0.0000       2.802414        76.2576 
 167   0.0000       2.842901        77.3593 
 168   0.0000       2.852819        77.6292 
 169   0.0000       2.881012        78.3963 
 170   0.0000       2.882276        78.4307 
 171   0.0000       2.934271        79.8456 
 172   0.0000       2.956980        80.4635 
 173   0.0000       3.000768        81.6550 
 174   0.0000       3.025134        82.3181 
 175   0.0000       3.037957        82.6670 
 176   0.0000       3.060084        83.2691 
 177   0.0000       3.078563        83.7719 
 178   0.0000       3.080260        83.8181 
 179   0.0000       3.106747        84.5389 
 180   0.0000       3.147773        85.6553 
 181   0.0000       3.160497        86.0015 
 182   0.0000       3.306372        89.9709 
 183   0.0000       3.407467        92.7219 
 184   0.0000       3.443691        93.7076 
 185   0.0000       3.511356        95.5488 

                    ********************************
                    * MULLIKEN POPULATION ANALYSIS *
                    ********************************

-----------------------
MULLIKEN ATOMIC CHARGES
-----------------------
   0 C :   -0.114227
   1 C :   -0.110926
   2 N :   -0.239224
   3 N :   -0.250347
   4 C :   -0.134047
   5 C :    0.120345
   6 C :    0.120966
   7 H :    0.031397
   8 H :    0.038650
   9 H :    0.041808
  10 H :    0.027781
  11 H :    0.057834
  12 H :    0.054988
  13 C :    0.103792
  14 C :    0.076240
  15 H :    0.030168
  16 H :    0.035352
  17 H :    0.028936
  18 H :    0.037274
  19 H :    0.028193
  20 H :    0.015047
Sum of atomic charges:    0.0000000

--------------------------------
MULLIKEN REDUCED ORBITAL CHARGES
--------------------------------
  0 C s       :     3.090989  s :     3.090989
      pz      :     0.883274  p :     2.966934
      px      :     1.094225
      py      :     0.989434
      dz2     :     0.017639  d :     0.056304
      dxz     :     0.010169
      dyz     :     0.013486
      dx2y2   :     0.005362
      dxy     :     0.009647
  1 C s       :     3.098713  s :     3.098713
      pz      :     0.877441  p :     2.955794
      px      :     1.089553
      py      :     0.988800
      dz2     :     0.016992  d :     0.056419
      dxz     :     0.009750
      dyz     :     0.014550
      dx2y2   :     0.005479
      dxy     :     0.009648
  2 N s       :     3.394909  s :     3.394909
      pz      :     1.123191  p :     3.810881
      px      :     1.531444
      py      :     1.156246
      dz2     :     0.009308  d :     0.033433
      dxz     :     0.005773
      dyz     :     0.008918
      dx2y2   :     0.005092
      dxy     :     0.004342
  3 N s       :     3.408653  s :     3.408653
      pz      :     1.133247  p :     3.810613
      px      :     1.530862
      py      :     1.146504
      dz2     :     0.008664  d :     0.031081
      dxz     :     0.005213
      dyz     :     0.008157
      dx2y2   :     0.004967
      dxy     :     0.004079
  4 C s       :     3.631897  s :     3.631897
      pz      :     1.131818  p :     2.436843
      px      :     0.665808
      py      :     0.639217
      dz2     :     0.008327  d :     0.065306
      dxz     :     0.009513
      dyz     :     0.027755
      dx2y2   :     0.007567
      dxy     :     0.012144
  5 C s       :     2.968305  s :     2.968305
      pz      :     1.047335  p :     2.871214
      px      :     1.011825
      py      :     0.812054
      dz2     :     0.008308  d :     0.040137
      dxz     :     0.003185
      dyz     :     0.006610
      dx2y2   :     0.009730
      dxy     :     0.012304
  6 C s       :     2.978555  s :     2.978555
      pz      :     1.043713  p :     2.862814
      px      :     1.025177
      py      :     0.793924
      dz2     :     0.008399  d :     0.037665
      dxz     :     0.002744
      dyz     :     0.005880
      dx2y2   :     0.010307
      dxy     :     0.010335
  7 H s       :     0.944890  s :     0.944890
      pz      :     0.005795  p :     0.023713
      px      :     0.012554
      py      :     0.005364
  8 H s       :     0.938031  s :     0.938031
      pz      :     0.005138  p :     0.023318
      px      :     0.014134
      py      :     0.004046
  9 H s       :     0.934963  s :     0.934963
      pz      :     0.006830  p :     0.023230
      px      :     0.009635
      py      :     0.006764
 10 H s       :     0.949287  s :     0.949287
      pz      :     0.005784  p :     0.022932
      px      :     0.011873
      py      :     0.005275
 11 H s       :     0.919005  s :     0.919005
      pz      :     0.015925  p :     0.023161
      px      :     0.004610
      py      :     0.002626
 12 H s       :     0.921508  s :     0.921508
      pz      :     0.015666  p :     0.023504
      px      :     0.005248
      py      :     0.002590
 13 C s       :     2.888052  s :     2.888052
      pz      :     0.968668  p :     2.980379
      px      :     1.022844
      py      :     0.988867
      dz2     :     0.006812  d :     0.027777
      dxz     :     0.002305
      dyz     :     0.007135
      dx2y2   :     0.002696
      dxy     :     0.008828
 14 C s       :     2.896258  s :     2.896258
      pz      :     0.981318  p :     2.999887
      px      :     1.019195
      py      :     0.999374
      dz2     :     0.006994  d :     0.027615
      dxz     :     0.001942
      dyz     :     0.006933
      dx2y2   :     0.002062
      dxy     :     0.009684
 15 H s       :     0.944692  s :     0.944692
      pz      :     0.004910  p :     0.025140
      px      :     0.013070
      py      :     0.007161
 16 H s       :     0.940536  s :     0.940536
      pz      :     0.004307  p :     0.024112
      px      :     0.011385
      py      :     0.008420
 17 H s       :     0.946680  s :     0.946680
      pz      :     0.004469  p :     0.024383
      px      :     0.012027
      py      :     0.007888
 18 H s       :     0.938545  s :     0.938545
      pz      :     0.004085  p :     0.024181
      px      :     0.010321
      py      :     0.009774
 19 H s       :     0.947408  s :     0.947408
      pz      :     0.012635  p :     0.024399
      px      :     0.005219
      py      :     0.006545
 20 H s       :     0.960459  s :     0.960459
      pz      :     0.012607  p :     0.024494
      px      :     0.005257
      py      :     0.006631


                     *******************************
                     * LOEWDIN POPULATION ANALYSIS *
                     *******************************

----------------------
LOEWDIN ATOMIC CHARGES
----------------------
   0 C :   -0.055745
   1 C :   -0.049953
   2 N :    0.020374
   3 N :    0.008180
   4 C :   -0.256971
   5 C :    0.030872
   6 C :    0.041467
   7 H :    0.018406
   8 H :    0.026086
   9 H :    0.027471
  10 H :    0.023310
  11 H :    0.039726
  12 H :    0.037509
  13 C :   -0.054290
  14 C :   -0.061602
  15 H :    0.037103
  16 H :    0.032408
  17 H :    0.030954
  18 H :    0.033864
  19 H :    0.037649
  20 H :    0.033182

-------------------------------
LOEWDIN REDUCED ORBITAL CHARGES
-------------------------------
  0 C s       :     2.845285  s :     2.845285
      pz      :     0.951829  p :     3.075155
      px      :     1.075525
      py      :     1.047802
      dz2     :     0.046480  d :     0.135305
      dxz     :     0.020037
      dyz     :     0.035185
      dx2y2   :     0.014883
      dxy     :     0.018720
  1 C s       :     2.850587  s :     2.850587
      pz      :     0.945587  p :     3.064359
      px      :     1.073046
      py      :     1.045726
      dz2     :     0.043840  d :     0.135007
      dxz     :     0.019282
      dyz     :     0.038356
      dx2y2   :     0.014736
      dxy     :     0.018793
  2 N s       :     3.056054  s :     3.056054
      pz      :     1.197161  p :     3.845394
      px      :     1.460010
      py      :     1.188223
      dz2     :     0.023860  d :     0.078178
      dxz     :     0.011394
      dyz     :     0.024991
      dx2y2   :     0.010750
      dxy     :     0.007184
  3 N s       :     3.071506  s :     3.071506
      pz      :     1.201957  p :     3.848840
      px      :     1.464974
      py      :     1.181909
      dz2     :     0.021924  d :     0.071474
      dxz     :     0.010274
      dyz     :     0.022515
      dx2y2   :     0.010182
      dxy     :     0.006579
  4 C s       :     3.210137  s :     3.210137
      pz      :     1.369977  p :     2.906291
      px      :     0.726693
      py      :     0.809621
      dz2     :     0.013459  d :     0.140543
      dxz     :     0.013560
      dyz     :     0.063751
      dx2y2   :     0.022829
      dxy     :     0.026944
  5 C s       :     2.823732  s :     2.823732
      pz      :     1.072071  p :     3.045729
      px      :     1.071644
      py      :     0.902015
      dz2     :     0.022631  d :     0.099667
      dxz     :     0.007228
      dyz     :     0.014955
      dx2y2   :     0.023232
      dxy     :     0.031621
  6 C s       :     2.830403  s :     2.830403
      pz      :     1.074892  p :     3.036017
      px      :     1.078274
      py      :     0.882851
      dz2     :     0.021830  d :     0.092114
      dxz     :     0.006684
      dyz     :     0.013559
      dx2y2   :     0.024481
      dxy     :     0.025559
  7 H s       :     0.914528  s :     0.914528
      pz      :     0.016255  p :     0.067066
      px      :     0.033781
      py      :     0.017029
  8 H s       :     0.908616  s :     0.908616
      pz      :     0.013682  p :     0.065297
      px      :     0.038394
      py      :     0.013221
  9 H s       :     0.908228  s :     0.908228
      pz      :     0.018573  p :     0.064302
      px      :     0.025632
      py      :     0.020096
 10 H s       :     0.913042  s :     0.913042
      pz      :     0.015920  p :     0.063647
      px      :     0.031362
      py      :     0.016366
 11 H s       :     0.894326  s :     0.894326
      pz      :     0.044919  p :     0.065948
      px      :     0.011937
      py      :     0.009092
 12 H s       :     0.895113  s :     0.895113
      pz      :     0.044380  p :     0.067378
      px      :     0.013734
      py      :     0.009263
 13 C s       :     2.817918  s :     2.817918
      pz      :     1.040969  p :     3.162305
      px      :     1.072936
      py      :     1.048401
      dz2     :     0.018896  d :     0.074066
      dxz     :     0.004757
      dyz     :     0.020363
      dx2y2   :     0.006676
      dxy     :     0.023375
 14 C s       :     2.820315  s :     2.820315
      pz      :     1.046110  p :     3.167568
      px      :     1.070331
      py      :     1.051127
      dz2     :     0.019246  d :     0.073719
      dxz     :     0.003838
      dyz     :     0.019748
      dx2y2   :     0.005310
      dxy     :     0.025579
 15 H s       :     0.895695  s :     0.895695
      pz      :     0.013608  p :     0.067202
      px      :     0.034523
      py      :     0.019070
 16 H s       :     0.901870  s :     0.901870
      pz      :     0.012654  p :     0.065721
      px      :     0.029942
      py      :     0.023126
 17 H s       :     0.902458  s :     0.902458
      pz      :     0.013070  p :     0.066587
      px      :     0.031920
      py      :     0.021597
 18 H s       :     0.899889  s :     0.899889
      pz      :     0.012392  p :     0.066247
      px      :     0.026723
      py      :     0.027132
 19 H s       :     0.895903  s :     0.895903
      pz      :     0.034644  p :     0.066448
      px      :     0.013269
      py      :     0.018536
 20 H s       :     0.900488  s :     0.900488
      pz      :     0.034508  p :     0.066330
      px      :     0.013321
      py      :     0.018500


                      *****************************
                      * MAYER POPULATION ANALYSIS *
                      *****************************

  NA   - Mulliken gross atomic population
  ZA   - Total nuclear charge
  QA   - Mulliken gross atomic charge
  VA   - Mayer's total valence
  BVA  - Mayer's bonded valence
  FA   - Mayer's free valence

  ATOM       NA         ZA         QA         VA         BVA        FA
  0 C      6.1142     6.0000    -0.1142     4.0429     4.0429     0.0000
  1 C      6.1109     6.0000    -0.1109     4.0557     4.0557    -0.0000
  2 N      7.2392     7.0000    -0.2392     3.3938     3.3938     0.0000
  3 N      7.2503     7.0000    -0.2503     3.3749     3.3749     0.0000
  4 C      6.1340     6.0000    -0.1340     2.6593     2.6593    -0.0000
  5 C      5.8797     6.0000     0.1203     3.9057     3.9057     0.0000
  6 C      5.8790     6.0000     0.1210     3.9024     3.9024    -0.0000
  7 H      0.9686     1.0000     0.0314     0.9902     0.9902    -0.0000
  8 H      0.9613     1.0000     0.0387     0.9924     0.9924     0.0000
  9 H      0.9582     1.0000     0.0418     0.9913     0.9913     0.0000
 10 H      0.9722     1.0000     0.0278     0.9915     0.9915     0.0000
 11 H      0.9422     1.0000     0.0578     1.0240     1.0240     0.0000
 12 H      0.9450     1.0000     0.0550     1.0173     1.0173     0.0000
 13 C      5.8962     6.0000     0.1038     3.9497     3.9497    -0.0000
 14 C      5.9238     6.0000     0.0762     3.9655     3.9655     0.0000
 15 H      0.9698     1.0000     0.0302     0.9914     0.9914    -0.0000
 16 H      0.9646     1.0000     0.0354     0.9914     0.9914     0.0000
 17 H      0.9711     1.0000     0.0289     0.9902     0.9902     0.0000
 18 H      0.9627     1.0000     0.0373     0.9936     0.9936    -0.0000
 19 H      0.9718     1.0000     0.0282     1.0017     1.0017    -0.0000
 20 H      0.9850     1.0000     0.0150     1.0019     1.0019     0.0000

  Mayer bond orders larger than 0.100000
B(  0-C ,  1-C ) :   1.6616 B(  0-C ,  2-N ) :   1.1165 B(  0-C , 13-C ) :   1.0835 
B(  1-C ,  3-N ) :   1.1411 B(  1-C , 14-C ) :   1.0837 B(  2-N ,  4-C ) :   1.2336 
B(  2-N ,  5-C ) :   0.9708 B(  3-N ,  4-C ) :   1.2079 B(  3-N ,  6-C ) :   0.9547 
B(  5-C ,  7-H ) :   0.9754 B(  5-C , 10-H ) :   0.9770 B(  5-C , 11-H ) :   0.9682 
B(  6-C ,  8-H ) :   0.9803 B(  6-C ,  9-H ) :   0.9751 B(  6-C , 12-H ) :   0.9726 
B( 13-C , 15-H ) :   0.9480 B( 13-C , 18-H ) :   0.9546 B( 13-C , 19-H ) :   0.9479 
B( 14-C , 16-H ) :   0.9561 B( 14-C , 17-H ) :   0.9519 B( 14-C , 20-H ) :   0.9501 


-------
TIMINGS
-------

Total SCF time: 0 days 0 hours 0 min 37 sec 

Total time                  ....      37.669 sec
Sum of individual times     ....      36.485 sec  ( 96.9%)

Fock matrix formation       ....      34.735 sec  ( 92.2%)
  Split-RI-J                ....       1.762 sec  (  5.1% of F)
  Chain of spheres X        ....      25.395 sec  ( 73.1% of F)
  XC integration            ....       6.620 sec  ( 19.1% of F)
    Basis function eval.    ....       1.145 sec  ( 17.3% of XC)
    Density eval.           ....       0.972 sec  ( 14.7% of XC)
    XC-Functional eval.     ....       0.447 sec  (  6.7% of XC)
    XC-Potential eval.      ....       0.729 sec  ( 11.0% of XC)
Diagonalization             ....       0.153 sec  (  0.4%)
Density matrix formation    ....       0.011 sec  (  0.0%)
Population analysis         ....       0.015 sec  (  0.0%)
Initial guess               ....       0.190 sec  (  0.5%)
Orbital Transformation      ....       0.000 sec  (  0.0%)
Orbital Orthonormalization  ....       0.000 sec  (  0.0%)
DIIS solution               ....       0.091 sec  (  0.2%)
SOSCF solution              ....       0.072 sec  (  0.2%)
Grid generation             ....       1.217 sec  (  3.2%)

Maximum memory used throughout the entire SCF-calculation: 55.8 MB


-------------------------------------------------------------------------------
                          DFT DISPERSION CORRECTION                            
                                                                               
                                 DFTD4 V2.5                                    
-------------------------------------------------------------------------------
The WB97X functional is recognized
Active option DFTDOPT                   ...         5   

Starting D4
-------------------------   ----------------
Dispersion correction           -0.002973014
-------------------------   ----------------


-------------------------   --------------------
FINAL SINGLE POINT ENERGY      -383.051613469074
-------------------------   --------------------



           ************************************************************
           *        Program running with 8 parallel MPI-processes     *
           *              working on a common directory               *
           ************************************************************
------------------------------------------------------------------------------
                         ORCA SCF GRADIENT CALCULATION
------------------------------------------------------------------------------

 ... reading COSX grid (gridx3)
Gradient of the Kohn-Sham DFT energy:
Kohn-Sham wavefunction type      ... RKS
Hartree-Fock exchange scaling    ...    0.158
Number of operators              ...    1
Number of atoms                  ...   21
Basis set dimensions             ...  186
Integral neglect threshold       ... 2.5e-11
Integral primitive cutoff        ... 2.5e-12
SHARK Integral package           ... ON

Nuc. rep. gradient       (SHARK) ... done (  0.0 sec)
HCore & Overlap gradient (SHARK) ... done (  0.1 sec)
RI-J gradient            (SHARK) ... done (  0.3 sec)
COSX-gradient                    ... done (  4.8 sec)
Exchange-correlation gradient    ... done
Dispersion correction            ... Starting D4
Starting D4
Starting D4
Starting D4
Starting D4
Starting D4
Starting D4
Starting D4


------------------- 
Dispersion Gradient 
------------------- 
   1  :    0.000000393    0.000010767   -0.000007146
   2  :    0.000000119    0.000001494    0.000008298
   3  :    0.000001963    0.000029026    0.000020081
   4  :    0.000001785   -0.000019709    0.000015234
   5  :   -0.000001413    0.000002752    0.000044736
   6  :   -0.000000575    0.000052719    0.000021951
   7  :   -0.000001172   -0.000053629    0.000021914
   8  :   -0.000001245    0.000008525    0.000005350
   9  :   -0.000001348   -0.000008888    0.000005485
  10  :    0.000001899   -0.000009568    0.000004573
  11  :    0.000001477    0.000008594    0.000004942
  12  :    0.000000018    0.000008350    0.000008258
  13  :    0.000000756   -0.000008651    0.000008122
  14  :    0.000000156    0.000035281   -0.000036993
  15  :   -0.000000791   -0.000035726   -0.000037426
  16  :    0.000001481    0.000008523   -0.000006942
  17  :    0.000001830   -0.000008952   -0.000006271
  18  :   -0.000001853   -0.000009026   -0.000006391
  19  :   -0.000001701    0.000008584   -0.000006454
  20  :   -0.000000871    0.000006531   -0.000010996
  21  :    0.000000061   -0.000006187   -0.000010903

  |G| =    0.000662857

done

------------------
CARTESIAN GRADIENT
------------------

   1   C   :    0.018483278    0.052796314    0.005621674
   2   C   :   -0.018946374   -0.012452196    0.034277827
   3   N   :    0.016747429    0.006573716   -0.004241981
   4   N   :    0.017467201   -0.014988953    0.016734603
   5   C   :   -0.023964952    0.007596451   -0.025273162
   6   C   :   -0.017979028    0.004283495   -0.009605693
   7   C   :    0.006923962   -0.024090504   -0.001746144
   8   H   :    0.012482143   -0.004380058    0.004072962
   9   H   :    0.004225767    0.004541671    0.001004679
  10   H   :   -0.002568097   -0.007119064    0.002873153
  11   H   :   -0.000153300   -0.004506674   -0.001425512
  12   H   :    0.001245611   -0.002659972   -0.000826881
  13   H   :   -0.001910357    0.001461060   -0.008959473
  14   C   :   -0.020526625   -0.000909174   -0.016201813
  15   C   :   -0.000378308   -0.002205336   -0.005482816
  16   H   :   -0.004644407   -0.008624873    0.006621137
  17   H   :   -0.003069564    0.001089113   -0.001237865
  18   H   :    0.005872159    0.004992021   -0.002231434
  19   H   :    0.006852500    0.000824055    0.001579611
  20   H   :    0.005209561    0.004175023    0.001560055
  21   H   :   -0.001309168   -0.006333991    0.002922552

Difference to translation invariance:
           :    0.0000594308    0.0000621246    0.0000354826

Difference to rotation invariance:
           :    0.0001863950    0.0009001622    0.0001960841

Norm of the cartesian gradient     ...    0.0991717967
RMS gradient                       ...    0.0124944720
MAX gradient                       ...    0.0527963139

-------
TIMINGS
-------

Total SCF gradient time            ...        6.731 sec

One electron gradient       ....       0.056 sec  (  0.8%)
RI-J Coulomb gradient       ....       0.329 sec  (  4.9%)
COSX gradient               ....       4.827 sec  ( 71.7%)
XC gradient                 ....       1.060 sec  ( 15.8%)

Maximum memory used throughout the entire SCFGRAD-calculation: 43.3 MB
------------------------------------------------------------------------------
                         ORCA GEOMETRY RELAXATION STEP
------------------------------------------------------------------------------

Reading the OPT-File                    .... done
Getting information on internals        .... done
Copying old internal coords+grads       .... done
Making the new internal coordinates     .... (new redundants).... done
Validating the new internal coordinates .... (new redundants).... done
Calculating the B-matrix                .... done
Calculating the G,G- and P matrices     .... done
Transforming gradient to internals      .... done
Projecting the internal gradient        .... done
Number of atoms                         ....  21
Number of internal coordinates          ....  98
Current Energy                          ....  -383.051613469 Eh
Current gradient norm                   ....     0.099171797 Eh/bohr
Maximum allowed component of the step   ....  0.300
Current trust radius                    ....  0.300
Evaluating the initial hessian          ....  (Almloef) done
Projecting the Hessian                  .... done
Forming the augmented Hessian           .... done
Diagonalizing the augmented Hessian     .... done
Last element of RFO vector              ....  0.917896326
Lowest eigenvalues of augmented Hessian:
 -0.021884841  0.012520293  0.013162470  0.014304207  0.019091648
Length of the computed step             ....  0.432314924
Warning: the length of the step is outside the trust region - taking restricted step instead
The input lambda is                     ....    -0.021885
   iter:   1  x=   -0.036614  g=    6.578405 f(x)=     0.096896
   iter:   2  x=   -0.047128  g=    2.978638 f(x)=     0.031318
   iter:   3  x=   -0.050366  g=    1.912022 f(x)=     0.006189
   iter:   4  x=   -0.050581  g=    1.693243 f(x)=     0.000364
   iter:   5  x=   -0.050582  g=    1.679989 f(x)=     0.000001
   iter:   6  x=   -0.050582  g=    1.679937 f(x)=     0.000000
   iter:   7  x=   -0.050582  g=    1.679937 f(x)=     0.000000
The output lambda is                    ....    -0.050582 (7 iterations)
The final length of the internal step   ....  0.300000000
Converting the step to cartesian space:
 Initial RMS(Int)=    0.0303045763
Transforming coordinates:
 Iter   0:  RMS(Cart)=    0.0535700931 RMS(Int)=    0.6309279816
 Iter   1:  RMS(Cart)=    0.0018496143 RMS(Int)=    0.0010036693
 Iter   2:  RMS(Cart)=    0.0000921449 RMS(Int)=    0.0000658523
 Iter   3:  RMS(Cart)=    0.0000091352 RMS(Int)=    0.0000046115
 Iter   4:  RMS(Cart)=    0.0000004561 RMS(Int)=    0.0000003377
 Iter   5:  RMS(Cart)=    0.0000000468 RMS(Int)=    0.0000000231
done
Storing new coordinates                 .... done

                                .--------------------.
          ----------------------|Geometry convergence|-------------------------
          Item                value                   Tolerance       Converged
          ---------------------------------------------------------------------
          RMS gradient        0.0082900001            0.0001000000      NO
          MAX gradient        0.0344679708            0.0003000000      NO
          RMS step            0.0303045763            0.0020000000      NO
          MAX step            0.1014635626            0.0040000000      NO
          ........................................................
          Max(Bonds)      0.0277      Max(Angles)    3.79
          Max(Dihed)        5.81      Max(Improp)    0.00
          ---------------------------------------------------------------------

The optimization has not yet converged - more geometry cycles are needed


    ---------------------------------------------------------------------------
                         Redundant Internal Coordinates
                            (Angstroem and degrees)

        Definition                    Value    dE/dq     Step     New-Value
    ----------------------------------------------------------------------------
     1. B(C   1,C   0)                1.3921  0.034468 -0.0277    1.3645   
     2. B(N   2,C   0)                1.3773 -0.019822  0.0166    1.3939   
     3. B(N   3,C   1)                1.3885 -0.004099  0.0031    1.3916   
     4. B(C   4,N   3)                1.3683  0.006543 -0.0050    1.3632   
     5. B(C   4,N   2)                1.3600  0.008831 -0.0064    1.3536   
     6. B(C   5,N   2)                1.4360 -0.009018  0.0091    1.4451   
     7. B(C   6,N   3)                1.4752  0.022167 -0.0255    1.4497   
     8. B(H   7,C   5)                1.0815 -0.013625  0.0171    1.0986   
[...]
     14       0.000394   0.000000   0.000001   0.000004  -0.000009  -0.000003
     15      -0.000190  -0.000281   0.006384   0.034741   0.088011   0.000059
     16       0.033028  -0.000005  -0.000043  -0.000096  -0.000247   0.000117
     17      -0.001527   0.000007  -0.000225  -0.001195  -0.003027   0.000656
     18      -0.000276  -0.005743   0.002052  -0.088112   0.034607  -0.000039
     19      -0.031978   0.000043  -0.000013   0.000645  -0.000252   0.000125
     20      -0.001505   0.000140  -0.000053   0.002345  -0.000917  -0.000680
     21       0.347423   0.001512  -0.039189  -0.210317  -0.532829   0.001156
     22      -0.199003  -0.000934   0.022880   0.125043   0.316834  -0.000615
     23       0.119546   0.000474  -0.015270  -0.078448  -0.198792  -0.000174
     24       0.335641   0.035254  -0.012460   0.536888  -0.210868  -0.001408
     25       0.187682   0.020079  -0.007156   0.311854  -0.122497  -0.000723
     26       0.118453   0.014194  -0.004862   0.205038  -0.080548   0.000163
     27      -0.326159   0.034241  -0.012058   0.520386  -0.204404   0.001676
     28       0.192656  -0.020575   0.007314  -0.319535   0.125532  -0.000916
     29       0.136003  -0.016114   0.005513  -0.233022   0.091549  -0.000006
     30      -0.336094   0.001588  -0.037952  -0.206476  -0.523108  -0.001592
     31      -0.193696   0.000988  -0.022334  -0.123802  -0.313698  -0.000871
     32       0.143581  -0.000613   0.018192   0.094558   0.239611   0.000056
     33      -0.009200   0.000024   0.001565   0.004978   0.012729  -0.000298
     34       0.002909   0.000002   0.000012  -0.000004  -0.000014  -0.000195
     35      -0.245439   0.000042  -0.000289  -0.001841  -0.004642  -0.007810
     36      -0.006292  -0.001473   0.000417  -0.012891   0.005109   0.000213
     37      -0.002966  -0.000004  -0.000002   0.000101  -0.000040  -0.000219
     38      -0.236983   0.000183  -0.000005   0.000000  -0.000030   0.008093
     39      -0.000202  -0.013211  -0.092388   0.001171   0.006283   0.000999
     40       0.014618   0.000030   0.000328  -0.000019  -0.000046   0.042304
     41      -0.009945   0.000238   0.001721  -0.000055  -0.000188   0.044395
     42      -0.000008   0.092441  -0.012985  -0.005129   0.003267  -0.000788
     43      -0.014154   0.000034   0.000021  -0.000008  -0.000001   0.047992
     44      -0.009570  -0.001512   0.000192   0.000119  -0.000062  -0.050559
     45      -0.171378   0.080090   0.560756  -0.007188  -0.038085  -0.165205
     46      -0.119935   0.058916   0.413494  -0.005360  -0.028235  -0.112178
     47      -0.002855   0.002049   0.012651   0.000381   0.000236   0.002456
     48      -0.167012  -0.557223   0.078588   0.030911  -0.019601   0.183693
     49       0.117634   0.413188  -0.058413  -0.023096   0.014605  -0.125226
     50      -0.001873  -0.009516   0.001094  -0.000578  -0.000009  -0.003874
     51       0.163889  -0.557152   0.078351   0.030705  -0.019471  -0.189610
     52       0.116604  -0.417810   0.058890   0.023220  -0.014681  -0.130904
     53      -0.009713   0.036676  -0.004915  -0.000875   0.000946   0.005407
     54       0.171136   0.078809   0.553297  -0.007015  -0.037289   0.164039
     55      -0.122462  -0.059290  -0.417183   0.005371   0.028339  -0.113737
     56      -0.009122  -0.004917  -0.032761  -0.000088   0.001223  -0.003538
     57       0.002590  -0.001625  -0.012600  -0.000186   0.000098  -0.010658
     58       0.070752  -0.000017  -0.000290   0.000148   0.000307  -0.285286
     59       0.126966   0.000009  -0.000359   0.000304   0.000631  -0.520286
     60       0.003154   0.012364  -0.001905   0.000102   0.000173   0.015129
     61      -0.068000   0.004591  -0.000766  -0.000091   0.000125  -0.324193
     62       0.122302  -0.008604   0.001468   0.000142  -0.000215   0.592801
                 60         61         62    
      0       0.000007  -0.000002  -0.000000
      1       0.001120   0.000393  -0.000308
      2       0.000109   0.000029  -0.000008
      3       0.000002   0.000001  -0.000004
      4      -0.001040  -0.000068  -0.000494
      5       0.000162   0.000016   0.000027
      6      -0.000008   0.000006   0.000006
      7       0.000191   0.000294  -0.000143
      8      -0.000372  -0.000116   0.000401
      9      -0.000007   0.000009  -0.000008
     10      -0.000194  -0.000112  -0.000307
     11      -0.000350   0.000195  -0.000367
     12      -0.000001  -0.000002  -0.000003
     13       0.000008   0.000080  -0.000202
     14       0.000049  -0.000145  -0.000059
     15       0.000047  -0.002769   0.001176
     16       0.000064   0.018574  -0.007846
     17       0.000282  -0.083721   0.035528
     18       0.000013  -0.001009  -0.002368
     19      -0.000050  -0.007915  -0.018548
     20       0.000193  -0.035558  -0.083703
     21       0.001050   0.199992  -0.084721
     22      -0.000422  -0.111919   0.047453
     23      -0.000214   0.065009  -0.027557
     24       0.001040   0.085805   0.201595
     25       0.000414   0.046843   0.110157
     26      -0.000141   0.028698   0.067464
     27      -0.001164  -0.083350  -0.195841
     28       0.000512   0.048033   0.112961
     29      -0.000054   0.033125   0.077879
     30      -0.001512  -0.198663   0.084135
     31      -0.000690  -0.111816   0.047400
     32       0.000019   0.081174  -0.034397
     33      -0.000136   0.031515  -0.013384
     34      -0.000226  -0.008808   0.003782
     35      -0.003425   0.850586  -0.361257
     36      -0.000066   0.009543   0.022485
     37       0.000199   0.003949   0.009399
     38      -0.002344   0.361347   0.851317
     39       0.001090   0.000000  -0.000006
     40       0.047676   0.000255  -0.000298
     41       0.050296   0.000233  -0.000337
     42       0.000708  -0.000009  -0.000002
     43      -0.041778   0.000028  -0.000385
     44       0.044244  -0.000070   0.000401
     45      -0.185699  -0.001986   0.001419
     46      -0.125852  -0.001005   0.000849
     47       0.002638   0.000597  -0.000245
     48      -0.159801  -0.000404  -0.002297
     49       0.108761   0.000113   0.001253
     50       0.003234   0.000249   0.000575
     51       0.164816   0.000468   0.002507
     52       0.113593   0.000150   0.001392
     53      -0.004829   0.000241   0.000487
     54       0.184944   0.002068  -0.001464
     55      -0.128056  -0.001080   0.000893
     56      -0.004169   0.000494  -0.000180
     57      -0.012186  -0.000067   0.000087
     58      -0.324755  -0.001888   0.002361
     59      -0.593934  -0.002958   0.004240
     60      -0.013321   0.000022  -0.000121
     61       0.285060  -0.000305   0.002976
     62      -0.522724   0.000859  -0.005059


-----------
IR SPECTRUM
-----------

 Mode   freq       eps      Int      T**2         TX        TY        TZ
       cm**-1   L/(mol*cm) km/mol    a.u.
----------------------------------------------------------------------------
  6:    130.79   0.000265    1.34  0.000632  (-0.025137  0.000387 -0.000510)
  7:    133.39   0.000001    0.01  0.000003  ( 0.001477  0.000817 -0.000033)
  8:    152.78   0.000002    0.01  0.000004  ( 0.001241 -0.001570  0.000026)
  9:    166.77   0.000641    3.24  0.001200  (-0.034635  0.000243  0.000333)
 10:    185.69   0.001400    7.07  0.002352  ( 0.048464  0.000020 -0.001874)
 11:    188.44   0.000029    0.15  0.000048  (-0.006869  0.000956  0.000399)
 12:    273.40   0.000019    0.09  0.000021  ( 0.000596 -0.000906 -0.004472)
 13:    279.39   0.000348    1.76  0.000389  (-0.000071 -0.019712  0.000054)
 14:    292.22   0.000091    0.46  0.000097  ( 0.009835 -0.000111  0.000258)
 15:    303.41   0.000548    2.77  0.000564  ( 0.000647 -0.000081  0.023739)
 16:    326.73   0.000000    0.00  0.000000  (-0.000095  0.000143 -0.000193)
 17:    552.19   0.000258    1.30  0.000146  ( 0.000017  0.012066  0.000001)
 18:    584.71   0.000957    4.84  0.000511  (-0.000163 -0.022605  0.000013)
 19:    634.23   0.000710    3.59  0.000350  ( 0.018681  0.000040 -0.000765)
 20:    636.63   0.000383    1.94  0.000188  ( 0.000938 -0.000007  0.013670)
 21:    677.71   0.000000    0.00  0.000000  (-0.000005  0.000315  0.000103)
 22:    735.27   0.001513    7.65  0.000642  ( 0.000519 -0.000004  0.025335)
 23:    877.04   0.004133   20.88  0.001470  (-0.000289 -0.038345  0.000009)
 24:    965.78   0.000152    0.77  0.000049  ( 0.000193 -0.000024  0.007011)
 25:   1050.37   0.000277    1.40  0.000082  ( 0.009048 -0.000501 -0.000327)
 26:   1068.30   0.000001    0.00  0.000000  (-0.000066 -0.000365 -0.000202)
 27:   1083.30   0.000009    0.05  0.000003  ( 0.000096 -0.001632  0.000068)
 28:   1088.59   0.000023    0.12  0.000007  (-0.000014  0.000026  0.002588)
 29:   1114.31   0.000089    0.45  0.000025  (-0.000027 -0.004987 -0.000001)
 30:   1148.27   0.000010    0.05  0.000003  (-0.001656 -0.000043 -0.000111)
 31:   1149.58   0.000001    0.01  0.000000  ( 0.000275  0.000457  0.000001)
 32:   1186.26   0.000470    2.37  0.000124  ( 0.000164  0.000001  0.011116)
 33:   1262.14   0.001062    5.37  0.000263  (-0.000063 -0.016203 -0.000008)
 34:   1393.47   0.000040    0.20  0.000009  (-0.000165 -0.002996  0.000018)
 35:   1402.98   0.000035    0.18  0.000008  (-0.000718 -0.000092 -0.002692)
 36:   1418.41   0.000466    2.36  0.000103  ( 0.000350 -0.000142  0.010122)
 37:   1428.20   0.001678    8.48  0.000367  ( 0.000209 -0.019143 -0.000387)
 38:   1435.12   0.002395   12.10  0.000521  (-0.001583  0.000366 -0.022761)
 39:   1451.81   0.007483   37.82  0.001609  ( 0.000233  0.040106 -0.000125)
 40:   1454.00   0.000681    3.44  0.000146  ( 0.000372 -0.012079 -0.000182)
 41:   1455.72   0.001079    5.45  0.000231  (-0.015001 -0.000171 -0.002497)
 42:   1458.48   0.003942   19.92  0.000843  (-0.000311 -0.029041  0.000078)
 43:   1466.58   0.005840   29.52  0.001243  (-0.003148 -0.000171 -0.035111)
 44:   1472.13   0.000152    0.77  0.000032  ( 0.005382  0.001635 -0.000819)
 45:   1473.41   0.006536   33.03  0.001384  ( 0.036967  0.000251 -0.004199)
 46:   1487.06   0.000124    0.63  0.000026  (-0.000923  0.000049 -0.005014)
 47:   1497.11   0.003924   19.83  0.000818  ( 0.000472  0.000294 -0.028595)
 48:   1499.16   0.000604    3.05  0.000126  (-0.000025  0.011214  0.000180)
 49:   1503.15   0.011665   58.95  0.002422  (-0.000158 -0.049211 -0.000157)
 50:   1769.46   0.000221    1.12  0.000039  ( 0.000108 -0.000009  0.006244)
 51:   3060.07   0.002497   12.62  0.000255  ( 0.000011  0.015867  0.001687)
 52:   3060.44   0.003226   16.30  0.000329  (-0.000231  0.001384 -0.018081)
 53:   3062.24   0.025003  126.36  0.002548  ( 0.000202  0.050477  0.000088)
 54:   3063.99   0.000652    3.29  0.000066  (-0.000251  0.000871 -0.008098)
 55:   3143.36   0.001249    6.31  0.000124  ( 0.011137  0.000031 -0.000117)
 56:   3143.55   0.002180   11.02  0.000216  (-0.014710  0.000022  0.000198)
 57:   3149.62   0.001414    7.15  0.000140  (-0.011834  0.000068  0.000212)
 58:   3149.78   0.007505   37.93  0.000744  ( 0.027254 -0.000131 -0.000904)
 59:   3180.78   0.001831    9.25  0.000180  ( 0.000079  0.013366 -0.000983)
 60:   3181.31   0.002314   11.69  0.000227  ( 0.000305  0.000873  0.015036)
 61:   3213.56   0.000405    2.05  0.000039  (-0.000192  0.000843 -0.006213)
 62:   3213.89   0.000108    0.54  0.000010  (-0.000071 -0.002042 -0.002502)

* The epsilon (eps) is given for a Dirac delta lineshape.
** The dipole moment derivative (T) already includes vibrational overlap.

The first frequency considered to be a vibration is 6
The total number of vibrations considered is 57


--------------------------
THERMOCHEMISTRY AT 298.15K
--------------------------

Temperature         ... 298.15 K
Pressure            ... 1.00 atm
Total Mass          ... 124.19 AMU

Throughout the following assumptions are being made:
  (1) The electronic state is orbitally nondegenerate
  (2) There are no thermally accessible electronically excited states
  (3) Hindered rotations indicated by low frequency modes are not
      treated as such but are treated as vibrations and this may
      cause some error
  (4) All equations used are the standard statistical mechanics
      equations for an ideal gas
  (5) All vibrations are strictly harmonic

freq.     130.79  E(vib)   ...       0.43 
freq.     133.39  E(vib)   ...       0.42 
freq.     152.78  E(vib)   ...       0.40 
freq.     166.77  E(vib)   ...       0.39 
freq.     185.69  E(vib)   ...       0.37 
freq.     188.44  E(vib)   ...       0.36 
freq.     273.40  E(vib)   ...       0.29 
freq.     279.39  E(vib)   ...       0.28 
freq.     292.22  E(vib)   ...       0.27 
freq.     303.41  E(vib)   ...       0.26 
freq.     326.73  E(vib)   ...       0.24 
freq.     552.19  E(vib)   ...       0.12 
freq.     584.71  E(vib)   ...       0.11 
freq.     634.23  E(vib)   ...       0.09 
freq.     636.63  E(vib)   ...       0.09 
freq.     677.71  E(vib)   ...       0.08 
freq.     735.27  E(vib)   ...       0.06 
freq.     877.04  E(vib)   ...       0.04 
freq.     965.78  E(vib)   ...       0.03 
freq.    1050.37  E(vib)   ...       0.02 
freq.    1068.30  E(vib)   ...       0.02 
freq.    1083.30  E(vib)   ...       0.02 
freq.    1088.59  E(vib)   ...       0.02 
freq.    1114.31  E(vib)   ...       0.01 
freq.    1148.27  E(vib)   ...       0.01 
freq.    1149.58  E(vib)   ...       0.01 
freq.    1186.26  E(vib)   ...       0.01 
freq.    1262.14  E(vib)   ...       0.01 
freq.    1393.47  E(vib)   ...       0.00 
freq.    1402.98  E(vib)   ...       0.00 
freq.    1418.41  E(vib)   ...       0.00 
freq.    1428.20  E(vib)   ...       0.00 
freq.    1435.12  E(vib)   ...       0.00 
freq.    1451.81  E(vib)   ...       0.00 
freq.    1454.00  E(vib)   ...       0.00 
freq.    1455.72  E(vib)   ...       0.00 
freq.    1458.48  E(vib)   ...       0.00 
freq.    1466.58  E(vib)   ...       0.00 
freq.    1472.13  E(vib)   ...       0.00 
freq.    1473.41  E(vib)   ...       0.00 
freq.    1487.06  E(vib)   ...       0.00 
freq.    1497.11  E(vib)   ...       0.00 
freq.    1499.16  E(vib)   ...       0.00 
freq.    1503.15  E(vib)   ...       0.00 
freq.    1769.46  E(vib)   ...       0.00 
freq.    3060.07  E(vib)   ...       0.00 
freq.    3060.44  E(vib)   ...       0.00 
freq.    3062.24  E(vib)   ...       0.00 
freq.    3063.99  E(vib)   ...       0.00 
freq.    3143.36  E(vib)   ...       0.00 
freq.    3143.55  E(vib)   ...       0.00 
freq.    3149.62  E(vib)   ...       0.00 
freq.    3149.78  E(vib)   ...       0.00 
freq.    3180.78  E(vib)   ...       0.00 
freq.    3181.31  E(vib)   ...       0.00 
freq.    3213.56  E(vib)   ...       0.00 
freq.    3213.89  E(vib)   ...       0.00 

------------
INNER ENERGY
------------

The inner energy is: U= E(el) + E(ZPE) + E(vib) + E(rot) + E(trans)
    E(el)   - is the total energy from the electronic structure calculation
              = E(kin-el) + E(nuc-el) + E(el-el) + E(nuc-nuc)
    E(ZPE)  - the the zero temperature vibrational energy from the frequency calculation
    E(vib)  - the the finite temperature correction to E(ZPE) due to population
              of excited vibrational states
    E(rot)  - is the rotational thermal energy
    E(trans)- is the translational thermal energy

Summary of contributions to the inner energy U:
Electronic energy                ...   -383.06742847 Eh
Zero point energy                ...      0.18438695 Eh     115.70 kcal/mol
Thermal vibrational correction   ...      0.00716629 Eh       4.50 kcal/mol
Thermal rotational correction    ...      0.00141627 Eh       0.89 kcal/mol
Thermal translational correction ...      0.00141627 Eh       0.89 kcal/mol
-----------------------------------------------------------------------
Total thermal energy                   -382.87304269 Eh


Summary of corrections to the electronic energy:
(perhaps to be used in another calculation)
Total thermal correction                  0.00999883 Eh       6.27 kcal/mol
Non-thermal (ZPE) correction              0.18438695 Eh     115.70 kcal/mol
-----------------------------------------------------------------------
Total correction                          0.19438578 Eh     121.98 kcal/mol


--------
ENTHALPY
--------

The enthalpy is H = U + kB*T
                kB is Boltzmann's constant
Total free energy                 ...   -382.87304269 Eh 
Thermal Enthalpy correction       ...      0.00094421 Eh       0.59 kcal/mol
-----------------------------------------------------------------------
Total Enthalpy                    ...   -382.87209848 Eh


Note: Only C1 symmetry has been detected, increase convergence thresholds 
      if your molecule has a higher symmetry. Symmetry factor of 1.0 is   
      used for the rotational entropy correction. 
 

Note: Rotational entropy computed according to Herzberg 
Infrared and Raman Spectra, Chapter V,1, Van Nostrand Reinhold, 1945 
Point Group:  C1, Symmetry Number:   1  
Rotational constants in cm-1:     0.081975     0.051326     0.032340 

Vibrational entropy computed according to the QRRHO of S. Grimme
Chem.Eur.J. 2012 18 9955


-------
ENTROPY
-------

The entropy contributions are T*S = T*(S(el)+S(vib)+S(rot)+S(trans))
     S(el)   - electronic entropy
     S(vib)  - vibrational entropy
     S(rot)  - rotational entropy
     S(trans)- translational entropy
The entropies will be listed as multiplied by the temperature to get
units of energy

Electronic entropy                ...      0.00000000 Eh      0.00 kcal/mol
Vibrational entropy               ...      0.01231597 Eh      7.73 kcal/mol
Rotational entropy                ...      0.01371352 Eh      8.61 kcal/mol
Translational entropy             ...      0.01917803 Eh     12.03 kcal/mol
-----------------------------------------------------------------------
Final entropy term                ...      0.04520753 Eh     28.37 kcal/mol

In case the symmetry of your molecule has not been determined correctly
or in case you have a reason to use a different symmetry number we print 
out the resulting rotational entropy values for sn=1,12 :
 --------------------------------------------------------
|  sn= 1 | S(rot)=       0.01371352 Eh      8.61 kcal/mol|
|  sn= 2 | S(rot)=       0.01305907 Eh      8.19 kcal/mol|
|  sn= 3 | S(rot)=       0.01267624 Eh      7.95 kcal/mol|
|  sn= 4 | S(rot)=       0.01240461 Eh      7.78 kcal/mol|
|  sn= 5 | S(rot)=       0.01219392 Eh      7.65 kcal/mol|
|  sn= 6 | S(rot)=       0.01202178 Eh      7.54 kcal/mol|
|  sn= 7 | S(rot)=       0.01187623 Eh      7.45 kcal/mol|
|  sn= 8 | S(rot)=       0.01175016 Eh      7.37 kcal/mol|
|  sn= 9 | S(rot)=       0.01163895 Eh      7.30 kcal/mol|
|  sn=10 | S(rot)=       0.01153947 Eh      7.24 kcal/mol|
|  sn=11 | S(rot)=       0.01144948 Eh      7.18 kcal/mol|
|  sn=12 | S(rot)=       0.01136732 Eh      7.13 kcal/mol|
 --------------------------------------------------------


-------------------
GIBBS FREE ENERGY
-------------------

The Gibbs free energy is G = H - T*S

Total enthalpy                    ...   -382.87209848 Eh 
Total entropy correction          ...     -0.04520753 Eh    -28.37 kcal/mol
-----------------------------------------------------------------------
Final Gibbs free energy         ...   -382.91730601 Eh

For completeness - the Gibbs free energy minus the electronic energy
G-E(el)                           ...      0.15012246 Eh     94.20 kcal/mol


Timings for individual modules:

Sum of individual times         ...      518.653 sec (=   8.644 min)
GTO integral calculation        ...        7.422 sec (=   0.124 min)   1.4 %
SCF iterations                  ...      320.540 sec (=   5.342 min)  61.8 %
SCF Gradient evaluation         ...       77.644 sec (=   1.294 min)  15.0 %
Geometry relaxation             ...        0.598 sec (=   0.010 min)   0.1 %
Analytical frequency calculation...      112.448 sec (=   1.874 min)  21.7 %
                             ****ORCA TERMINATED NORMALLY****
TOTAL RUN TIME: 0 days 0 hours 8 minutes 44 seconds 288 msec
