
                                 *****************
                                 * O   R   C   A *
                                 *****************

                                            #,                                       
                                            ###                                      
                                            ####                                     
                                            #####                                    
                                            ######                                   
                                           ########,                                 
                                     ,,################,,,,,                         
                               ,,#################################,,                 
                          ,,##########################################,,             
                       ,#########################################, ''#####,          
                    ,#############################################,,   '####,        
                  ,##################################################,,,,####,       
                ,###########''''           ''''###############################       
              ,#####''   ,,,,##########,,,,          '''####'''          '####       
            ,##' ,,,,###########################,,,                        '##       
           ' ,,###''''                  '''############,,,                           
         ,,##''                                '''############,,,,        ,,,,,,###''
      ,#''                                            '''#######################'''  
     '                                                          ''''####''''         
             ,#######,   #######,   ,#######,      ##                                
            ,#'     '#,  ##    ##  ,#'     '#,    #''#        ######   ,####,        
            ##       ##  ##   ,#'  ##            #'  '#       #        #'  '#        
            ##       ##  #######   ##           ,######,      #####,   #    #        
            '#,     ,#'  ##    ##  '#,     ,#' ,#      #,         ##   #,  ,#        
             '#######'   ##     ##  '#######'  #'      '#     #####' # '####'        



                  #######################################################
                  #                        -***-                        #
                  #          Department of theory and spectroscopy      #
                  #    Directorship and core code : Frank Neese         #
                  #        Max Planck Institute fuer Kohlenforschung    #
                  #                Kaiser Wilhelm Platz 1               #
                  #                 D-45470 Muelheim/Ruhr               #
                  #                      Germany                        #
                  #                                                     #
                  #                  All rights reserved                #
                  #                        -***-                        #
                  #######################################################


                         Program Version 5.0.4 -  RELEASE  -


 With contributions from (in alphabetic order):
   Daniel Aravena         : Magnetic Suceptibility
   Michael Atanasov       : Ab Initio Ligand Field Theory (pilot matlab implementation)
   Alexander A. Auer      : GIAO ZORA, VPT2 properties, NMR spectrum
   Ute Becker             : Parallelization
   Giovanni Bistoni       : ED, misc. LED, open-shell LED, HFLD
   Martin Brehm           : Molecular dynamics
   Dmytro Bykov           : SCF Hessian
   Vijay G. Chilkuri      : MRCI spin determinant printing, contributions to CSF-ICE
   Dipayan Datta          : RHF DLPNO-CCSD density
   Achintya Kumar Dutta   : EOM-CC, STEOM-CC
   Dmitry Ganyushin       : Spin-Orbit,Spin-Spin,Magnetic field MRCI
   Miquel Garcia          : C-PCM and meta-GGA Hessian, CC/C-PCM, Gaussian charge scheme
   Yang Guo               : DLPNO-NEVPT2, F12-NEVPT2, CIM, IAO-localization
   Andreas Hansen         : Spin unrestricted coupled pair/coupled cluster methods
   Benjamin Helmich-Paris : MC-RPA, TRAH-SCF, COSX integrals
   Lee Huntington         : MR-EOM, pCC
   Robert Izsak           : Overlap fitted RIJCOSX, COSX-SCS-MP3, EOM
   Marcus Kettner         : VPT2
   Christian Kollmar      : KDIIS, OOCD, Brueckner-CCSD(T), CCSD density, CASPT2, CASPT2-K
   Simone Kossmann        : Meta GGA functionals, TD-DFT gradient, OOMP2, MP2 Hessian
   Martin Krupicka        : Initial AUTO-CI
   Lucas Lang             : DCDCAS
   Marvin Lechner         : AUTO-CI (C++ implementation), FIC-MRCC
   Dagmar Lenk            : GEPOL surface, SMD
   Dimitrios Liakos       : Extrapolation schemes; Compound Job, initial MDCI parallelization
   Dimitrios Manganas     : Further ROCIS development; embedding schemes
   Dimitrios Pantazis     : SARC Basis sets
   Anastasios Papadopoulos: AUTO-CI, single reference methods and gradients
   Taras Petrenko         : DFT Hessian,TD-DFT gradient, ASA, ECA, R-Raman, ABS, FL, XAS/XES, NRVS
   Peter Pinski           : DLPNO-MP2, DLPNO-MP2 Gradient
   Christoph Reimann      : Effective Core Potentials
   Marius Retegan         : Local ZFS, SOC
   Christoph Riplinger    : Optimizer, TS searches, QM/MM, DLPNO-CCSD(T), (RO)-DLPNO pert. Triples
   Tobias Risthaus        : Range-separated hybrids, TD-DFT gradient, RPA, STAB
   Michael Roemelt        : Original ROCIS implementation
   Masaaki Saitow         : Open-shell DLPNO-CCSD energy and density
   Barbara Sandhoefer     : DKH picture change effects
   Avijit Sen             : IP-ROCIS
   Kantharuban Sivalingam : CASSCF convergence, NEVPT2, FIC-MRCI
   Bernardo de Souza      : ESD, SOC TD-DFT
   Georgi Stoychev        : AutoAux, RI-MP2 NMR, DLPNO-MP2 response
   Willem Van den Heuvel  : Paramagnetic NMR
   Boris Wezisla          : Elementary symmetry handling
   Frank Wennmohs         : Technical directorship


 We gratefully acknowledge several colleagues who have allowed us to
 interface, adapt or use parts of their codes:
   Stefan Grimme, W. Hujo, H. Kruse, P. Pracht,  : VdW corrections, initial TS optimization,
                  C. Bannwarth, S. Ehlert          DFT functionals, gCP, sTDA/sTD-DF
   Ed Valeev, F. Pavosevic, A. Kumar             : LibInt (2-el integral package), F12 methods
   Garnet Chan, S. Sharma, J. Yang, R. Olivares  : DMRG
   Ulf Ekstrom                                   : XCFun DFT Library
   Mihaly Kallay                                 : mrcc  (arbitrary order and MRCC methods)
   Jiri Pittner, Ondrej Demel                    : Mk-CCSD
   Frank Weinhold                                : gennbo (NPA and NBO analysis)
   Christopher J. Cramer and Donald G. Truhlar   : smd solvation model
   Lars Goerigk                                  : TD-DFT with DH, B97 family of functionals
   V. Asgeirsson, H. Jonsson                     : NEB implementation
   FAccTs GmbH                                   : IRC, NEB, NEB-TS, DLPNO-Multilevel, CI-OPT
                                                   MM, QMMM, 2- and 3-layer-ONIOM, Crystal-QMMM,
                                                   LR-CPCM, SF, NACMEs, symmetry and pop. for TD-DFT,
                                                   nearIR, NL-DFT gradient (VV10), updates on ESD,
                                                   ML-optimized integration grids
   S Lehtola, MJT Oliveira, MAL Marques          : LibXC Library
   Liviu Ungur et al                             : ANISO software


 Your calculation uses the libint2 library for the computation of 2-el integrals
 For citations please refer to: http://libint.valeyev.net

 Your ORCA version has been built with support for libXC version: 5.1.0
 For citations please refer to: https://tddft.org/programs/libxc/

 This ORCA versions uses:
   CBLAS   interface :  Fast vector & matrix operations
   LAPACKE interface :  Fast linear algebra routines
   SCALAPACK package :  Parallel linear algebra routines
   Shared memory     :  Shared parallel matrices
   BLAS/LAPACK       :  OpenBLAS 0.3.15  USE64BITINT DYNAMIC_ARCH NO_AFFINITY SkylakeX SINGLE_THREADED
        Core in use  :  SkylakeX
   Copyright (c) 2011-2014, The OpenBLAS Project


Your calculation utilizes the atom-pairwise dispersion correction
based on tight binding partial charges (D4)
Cite in your paper:
E.Caldeweyher, C.Bannwarth, S.Grimme, J.Chem.Phys., (2017), 147, 034112.
E.Caldeweyher, S.Ehlert, A.Hansen, H.Neugebauer, S.Grimme, J.Chem.Phys., (2018), in progress.
   

XCFun DFT library Copyright 2009-2010 Ulf Ekstrom and contributors.
See http://admol.org/xcfun for more information.
This is free software; see the source code for copying conditions.
There is ABSOLUTELY NO WARRANTY; not even for MERCHANTABILITY or FITNESS FOR A PARTICULAR PURPOSE.
For details see the documentation.
Scientific users of this library should cite U. Ekstrom, L. Visscher, R. Bast, A. J. Thorvaldsen and K. Ruud;
J.Chem.Theor.Comp. 2010, DOI: 10.1021/ct100117s
XCFun Version 0.99 

================================================================================

----- Orbital basis set information -----
Your calculation utilizes the basis: def2-SVP
   F. Weigend and R. Ahlrichs, Phys. Chem. Chem. Phys. 7, 3297 (2005).

----- AuxJ basis set information -----
Your calculation utilizes the auxiliary basis: def2/J
   F. Weigend, Phys. Chem. Chem. Phys. 8, 1057 (2006).

================================================================================
                                        WARNINGS
                       Please study these warnings very carefully!
================================================================================


WARNING: Geometry Optimization
  ===> : Switching off AutoStart
         For restart on a previous wavefunction, please use MOREAD

INFO   : the flag for use of the SHARK integral package has been found!

================================================================================
                                       INPUT FILE
================================================================================
NAME = Min_264.inp
|  1> ! Opt FREQ wB97X D4 Def2-SVP SlowConv TightSCF DEFGRID2 Def2/J RIJCOSX
|  2> %MAXCORE 4000
|  3> %scf MaxIter 20000 end
|  4> %geom
|  5> MaxIter 500
|  6> end
|  7> %PAL NPROCS 8 END
|  8> 
|  9> * xyz 0 1
| 10> C 0.8281 0.43674 -1.49311
| 11> C 0.66192 -0.96469 -1.31578
| 12> N 0.21924 1.01711 -0.36272
| 13> N 0.00515 -1.09153 -0.12408
| 14> C -0.25823 0.10056 0.50373
| 15> H 1.31392 1.07622 -2.31678
| 16> H 1.12066 -1.74754 -1.91035
| 17> C 0.21983 2.4551 -0.05891
| 18> C -0.43584 -2.38323 0.47465
| 19> C -1.07735 2.9985 -0.75448
| 20> C -1.55142 -2.91243 -0.44138
| 21> C 0.73574 -3.35716 0.51886
| 22> C 1.49052 3.13579 -0.57693
| 23> H -0.92964 2.93098 -1.83951
| 24> H -1.13021 -3.02441 -1.43148
| 25> H 1.43612 -3.33274 -0.3172
| 26> H 1.48866 3.15254 -1.64215
| 27> H -1.97889 2.4153 -0.46223
| 28> H -2.34798 -2.17626 -0.58334
| 29> H 1.27521 -3.18732 1.44058
| 30> H 2.39483 2.7247 -0.16371
| 31> H -1.25584 4.07601 -0.60843
| 32> H -2.02094 -3.84136 -0.09667
| 33> H 0.35077 -4.39365 0.54044
| 34> H 1.43773 4.14799 -0.2343
| 35> C 0.19379 2.7236 1.45881
| 36> C -0.93637 -2.17751 1.85853
| 37> H 0.14217 3.78875 1.48392
| 38> H -1.02497 -3.18149 2.35385
| 39> H -0.68113 2.24707 1.90515
| 40> H -1.84633 -1.59414 1.84261
| 41> H -0.20443 -1.64842 2.48706
| 42> H 1.00397 2.37026 2.07528
| 43> **                         ****END OF INPUT****
================================================================================

                       *****************************
                       * Geometry Optimization Run *
                       *****************************

Geometry optimization settings:
Update method            Update   .... BFGS
Choice of coordinates    CoordSys .... Z-matrix Internals
Initial Hessian          InHess   .... Almoef's Model

Convergence Tolerances:
Energy Change            TolE     ....  5.0000e-06 Eh
Max. Gradient            TolMAXG  ....  3.0000e-04 Eh/bohr
RMS Gradient             TolRMSG  ....  1.0000e-04 Eh/bohr
Max. Displacement        TolMAXD  ....  4.0000e-03 bohr
RMS Displacement         TolRMSD  ....  2.0000e-03 bohr
Strict Convergence                ....  False
------------------------------------------------------------------------------
                        ORCA OPTIMIZATION COORDINATE SETUP
------------------------------------------------------------------------------

The optimization will be done in new redundant internal coordinates
Making redundant internal coordinates   ...  (new redundants) done
Evaluating the initial hessian          ...  (Almloef) done
Evaluating the coordinates              ...  done
Calculating the B-matrix                .... done
Calculating the G-matrix                .... done
Diagonalizing the G-matrix              .... done
Small eigenvalue found = 9.979e-03
Small eigenvalue found = 2.264e-02
The first mode is                       ....   83
The number of degrees of freedom        ....   93

    -----------------------------------------------------------------
                    Redundant Internal Coordinates


    -----------------------------------------------------------------
         Definition                    Initial Value    Approx d2E/dq
    -----------------------------------------------------------------
      1. B(C   1,C   0)                  1.4223         0.554795   
      2. B(N   2,C   0)                  1.4090         0.521842   
      3. B(N   3,C   1)                  1.3666         0.609839   
      4. B(C   4,N   2)                  1.3486         0.651469   
      5. B(C   4,N   3)                  1.3728         0.596087   
      6. B(H   5,C   0)                  1.1504         0.288457   
      7. B(H   6,C   1)                  1.0848         0.367033   
      8. B(C   7,N   2)                  1.4697         0.417509   
      9. B(C   8,N   3)                  1.4904         0.386915   
     10. B(C   9,C   7)                  1.5690         0.323703   
     11. B(C  10,C   8)                  1.5374         0.363520   
     12. B(C  11,C   8)                  1.5242         0.381662   
     13. B(C  12,C   7)                  1.5318         0.371146   
     14. B(H  13,C   9)                  1.0971         0.350806   
     15. B(H  14,C  10)                  1.0818         0.371135   
     16. B(H  15,C  11)                  1.0909         0.358874   
     17. B(H  16,C  12)                  1.0654         0.394226   
     18. B(H  17,C   9)                  1.1128         0.331176   
     19. B(H  18,C  10)                  1.0939         0.354984   
     20. B(H  19,C  11)                  1.0814         0.371649   
     21. B(H  20,C  12)                  1.0759         0.379269   
     22. B(H  21,C   9)                  1.1019         0.344678   
     23. B(H  22,C  10)                  1.0964         0.351678   
     24. B(H  23,C  11)                  1.1059         0.339689   
     25. B(H  24,C  12)                  1.0699         0.387666   
     26. B(C  25,C   7)                  1.5415         0.358112   
     27. B(C  26,C   8)                  1.4859         0.439233   
     28. B(H  27,C  25)                  1.0667         0.392287   
     29. B(H  28,C  26)                  1.1230         0.318967   
     30. B(H  29,C  25)                  1.0917         0.357872   
     31. B(H  30,C  26)                  1.0810         0.372179   
     32. B(H  31,C  26)                  1.1003         0.346693   
     33. B(H  32,C  25)                  1.0776         0.376848   
     34. A(C   1,C   0,N   2)          104.7934         0.409959   
     35. A(N   2,C   0,H   5)          121.8658         0.328397   
     36. A(C   1,C   0,H   5)          133.3391         0.333752   
     37. A(C   0,C   1,H   6)          126.3913         0.347467   
     38. A(C   0,C   1,N   3)          104.8517         0.421481   
     39. A(N   3,C   1,H   6)          127.8934         0.350888   
     40. A(C   4,N   2,C   7)          122.1595         0.402852   
     41. A(C   0,N   2,C   4)          112.8600         0.419104   
     42. A(C   0,N   2,C   7)          124.6571         0.387480   
     43. A(C   4,N   3,C   8)          120.8032         0.391350   
     44. A(C   1,N   3,C   8)          124.9550         0.392915   
     45. A(C   1,N   3,C   4)          114.2299         0.424147   
     46. A(N   2,C   4,N   3)          103.2038         0.429193   
     47. A(C  12,C   7,C  25)          105.6390         0.360338   
     48. A(C   9,C   7,C  25)          111.2346         0.352067   
     49. A(N   2,C   7,C   9)          104.2932         0.359124   
     50. A(N   2,C   7,C  25)          111.9584         0.365371   
     51. A(C   9,C   7,C  12)          112.4582         0.354205   
     52. A(N   2,C   7,C  12)          111.4204         0.367617   
     53. A(N   3,C   8,C  10)          105.8820         0.361575   
     54. A(N   3,C   8,C  26)          110.7202         0.373501   
     55. A(C  11,C   8,C  26)          108.6856         0.374975   
     56. A(C  10,C   8,C  26)          110.9857         0.371840   
     57. A(C  10,C   8,C  11)          110.7990         0.362987   
     58. A(N   3,C   8,C  11)          109.7552         0.364596   
     59. A(H  13,C   9,H  17)          109.6672         0.285882   
     60. A(C   7,C   9,H  17)          111.8307         0.312533   
     61. A(C   7,C   9,H  13)          107.8069         0.315465   
     62. A(H  17,C   9,H  21)          110.2697         0.285098   
     63. A(H  13,C   9,H  21)          102.3023         0.287670   
     64. A(C   7,C   9,H  21)          114.4453         0.314564   
     65. A(H  14,C  10,H  18)          103.5573         0.291566   
     66. A(C   8,C  10,H  18)          111.9661         0.322114   
     67. A(C   8,C  10,H  14)          107.3630         0.324473   
     68. A(H  18,C  10,H  22)          107.4059         0.289112   
     69. A(H  14,C  10,H  22)          111.5172         0.291137   
     70. A(C   8,C  10,H  22)          114.5211         0.321621   
     71. A(H  15,C  11,H  19)          109.2337         0.292130   
     72. A(C   8,C  11,H  19)          107.9281         0.327158   
     73. A(C   8,C  11,H  15)          117.1908         0.325280   
     74. A(H  19,C  11,H  23)          107.7116         0.289620   
     75. A(H  15,C  11,H  23)          105.0358         0.288038   
     76. A(C   8,C  11,H  23)          109.3828         0.322360   
     77. A(H  16,C  12,H  20)          113.0480         0.297451   
     78. A(C   7,C  12,H  20)          113.4270         0.326746   
     79. A(C   7,C  12,H  16)          110.1012         0.328837   
     80. A(H  20,C  12,H  24)          106.2577         0.296661   
     81. A(H  16,C  12,H  24)          107.7725         0.298487   
     82. A(C   7,C  12,H  24)          105.7343         0.327927   
     83. A(H  29,C  25,H  32)          103.0335         0.292641   
     84. A(H  27,C  25,H  32)          110.5074         0.296917   
     85. A(C   7,C  25,H  32)          119.5659         0.324489   
     86. A(H  27,C  25,H  29)          112.7970         0.294500   
     87. A(C   7,C  25,H  29)          109.8800         0.321751   
     88. A(C   7,C  25,H  27)          101.4155         0.326638   
     89. A(H  30,C  26,H  31)          107.9908         0.290614   
     90. A(H  28,C  26,H  31)          103.3216         0.283694   
     91. A(C   8,C  26,H  31)          111.9929         0.331015   
     92. A(H  28,C  26,H  30)          114.9945         0.286846   
     93. A(C   8,C  26,H  30)          110.1538         0.334932   
     94. A(C   8,C  26,H  28)          108.2749         0.326492   
     95. D(H   6,C   1,C   0,N   2)   -170.7569         0.021069   
     96. D(N   3,C   1,C   0,N   2)     -0.7587         0.021069   
     97. D(N   3,C   1,C   0,H   5)    179.7262         0.021069   
     98. D(H   6,C   1,C   0,H   5)      9.7280         0.021069   
     99. D(C   7,N   2,C   0,H   5)     -4.6913         0.021596   
    100. D(C   4,N   2,C   0,H   5)   -178.2597         0.021596   
    101. D(C   4,N   2,C   0,C   1)      2.1555         0.021596   
    102. D(C   7,N   2,C   0,C   1)    175.7240         0.021596   
    103. D(C   8,N   3,C   1,H   6)    -12.2706         0.030039   
    104. D(C   4,N   3,C   1,H   6)    168.9811         0.030039   
    105. D(C   4,N   3,C   1,C   0)     -0.8144         0.030039   
    106. D(C   8,N   3,C   1,C   0)    177.9339         0.030039   
    107. D(N   2,C   4,N   3,C   1)      2.0725         0.025929   
    108. D(N   2,C   4,N   3,C   8)   -176.7331         0.025929   
    109. D(N   3,C   4,N   2,C   7)   -176.3104         0.031378   
    110. D(N   3,C   4,N   2,C   0)     -2.5589         0.031378   
    111. D(C  12,C   7,N   2,C   0)    -31.2838         0.014865   
    112. D(C  25,C   7,N   2,C   4)     23.6528         0.014865   
    113. D(C  12,C   7,N   2,C   4)    141.7130         0.014865   
    114. D(C  25,C   7,N   2,C   0)   -149.3440         0.014865   
    115. D(C   9,C   7,N   2,C   0)     90.2775         0.014865   
    116. D(C   9,C   7,N   2,C   4)    -96.7257         0.014865   
    117. D(C  26,C   8,N   3,C   4)     -9.6787         0.012803   
    118. D(C  11,C   8,N   3,C   4)   -129.6657         0.012803   
    119. D(C  11,C   8,N   3,C   1)     51.6632         0.012803   
    120. D(C  26,C   8,N   3,C   1)    171.6501         0.012803   
    121. D(C  10,C   8,N   3,C   4)    110.7006         0.012803   
    122. D(C  10,C   8,N   3,C   1)    -67.9705         0.012803   
    123. D(H  13,C   9,C   7,C  12)     52.5018         0.008568   
    124. D(H  13,C   9,C   7,N   2)    -68.3697         0.008568   
    125. D(H  13,C   9,C   7,C  25)    170.7677         0.008568   
    126. D(H  21,C   9,C   7,C  25)     57.6989         0.008568   
    127. D(H  21,C   9,C   7,C  12)    -60.5670         0.008568   
    128. D(H  21,C   9,C   7,N   2)    178.5615         0.008568   
    129. D(H  17,C   9,C   7,C  25)    -68.6038         0.008568   
    130. D(H  17,C   9,C   7,C  12)    173.1303         0.008568   
    131. D(H  17,C   9,C   7,N   2)     52.2588         0.008568   
    132. D(H  22,C  10,C   8,C  26)    -56.5374         0.010588   
    133. D(H  22,C  10,C   8,C  11)     64.3102         0.010588   
    134. D(H  22,C  10,C   8,N   3)   -176.7437         0.010588   
    135. D(H  18,C  10,C   8,C  26)     66.0456         0.010588   
    136. D(H  18,C  10,C   8,C  11)   -173.1068         0.010588   
    137. D(H  18,C  10,C   8,N   3)    -54.1607         0.010588   
    138. D(H  14,C  10,C   8,C  26)    179.0591         0.010588   
    139. D(H  14,C  10,C   8,C  11)    -60.0933         0.010588   
    140. D(H  14,C  10,C   8,N   3)     58.8528         0.010588   
    141. D(H  23,C  11,C   8,C  10)    -39.4006         0.011604   
    142. D(H  23,C  11,C   8,N   3)   -155.9813         0.011604   
    143. D(H  19,C  11,C   8,C  26)    -34.1229         0.011604   
    144. D(H  19,C  11,C   8,C  10)   -156.3233         0.011604   
    145. D(H  19,C  11,C   8,N   3)     87.0960         0.011604   
    146. D(H  15,C  11,C   8,C  26)   -157.8652         0.011604   
    147. D(H  15,C  11,C   8,C  10)     79.9344         0.011604   
    148. D(H  23,C  11,C   8,C  26)     82.7998         0.011604   
    149. D(H  15,C  11,C   8,N   3)    -36.6462         0.011604   
    150. D(H  24,C  12,C   7,N   2)   -175.0929         0.011008   
    151. D(H  20,C  12,C   7,C  25)     62.7502         0.011008   
    152. D(H  20,C  12,C   7,C   9)   -175.7368         0.011008   
    153. D(H  20,C  12,C   7,N   2)    -59.0489         0.011008   
    154. D(H  16,C  12,C   7,C  25)   -169.4486         0.011008   
    155. D(H  16,C  12,C   7,C   9)    -47.9355         0.011008   
    156. D(H  24,C  12,C   7,C   9)     68.2192         0.011008   
    157. D(H  16,C  12,C   7,N   2)     68.7523         0.011008   
    158. D(H  24,C  12,C   7,C  25)    -53.2938         0.011008   
    159. D(H  32,C  25,C   7,C  12)    -60.1005         0.010296   
    160. D(H  32,C  25,C   7,C   9)    177.5985         0.010296   
    161. D(H  32,C  25,C   7,N   2)     61.3512         0.010296   
    162. D(H  29,C  25,C   7,C  12)   -178.8412         0.010296   
    163. D(H  29,C  25,C   7,C   9)     58.8579         0.010296   
    164. D(H  29,C  25,C   7,N   2)    -57.3895         0.010296   
    165. D(H  27,C  25,C   7,C  12)     61.5979         0.010296   
    166. D(H  27,C  25,C   7,C   9)    -60.7030         0.010296   
    167. D(H  27,C  25,C   7,N   2)   -176.9504         0.010296   
    168. D(H  31,C  26,C   8,C  11)     67.1836         0.015244   
    169. D(H  31,C  26,C   8,C  10)   -170.7294         0.015244   
    170. D(H  31,C  26,C   8,N   3)    -53.4414         0.015244   
    171. D(H  30,C  26,C   8,C  11)   -172.6137         0.015244   
    172. D(H  30,C  26,C   8,C  10)    -50.5267         0.015244   
    173. D(H  30,C  26,C   8,N   3)     66.7613         0.015244   
    174. D(H  28,C  26,C   8,C  11)    -46.0870         0.015244   
    175. D(H  28,C  26,C   8,C  10)     76.0000         0.015244   
    176. D(H  28,C  26,C   8,N   3)   -166.7120         0.015244   
    -----------------------------------------------------------------

Number of atoms                         .... 33
Number of degrees of freedom            .... 176

         *************************************************************
         *                GEOMETRY OPTIMIZATION CYCLE   1            *
         *************************************************************
---------------------------------
CARTESIAN COORDINATES (ANGSTROEM)
---------------------------------
  C      0.828100    0.436740   -1.493110
  C      0.661920   -0.964690   -1.315780
  N      0.219240    1.017110   -0.362720
  N      0.005150   -1.091530   -0.124080
  C     -0.258230    0.100560    0.503730
  H      1.313920    1.076220   -2.316780
  H      1.120660   -1.747540   -1.910350
  C      0.219830    2.455100   -0.058910
  C     -0.435840   -2.383230    0.474650
  C     -1.077350    2.998500   -0.754480
  C     -1.551420   -2.912430   -0.441380
  C      0.735740   -3.357160    0.518860
  C      1.490520    3.135790   -0.576930
  H     -0.929640    2.930980   -1.839510
  H     -1.130210   -3.024410   -1.431480
  H      1.436120   -3.332740   -0.317200
  H      1.488660    3.152540   -1.642150
  H     -1.978890    2.415300   -0.462230
  H     -2.347980   -2.176260   -0.583340
  H      1.275210   -3.187320    1.440580
  H      2.394830    2.724700   -0.163710
  H     -1.255840    4.076010   -0.608430
  H     -2.020940   -3.841360   -0.096670
  H      0.350770   -4.393650    0.540440
  H      1.437730    4.147990   -0.234300
  C      0.193790    2.723600    1.458810
  C     -0.936370   -2.177510    1.858530
  H      0.142170    3.788750    1.483920
  H     -1.024970   -3.181490    2.353850
  H     -0.681130    2.247070    1.905150
  H     -1.846330   -1.594140    1.842610
  H     -0.204430   -1.648420    2.487060
  H      1.003970    2.370260    2.075280

----------------------------
CARTESIAN COORDINATES (A.U.)
----------------------------
  NO LB      ZA    FRAG     MASS         X           Y           Z
   0 C     6.0000    0    12.011    1.564882    0.825319   -2.821569
   1 C     6.0000    0    12.011    1.250848   -1.823000   -2.486464
   2 N     7.0000    0    14.007    0.414304    1.922059   -0.685441
   3 N     7.0000    0    14.007    0.009732   -2.062693   -0.234477
   4 C     6.0000    0    12.011   -0.487984    0.190031    0.951912
   5 H     1.0000    0     1.008    2.482949    2.033761   -4.378080
   6 H     1.0000    0     1.008    2.117740   -3.302372   -3.610038
   7 C     6.0000    0    12.011    0.415418    4.639467   -0.111324
   8 C     6.0000    0    12.011   -0.823618   -4.503652    0.896959
   9 C     6.0000    0    12.011   -2.035896    5.666344   -1.425761
  10 C     6.0000    0    12.011   -2.931759   -5.503695   -0.834087
  11 C     6.0000    0    12.011    1.390347   -6.344113    0.980503
  12 C     6.0000    0    12.011    2.816675    5.925784   -1.090240
  13 H     1.0000    0     1.008   -1.756765    5.538750   -3.476170
  14 H     1.0000    0     1.008   -2.135787   -5.715307   -2.705105
  15 H     1.0000    0     1.008    2.713873   -6.297966   -0.599421
  16 H     1.0000    0     1.008    2.813160    5.957437   -3.103214
  17 H     1.0000    0     1.008   -3.739560    4.564256   -0.873488
  18 H     1.0000    0     1.008   -4.437039   -4.112535   -1.102353
  19 H     1.0000    0     1.008    2.409798   -6.023162    2.722302
  20 H     1.0000    0     1.008    4.525573    5.148937   -0.309367
  21 H     1.0000    0     1.008   -2.373194    7.702543   -1.149766
  22 H     1.0000    0     1.008   -3.819023   -7.259118   -0.182680
  23 H     1.0000    0     1.008    0.662859   -8.302795    1.021284
  24 H     1.0000    0     1.008    2.716916    7.838565   -0.442763
  25 C     6.0000    0    12.011    0.366210    5.146858    2.756751
  26 C     6.0000    0    12.011   -1.769483   -4.114898    3.512113
  27 H     1.0000    0     1.008    0.268662    7.159700    2.804202
  28 H     1.0000    0     1.008   -1.936913   -6.012145    4.448132
  29 H     1.0000    0     1.008   -1.287149    4.246347    3.600212
  30 H     1.0000    0     1.008   -3.489058   -3.012488    3.482028
  31 H     1.0000    0     1.008   -0.386317   -3.115062    4.699862
  32 H     1.0000    0     1.008    1.897228    4.479142    3.921711

--------------------------------
INTERNAL COORDINATES (ANGSTROEM)
--------------------------------
 C      0   0   0     0.000000000000     0.00000000     0.00000000
 C      1   0   0     1.422345867291     0.00000000     0.00000000
 N      1   2   0     1.409014332290   104.79335309     0.00000000
 N      2   1   3     1.366595810216   104.85169243   359.24133368
 C      3   1   2     1.348620445455   112.85998825     2.15554633
 H      1   2   3     1.150386027253   133.33914584   180.48490364
 H      2   1   3     1.084808736598   126.39130469   189.24311116
 C      3   1   2     1.469733344624   124.65706630   175.72399459
 C      4   2   1     1.490449154785   124.95504207   177.93393060
 C      8   3   1     1.569005142535   104.29315016    90.27746931
 C      9   4   2     1.537427181137   105.88197954   292.02952128
 C      9   4   2     1.524169893877   109.75523985    51.66317457
 C      8   3   1     1.531775660010   111.42043996   328.71617107
 H     10   8   3     1.097117721760   107.80694577   291.63029629
 H     11   9   4     1.081783432347   107.36296358    58.85282214
 H     12   9   4     1.090928413967   117.19075471   323.35376444
 H     13   8   3     1.065353307828   110.10116564    68.75233886
 H     10   8   3     1.112792287042   111.83071009    52.25876588
 H     11   9   4     1.093895216234   111.96610385   305.83933035
 H     12   9   4     1.081407076406   107.92810351    87.09598899
 H     13   8   3     1.075882118357   113.42700849   300.95105422
 H     10   8   3     1.101915188524   114.44527614   178.56148149
 H     11   9   4     1.096441954414   114.52106546   183.25633635
 H     12   9   4     1.105883862528   109.38283888   204.01870566
 H     13   8   3     1.069920997551   105.73428908   184.90705644
 C      8   3   1     1.541507161839   111.95835887   210.65597850
 C      9   4   2     1.485925588211   110.72022239   171.65014386
 H     26   8   3     1.066695673095   101.41546949   183.04960392
 H     27   9   4     1.123017231747   108.27490860   193.28804040
 H     26   8   3     1.091689169544   109.87998356   302.61049652
 H     27   9   4     1.081018596001   110.15381843    66.76133282
 H     27   9   4     1.100328293102   111.99291537   306.55861067
 H     26   8   3     1.077625189433   119.56589385    61.35117041

---------------------------
INTERNAL COORDINATES (A.U.)
---------------------------
 C      0   0   0     0.000000000000     0.00000000     0.00000000
 C      1   0   0     2.687844156895     0.00000000     0.00000000
 N      1   2   0     2.662651206799   104.79335309     0.00000000
 N      2   1   3     2.582491817073   104.85169243   359.24133368
 C      3   1   2     2.548523300517   112.85998825     2.15554633
 H      1   2   3     2.173914539799   133.33914584   180.48490364
 H      2   1   3     2.049991419856   126.39130469   189.24311116
 C      3   1   2     2.777393511232   124.65706630   175.72399459
 C      4   2   1     2.816540719078   124.95504207   177.93393060
 C      8   3   1     2.964990022104   104.29315016    90.27746931
 C      9   4   2     2.905316323196   105.88197954   292.02952128
 C      9   4   2     2.880263680995   109.75523985    51.66317457
 C      8   3   1     2.894636496026   111.42043996   328.71617107
 H     10   8   3     2.073252030798   107.80694577   291.63029629
 H     11   9   4     2.044274423349   107.36296358    58.85282214
 H     12   9   4     2.061555934110   117.19075471   323.35376444
 H     13   8   3     2.013225987662   110.10116564    68.75233886
 H     10   8   3     2.102872666449   111.83071009    52.25876588
 H     11   9   4     2.067162377889   111.96610385   305.83933035
 H     12   9   4     2.043563213691   107.92810351    87.09598899
 H     13   8   3     2.033122556077   113.42700849   300.95105422
 H     10   8   3     2.082317929119   114.44527614   178.56148149
 H     11   9   4     2.071975015585   114.52106546   183.25633635
 H     12   9   4     2.089817636101   109.38283888   204.01870566
 H     13   8   3     2.021857670303   105.73428908   184.90705644
 C      8   3   1     2.913026369353   111.95835887   210.65597850
 C      9   4   2     2.807992417105   110.72022239   171.65014386
 H     26   8   3     2.015762690389   101.41546949   183.04960392
 H     27   9   4     2.122195011676   108.27490860   193.28804040
 H     26   8   3     2.062993553806   109.87998356   302.61049652
 H     27   9   4     2.042829092118   110.15381843    66.76133282
 H     27   9   4     2.079319131367   111.99291537   306.55861067
 H     26   8   3     2.036416483043   119.56589385    61.35117041

---------------------
BASIS SET INFORMATION
---------------------
There are 3 groups of distinct atoms

 Group   1 Type C   : 7s4p1d contracted to 3s2p1d pattern {511/31/1}
 Group   2 Type N   : 7s4p1d contracted to 3s2p1d pattern {511/31/1}
 Group   3 Type H   : 4s1p contracted to 2s1p pattern {31/1}

Atom   0C    basis set group =>   1
Atom   1C    basis set group =>   1
Atom   2N    basis set group =>   2
Atom   3N    basis set group =>   2
Atom   4C    basis set group =>   1
Atom   5H    basis set group =>   3
Atom   6H    basis set group =>   3
Atom   7C    basis set group =>   1
Atom   8C    basis set group =>   1
Atom   9C    basis set group =>   1
Atom  10C    basis set group =>   1
Atom  11C    basis set group =>   1
Atom  12C    basis set group =>   1
Atom  13H    basis set group =>   3
Atom  14H    basis set group =>   3
Atom  15H    basis set group =>   3
Atom  16H    basis set group =>   3
Atom  17H    basis set group =>   3
Atom  18H    basis set group =>   3
Atom  19H    basis set group =>   3
Atom  20H    basis set group =>   3
Atom  21H    basis set group =>   3
Atom  22H    basis set group =>   3
Atom  23H    basis set group =>   3
Atom  24H    basis set group =>   3
Atom  25C    basis set group =>   1
Atom  26C    basis set group =>   1
Atom  27H    basis set group =>   3
Atom  28H    basis set group =>   3
Atom  29H    basis set group =>   3
Atom  30H    basis set group =>   3
Atom  31H    basis set group =>   3
Atom  32H    basis set group =>   3
---------------------------------
AUXILIARY/J BASIS SET INFORMATION
---------------------------------
There are 3 groups of distinct atoms

 Group   1 Type C   : 12s5p4d2f1g contracted to 6s4p3d1f1g pattern {711111/2111/211/2/1}
 Group   2 Type N   : 12s5p4d2f1g contracted to 6s4p3d1f1g pattern {711111/2111/211/2/1}
 Group   3 Type H   : 5s2p1d contracted to 3s1p1d pattern {311/2/1}

Atom   0C    basis set group =>   1
Atom   1C    basis set group =>   1
Atom   2N    basis set group =>   2
Atom   3N    basis set group =>   2
Atom   4C    basis set group =>   1
Atom   5H    basis set group =>   3
Atom   6H    basis set group =>   3
Atom   7C    basis set group =>   1
Atom   8C    basis set group =>   1
Atom   9C    basis set group =>   1
Atom  10C    basis set group =>   1
Atom  11C    basis set group =>   1
Atom  12C    basis set group =>   1
Atom  13H    basis set group =>   3
Atom  14H    basis set group =>   3
Atom  15H    basis set group =>   3
Atom  16H    basis set group =>   3
Atom  17H    basis set group =>   3
Atom  18H    basis set group =>   3
Atom  19H    basis set group =>   3
Atom  20H    basis set group =>   3
Atom  21H    basis set group =>   3
Atom  22H    basis set group =>   3
Atom  23H    basis set group =>   3
Atom  24H    basis set group =>   3
Atom  25C    basis set group =>   1
Atom  26C    basis set group =>   1
Atom  27H    basis set group =>   3
Atom  28H    basis set group =>   3
Atom  29H    basis set group =>   3
Atom  30H    basis set group =>   3
Atom  31H    basis set group =>   3
Atom  32H    basis set group =>   3


           ************************************************************
           *        Program running with 8 parallel MPI-processes     *
           *              working on a common directory               *
           ************************************************************
------------------------------------------------------------------------------
                           ORCA GTO INTEGRAL CALCULATION
                           -- RI-GTO INTEGRALS CHOSEN --
------------------------------------------------------------------------------
------------------------------------------------------------------------------
                   ___                                                        
                  /   \      - P O W E R E D   B Y -                         
                 /     \                                                     
                 |  |  |   _    _      __       _____    __    __             
                 |  |  |  | |  | |    /  \     |  _  \  |  |  /  |          
                  \  \/   | |  | |   /    \    | | | |  |  | /  /          
                 / \  \   | |__| |  /  /\  \   | |_| |  |  |/  /          
                |  |  |   |  __  | /  /__\  \  |    /   |      \           
                |  |  |   | |  | | |   __   |  |    \   |  |\   \          
                \     /   | |  | | |  |  |  |  | |\  \  |  | \   \       
                 \___/    |_|  |_| |__|  |__|  |_| \__\ |__|  \__/        
                                                                              
                      - O R C A' S   B I G   F R I E N D -                    
                                      &                                       
                       - I N T E G R A L  F E E D E R -                       
                                                                              
 v1 FN, 2020, v2 2021                                                         
------------------------------------------------------------------------------


Reading SHARK input file Min_264.SHARKINP.tmp ... ok
----------------------
SHARK INTEGRAL PACKAGE
----------------------

Number of atoms                             ...     33
Number of basis functions                   ...    282
Number of shells                            ...    138
Maximum angular momentum                    ...      2
Integral batch strategy                     ... SHARK/LIBINT Hybrid
RI-J (if used) integral strategy            ... SPLIT-RIJ (Revised 2003 algorithm where possible)
Printlevel                                  ...      1
Contraction scheme used                     ... SEGMENTED contraction
Coulomb Range Separation                    ... NOT USED
Exchange Range Separation                   ... Long Range
   Mu parameter                             ...  0.300000
   Scaling (regular/separated)              ...  0.157706  0.842294
Finite Nucleus Model                        ... NOT USED
Auxiliary Coulomb fitting basis             ... AVAILABLE
   # of basis functions in Aux-J            ...    857
   # of shells in Aux-J                     ...    295
   Maximum angular momentum in Aux-J        ...      4
Auxiliary J/K fitting basis                 ... NOT available
Auxiliary Correlation fitting basis         ... NOT available
Auxiliary 'external' fitting basis          ... NOT available
Integral threshold                          ...     2.500000e-11
Primitive cut-off                           ...     2.500000e-12
Primitive pair pre-selection threshold      ...     2.500000e-12

Calculating pre-screening integrals         ... done (  0.0 sec) Dimension = 138
Organizing shell pair data                  ... done (  0.1 sec)
Shell pair information
Total number of shell pairs                 ...      9591
Shell pairs after pre-screening             ...      8188
Total number of primitive shell pairs       ...     33125
Primitive shell pairs kept                  ...     19714
          la=0 lb=0:   2797 shell pairs
          la=1 lb=0:   3092 shell pairs
          la=1 lb=1:    886 shell pairs
          la=2 lb=0:    862 shell pairs
          la=2 lb=1:    476 shell pairs
          la=2 lb=2:     75 shell pairs

Calculating one electron integrals          ... done (  0.0 sec)
Calculating RI/J V-Matrix + Cholesky decomp.... done (  0.0 sec)
Calculating Nuclear repulsion               ... done (  0.0 sec) ENN=    854.945820032922 Eh

SHARK setup successfully completed in   0.3 seconds

Maximum memory used throughout the entire GTOINT-calculation: 16.4 MB


           ************************************************************
           *        Program running with 8 parallel MPI-processes     *
           *              working on a common directory               *
           ************************************************************
-------------------------------------------------------------------------------
                                 ORCA SCF
-------------------------------------------------------------------------------

------------
SCF SETTINGS
------------
Hamiltonian:
 Density Functional     Method          .... DFT(GTOs)
 Exchange Functional    Exchange        .... WB97X
 Correlation Functional Correlation     .... WB97X
 Gradients option       PostSCFGGA      .... off
 Hybrid DFT is turned on
   Fraction HF Exchange ScalHFX         ....  0.157706
   Scaling of DF-GGA-X  ScalDFX         ....  0.000000
   Scaling of DF-GGA-C  ScalDFC         ....  1.000000
   Scaling of DF-LDA-C  ScalLDAC        ....  1.000000
   Perturbative correction              ....  0.000000
   Density functional embedding theory  .... OFF
 Long-range corrected/Screened/Range-Separated Hybrid DFT is turned on
   Amount of maximum screened exact exchange              ....  0.842294
   Range separation parameter mu (erf(mu*r12)/r12)        ....  0.300000
 RI-approximation to the Coulomb term is turned on
   Number of AuxJ basis functions       .... 857
   RIJ-COSX (HFX calculated with COS-X)).... on


General Settings:
 Integral files         IntName         .... Min_264
 Hartree-Fock type      HFTyp           .... RHF
 Total Charge           Charge          ....    0
 Multiplicity           Mult            ....    1
 Number of Electrons    NEL             ....  100
 Basis Dimension        Dim             ....  282
 Nuclear Repulsion      ENuc            ....    854.9458200329 Eh

Convergence Acceleration:
 DIIS                   CNVDIIS         .... on
   Start iteration      DIISMaxIt       ....     0
   Startup error        DIISStart       ....  0.200000
   # of expansion vecs  DIISMaxEq       ....     5
   Bias factor          DIISBfac        ....   1.050
   Max. coefficient     DIISMaxC        ....  10.000
 Trust-Rad. Augm. Hess. CNVTRAH         .... auto
   Auto Start mean grad. ratio tolernc. ....  1.125000
   Auto Start start iteration           ....    20
   Auto Start num. interpolation iter.  ....    10
   Max. Number of Micro iterations      ....    16
   Max. Number of Macro iterations      .... Maxiter - #DIIS iter
   Number of Davidson start vectors     ....     2
   Converg. threshold I  (grad. norm)   ....   1.000e-05
   Converg. threshold II (energy diff.) ....   1.000e-08
   Grad. Scal. Fac. for Micro threshold ....   0.100
   Minimum threshold for Micro iter.    ....   0.010
   NR start threshold (gradient norm)   ....   0.001
   Initial trust radius                 ....   0.400
   Minimum AH scaling param. (alpha)    ....   1.000
   Maximum AH scaling param. (alpha)    .... 1000.000
   Orbital update algorithm             .... Taylor
   White noise on init. David. guess    .... on
   Maximum white noise                  ....   0.010
   Quad. conv. algorithm                .... NR
 SOSCF                  CNVSOSCF        .... on
   Start iteration      SOSCFMaxIt      ....   150
   Startup grad/error   SOSCFStart      ....  0.001000
 Level Shifting         CNVShift        .... on
   Level shift para.    LevelShift      ....    0.2500
   Turn off err/grad.   ShiftErr        ....    0.0000
 Zerner damping         CNVZerner       .... off
 Static damping         CNVDamp         .... on
   Fraction old density DampFac         ....    0.8500
   Max. Damping (<1)    DampMax         ....    0.9800
   Min. Damping (>=0)   DampMin         ....    0.0000
   Turn off err/grad.   DampErr         ....    0.0300
 Fernandez-Rico         CNVRico         .... off

SCF Procedure:
 Maximum # iterations   MaxIter         .... 20000
 SCF integral mode      SCFMode         .... Direct
   Integral package                     .... SHARK and LIBINT hybrid scheme
 Reset frequency        DirectResetFreq ....    20
 Integral Threshold     Thresh          ....  2.500e-11 Eh
 Primitive CutOff       TCut            ....  2.500e-12 Eh

Convergence Tolerance:
 Convergence Check Mode ConvCheckMode   .... Total+1el-Energy
 Convergence forced     ConvForced      .... 0
 Energy Change          TolE            ....  1.000e-08 Eh
 1-El. energy change                    ....  1.000e-05 Eh
 Orbital Gradient       TolG            ....  1.000e-05
 Orbital Rotation angle TolX            ....  1.000e-05
 DIIS Error             TolErr          ....  5.000e-07


Diagonalization of the overlap matrix:
Smallest eigenvalue                        ... 1.104e-03
Time for diagonalization                   ...    0.013 sec
Threshold for overlap eigenvalues          ... 1.000e-08
Number of eigenvalues below threshold      ... 0
Time for construction of square roots      ...    0.074 sec
Total time needed                          ...    0.087 sec

Time for model grid setup =    0.196 sec

------------------------------
INITIAL GUESS: MODEL POTENTIAL
------------------------------
Loading Hartree-Fock densities                     ... done
Calculating cut-offs                               ... done
Initializing the effective Hamiltonian             ... done
Setting up the integral package (SHARK)            ... done
Starting the Coulomb interaction                   ... done (   0.1 sec)
Reading the grid                                   ... done
Mapping shells                                     ... done
Starting the XC term evaluation                    ... done (   0.1 sec)
  promolecular density results
     # of electrons  =     99.988741049
     EX              =    -75.264070434
     EC              =     -3.312795512
     EX+EC           =    -78.576865945
Transforming the Hamiltonian                       ... done (   0.1 sec)
Diagonalizing the Hamiltonian                      ... done (   0.0 sec)
Back transforming the eigenvectors                 ... done (   0.0 sec)
Now organizing SCF variables                       ... done
                      ------------------
                      INITIAL GUESS DONE (   0.6 sec)
                      ------------------
-------------------
DFT GRID GENERATION
-------------------

General Integration Accuracy     IntAcc      ... 4.388
Radial Grid Type                 RadialGrid  ... OptM3 with GC (2021)
Angular Grid (max. ang.)         AngularGrid ... 4 (Lebedev-302)
Angular grid pruning method      GridPruning ... 4 (adaptive)
Weight generation scheme         WeightScheme... Becke
Basis function cutoff            BFCut       ... 1.0000e-11
Integration weight cutoff        WCut        ... 1.0000e-14
Angular grids for H and He will be reduced by one unit
Partially contracted basis set               ... off
Rotationally invariant grid construction     ... off

Total number of grid points                  ...   141183
Total number of batches                      ...     2223
Average number of points per batch           ...       63
Average number of grid points per atom       ...     4278
Time for grid setup =    0.804 sec

--------------------
COSX GRID GENERATION
--------------------

GRIDX 1
-------
General Integration Accuracy     IntAcc      ... 3.816
Radial Grid Type                 RadialGrid  ... OptM3 with GC (2021)
Angular Grid (max. ang.)         AngularGrid ... 1 (Lebedev-50)
Angular grid pruning method      GridPruning ... 4 (adaptive)
Weight generation scheme         WeightScheme... Becke
Basis function cutoff            BFCut       ... 1.0000e-11
Integration weight cutoff        WCut        ... 1.0000e-14
Angular grids for H and He will be reduced by one unit
Partially contracted basis set               ... on
Rotationally invariant grid construction     ... off

Total number of grid points                  ...    18041
Total number of batches                      ...      301
Average number of points per batch           ...       59
Average number of grid points per atom       ...      547
UseSFitting                                  ... on

GRIDX 2
-------
General Integration Accuracy     IntAcc      ... 4.020
Radial Grid Type                 RadialGrid  ... OptM3 with GC (2021)
Angular Grid (max. ang.)         AngularGrid ... 2 (Lebedev-110)
Angular grid pruning method      GridPruning ... 4 (adaptive)
Weight generation scheme         WeightScheme... Becke
Basis function cutoff            BFCut       ... 1.0000e-11
Integration weight cutoff        WCut        ... 1.0000e-14
Angular grids for H and He will be reduced by one unit
Partially contracted basis set               ... on
Rotationally invariant grid construction     ... off

Total number of grid points                  ...    37517
Total number of batches                      ...      602
Average number of points per batch           ...       62
Average number of grid points per atom       ...     1137
UseSFitting                                  ... on

GRIDX 3
-------
General Integration Accuracy     IntAcc      ... 4.338
Radial Grid Type                 RadialGrid  ... OptM3 with GC (2021)
Angular Grid (max. ang.)         AngularGrid ... 3 (Lebedev-194)
Angular grid pruning method      GridPruning ... 4 (adaptive)
Weight generation scheme         WeightScheme... Becke
Basis function cutoff            BFCut       ... 1.0000e-11
Integration weight cutoff        WCut        ... 1.0000e-14
Angular grids for H and He will be reduced by one unit
Partially contracted basis set               ... on
Rotationally invariant grid construction     ... off

Total number of grid points                  ...    81635
Total number of batches                      ...     1290
Average number of points per batch           ...       63
Average number of grid points per atom       ...     2474
UseSFitting                                  ... on

Time for X-Grid setup             =    1.065 sec

--------------
SCF ITERATIONS
--------------
ITER       Energy         Delta-E        Max-DP      RMS-DP      [F,P]     Damp
               ***  Starting incremental Fock matrix formation  ***
  0   -539.7956679323   0.000000000000 0.04123727  0.00070396  0.1574402 0.8500
  1   -539.8674602762  -0.071792343887 0.04448103  0.00068080  0.1265664 0.8500
                               ***Turning on DIIS***
  2   -539.9218525567  -0.054392280517 0.03892083  0.00055913  0.0968355 0.8500
  3   -539.9619369675  -0.040084410779 0.03080277  0.00039158  0.0730998 0.8500
  4   -539.9926541089  -0.030717141407 0.02517119  0.00029691  0.0581709 0.8500
  5   -540.0167256650  -0.024071556093 0.02126605  0.00024281  0.0480081 0.8500
  6   -540.0362212817  -0.019495616670 0.01821182  0.00020486  0.0403346 0.8500
  7   -540.0523129632  -0.016091681535 0.01580010  0.00017672  0.0341459 0.8500
  8   -540.0657460372  -0.013433074011 0.09113998  0.00101538  0.0288721 0.0000
  9   -540.1377556000  -0.072009562816 0.00146354  0.00004063  0.0013175 0.0000
                      *** Initiating the SOSCF procedure ***
                           *** Shutting down DIIS ***
                      *** Re-Reading the Fockian *** 
                      *** Removing any level shift *** 
ITER      Energy       Delta-E        Grad      Rot      Max-DP    RMS-DP
 10   -540.13778905  -0.0000334545  0.000483  0.000483  0.001207  0.000019
               *** Restarting incremental Fock matrix formation ***
 11   -540.13789459  -0.0001055369  0.000282  0.000627  0.000700  0.000015
 12   -540.13789636  -0.0000017700  0.000134  0.000603  0.000439  0.000011
 13   -540.13789700  -0.0000006336  0.000042  0.000074  0.000292  0.000004
 14   -540.13789705  -0.0000000578  0.000019  0.000026  0.000149  0.000002
 15   -540.13789707  -0.0000000131  0.000007  0.000022  0.000028  0.000001
                  ***Gradient check signals convergence***
              ***Rediagonalizing the Fockian in SOSCF/NRSCF***

               *****************************************************
               *                     SUCCESS                       *
               *           SCF CONVERGED AFTER  16 CYCLES          *
               *****************************************************

Old exchange energy                            =    -25.309454903 Eh
New exchange energy                            =    -25.309470653 Eh
Exchange energy change after final integration =     -0.000015751 Eh
Total energy after final integration           =   -540.137912807 Eh
Final COS-X integration done in                =    11.057 sec

----------------
TOTAL SCF ENERGY
----------------

Total Energy       :         -540.13791281 Eh          -14697.89983 eV

Components:
Nuclear Repulsion  :          854.94582003 Eh           23264.25850 eV
Electronic Energy  :        -1395.08373284 Eh          -37962.15833 eV
One Electron Energy:        -2424.87618894 Eh          -65984.23567 eV
Two Electron Energy:         1029.79245610 Eh           28022.07735 eV
Max COSX asymmetry :            0.00000523 Eh               0.00014 eV

Virial components:
Potential Energy   :        -1073.66680728 Eh          -29215.95914 eV
Kinetic Energy     :          533.52889447 Eh           14518.05930 eV
Virial Ratio       :            2.01238737


DFT components:
N(Alpha)           :       50.000086284632 electrons
N(Beta)            :       50.000086284632 electrons
N(Total)           :      100.000172569265 electrons
E(XC)              :      -55.457505772330 Eh       
DFET-embed. en.    :        0.000000000000 Eh       

---------------
SCF CONVERGENCE
---------------

  Last Energy change         ...    9.3224e-09  Tolerance :   1.0000e-08
  Last MAX-Density change    ...    2.6645e-15  Tolerance :   1.0000e-07
  Last RMS-Density change    ...    3.2506e-17  Tolerance :   5.0000e-09
  Last Orbital Gradient      ...    1.0049e-06  Tolerance :   1.0000e-05
  Last Orbital Rotation      ...    3.1879e-06  Tolerance :   1.0000e-05

             **** THE GBW FILE WAS UPDATED (Min_264.gbw) ****
             **** DENSITY Min_264.scfp WAS UPDATED ****
             **** ENERGY FILE WAS UPDATED (Min_264.en.tmp) ****
             **** THE GBW FILE WAS UPDATED (Min_264.gbw) ****
             **** DENSITY Min_264.scfp WAS UPDATED ****
----------------
ORBITAL ENERGIES
----------------

  NO   OCC          E(Eh)            E(eV) 
   0   2.0000     -14.439351      -392.9147 
   1   2.0000     -14.439232      -392.9115 
   2   2.0000     -10.316943      -280.7383 
   3   2.0000     -10.311823      -280.5990 
   4   2.0000     -10.302807      -280.3536 
   5   2.0000     -10.299270      -280.2574 
   6   2.0000     -10.265091      -279.3273 
   7   2.0000     -10.262660      -279.2612 
   8   2.0000     -10.260384      -279.1992 
   9   2.0000     -10.259199      -279.1670 
  10   2.0000     -10.257853      -279.1304 
  11   2.0000     -10.249300      -278.8976 
  12   2.0000     -10.246631      -278.8250 
  13   2.0000      -1.134255       -30.8647 
  14   2.0000      -1.038302       -28.2536 
  15   2.0000      -0.949116       -25.8268 
  16   2.0000      -0.900629       -24.5074 
  17   2.0000      -0.853437       -23.2232 
  18   2.0000      -0.815492       -22.1907 
  19   2.0000      -0.814981       -22.1768 
  20   2.0000      -0.807546       -21.9744 
  21   2.0000      -0.800978       -21.7957 
  22   2.0000      -0.752596       -20.4792 
  23   2.0000      -0.717063       -19.5123 
  24   2.0000      -0.654839       -17.8191 
  25   2.0000      -0.641436       -17.4544 
  26   2.0000      -0.616065       -16.7640 
  27   2.0000      -0.581800       -15.8316 
  28   2.0000      -0.577168       -15.7055 
  29   2.0000      -0.560810       -15.2604 
  30   2.0000      -0.555948       -15.1281 
  31   2.0000      -0.550285       -14.9740 
  32   2.0000      -0.532046       -14.4777 
  33   2.0000      -0.529213       -14.4006 
  34   2.0000      -0.523805       -14.2535 
  35   2.0000      -0.505876       -13.7656 
  36   2.0000      -0.490657       -13.3515 
  37   2.0000      -0.481833       -13.1113 
  38   2.0000      -0.479958       -13.0603 
  39   2.0000      -0.471428       -12.8282 
  40   2.0000      -0.468936       -12.7604 
  41   2.0000      -0.462845       -12.5947 
  42   2.0000      -0.456801       -12.4302 
  43   2.0000      -0.445727       -12.1288 
  44   2.0000      -0.435362       -11.8468 
  45   2.0000      -0.433646       -11.8001 
  46   2.0000      -0.422715       -11.5027 
  47   2.0000      -0.364118        -9.9082 
  48   2.0000      -0.307596        -8.3701 
  49   2.0000      -0.297443        -8.0938 
  50   0.0000       0.112343         3.0570 
  51   0.0000       0.137489         3.7413 
  52   0.0000       0.141249         3.8436 
  53   0.0000       0.145693         3.9645 
  54   0.0000       0.172903         4.7049 
  55   0.0000       0.177756         4.8370 
  56   0.0000       0.188963         5.1419 
  57   0.0000       0.199951         5.4409 
  58   0.0000       0.205299         5.5865 
  59   0.0000       0.208958         5.6860 
  60   0.0000       0.215278         5.8580 
  61   0.0000       0.218065         5.9338 
  62   0.0000       0.227269         6.1843 
  63   0.0000       0.231795         6.3075 
  64   0.0000       0.238748         6.4967 
  65   0.0000       0.247887         6.7453 
  66   0.0000       0.256728         6.9859 
  67   0.0000       0.257724         7.0130 
  68   0.0000       0.263686         7.1753 
  69   0.0000       0.270945         7.3728 
  70   0.0000       0.272754         7.4220 
  71   0.0000       0.281161         7.6508 
  72   0.0000       0.284512         7.7420 
  73   0.0000       0.294991         8.0271 
  74   0.0000       0.296748         8.0749 
  75   0.0000       0.312609         8.5065 
  76   0.0000       0.319877         8.7043 
  77   0.0000       0.325172         8.8484 
  78   0.0000       0.344830         9.3833 
  79   0.0000       0.357168         9.7190 
  80   0.0000       0.370123        10.0716 
  81   0.0000       0.383308        10.4303 
  82   0.0000       0.390782        10.6337 
  83   0.0000       0.427450        11.6315 
  84   0.0000       0.462899        12.5961 
  85   0.0000       0.482523        13.1301 
  86   0.0000       0.494385        13.4529 
  87   0.0000       0.506563        13.7843 
  88   0.0000       0.517820        14.0906 
  89   0.0000       0.518975        14.1220 
  90   0.0000       0.528618        14.3844 
  91   0.0000       0.536930        14.6106 
  92   0.0000       0.559166        15.2157 
  93   0.0000       0.560573        15.2540 
  94   0.0000       0.574334        15.6284 
  95   0.0000       0.614777        16.7289 
  96   0.0000       0.627645        17.0791 
  97   0.0000       0.630586        17.1591 
  98   0.0000       0.652959        17.7679 
  99   0.0000       0.659266        17.9395 
 100   0.0000       0.667417        18.1613 
 101   0.0000       0.678971        18.4757 
 102   0.0000       0.686627        18.6841 
 103   0.0000       0.694488        18.8980 
 104   0.0000       0.704978        19.1834 
 105   0.0000       0.716987        19.5102 
 106   0.0000       0.735608        20.0169 
 107   0.0000       0.741020        20.1642 
 108   0.0000       0.748243        20.3607 
 109   0.0000       0.749350        20.3909 
 110   0.0000       0.758967        20.6525 
 111   0.0000       0.759983        20.6802 
 112   0.0000       0.760975        20.7072 
 113   0.0000       0.766219        20.8499 
 114   0.0000       0.779037        21.1987 
 115   0.0000       0.782193        21.2845 
 116   0.0000       0.784426        21.3453 
 117   0.0000       0.791257        21.5312 
 118   0.0000       0.795852        21.6562 
 119   0.0000       0.798306        21.7230 
 120   0.0000       0.803927        21.8760 
 121   0.0000       0.805998        21.9323 
 122   0.0000       0.811205        22.0740 
 123   0.0000       0.813374        22.1330 
 124   0.0000       0.822687        22.3865 
 125   0.0000       0.828980        22.5577 
 126   0.0000       0.834392        22.7050 
 127   0.0000       0.836391        22.7594 
 128   0.0000       0.844836        22.9891 
 129   0.0000       0.847719        23.0676 
 130   0.0000       0.853465        23.2240 
 131   0.0000       0.857239        23.3267 
 132   0.0000       0.861000        23.4290 
 133   0.0000       0.869752        23.6672 
 134   0.0000       0.877599        23.8807 
 135   0.0000       0.882091        24.0029 
 136   0.0000       0.891659        24.2633 
 137   0.0000       0.911581        24.8054 
 138   0.0000       0.959081        26.0979 
 139   0.0000       0.983674        26.7671 
 140   0.0000       1.023129        27.8408 
 141   0.0000       1.033392        28.1200 
 142   0.0000       1.052275        28.6339 
 143   0.0000       1.065365        28.9901 
 144   0.0000       1.098141        29.8819 
 145   0.0000       1.116766        30.3888 
 146   0.0000       1.123383        30.5688 
 147   0.0000       1.149628        31.2830 
 148   0.0000       1.168294        31.7909 
 149   0.0000       1.212820        33.0025 
 150   0.0000       1.241894        33.7936 
 151   0.0000       1.247020        33.9331 
 152   0.0000       1.267763        34.4976 
 153   0.0000       1.282958        34.9110 
 154   0.0000       1.294779        35.2327 
 155   0.0000       1.328232        36.1430 
 156   0.0000       1.342605        36.5341 
 157   0.0000       1.378172        37.5020 
 158   0.0000       1.401611        38.1398 
 159   0.0000       1.423669        38.7400 
 160   0.0000       1.428815        38.8800 
 161   0.0000       1.453322        39.5469 
 162   0.0000       1.475073        40.1388 
 163   0.0000       1.495377        40.6913 
 164   0.0000       1.513152        41.1750 
 165   0.0000       1.593375        43.3579 
 166   0.0000       1.603523        43.6341 
 167   0.0000       1.631084        44.3840 
 168   0.0000       1.647013        44.8175 
 169   0.0000       1.650447        44.9109 
 170   0.0000       1.655924        45.0600 
 171   0.0000       1.663752        45.2730 
 172   0.0000       1.668459        45.4011 
 173   0.0000       1.670615        45.4597 
 174   0.0000       1.683121        45.8001 
 175   0.0000       1.684231        45.8303 
 176   0.0000       1.696295        46.1585 
 177   0.0000       1.722180        46.8629 
 178   0.0000       1.736072        47.2409 
 179   0.0000       1.760392        47.9027 
 180   0.0000       1.796063        48.8734 
 181   0.0000       1.798430        48.9378 
 182   0.0000       1.821167        49.5565 
 183   0.0000       1.838305        50.0228 
 184   0.0000       1.840252        50.0758 
 185   0.0000       1.856667        50.5225 
 186   0.0000       1.874257        51.0011 
 187   0.0000       1.880312        51.1659 
 188   0.0000       1.895832        51.5882 
 189   0.0000       1.899882        51.6984 
 190   0.0000       1.907270        51.8995 
 191   0.0000       1.920048        52.2472 
 192   0.0000       1.926053        52.4106 
 193   0.0000       1.939269        52.7702 
 194   0.0000       1.944654        52.9167 
 195   0.0000       1.959064        53.3088 
 196   0.0000       1.960583        53.3502 
 197   0.0000       1.966051        53.4990 
 198   0.0000       1.970552        53.6215 
 199   0.0000       1.978120        53.8274 
 200   0.0000       1.985242        54.0212 
 201   0.0000       1.991910        54.2026 
 202   0.0000       1.998894        54.3927 
 203   0.0000       2.006112        54.5891 
 204   0.0000       2.021011        54.9945 
 205   0.0000       2.033240        55.3273 
 206   0.0000       2.040299        55.5193 
 207   0.0000       2.041460        55.5509 
 208   0.0000       2.061011        56.0830 
 209   0.0000       2.080280        56.6073 
 210   0.0000       2.087562        56.8055 
 211   0.0000       2.092033        56.9271 
 212   0.0000       2.114614        57.5416 
 213   0.0000       2.121224        57.7215 
 214   0.0000       2.125907        57.8489 
 215   0.0000       2.144609        58.3578 
 216   0.0000       2.161097        58.8064 
 217   0.0000       2.166621        58.9567 
 218   0.0000       2.226839        60.5954 
 219   0.0000       2.244587        61.0783 
 220   0.0000       2.249244        61.2050 
 221   0.0000       2.259539        61.4852 
 222   0.0000       2.272995        61.8514 
 223   0.0000       2.296575        62.4930 
 224   0.0000       2.305505        62.7360 
 225   0.0000       2.312011        62.9130 
 226   0.0000       2.323930        63.2374 
 227   0.0000       2.338290        63.6281 
 228   0.0000       2.346817        63.8601 
 229   0.0000       2.377183        64.6864 
 230   0.0000       2.423409        65.9443 
 231   0.0000       2.458933        66.9110 
 232   0.0000       2.478868        67.4534 
 233   0.0000       2.483968        67.5922 
 234   0.0000       2.504788        68.1587 
 235   0.0000       2.519725        68.5652 
 236   0.0000       2.527173        68.7679 
 237   0.0000       2.532216        68.9051 
 238   0.0000       2.543431        69.2103 
 239   0.0000       2.550619        69.4059 
 240   0.0000       2.577504        70.1375 
 241   0.0000       2.603987        70.8581 
 242   0.0000       2.607038        70.9411 
 243   0.0000       2.628085        71.5138 
 244   0.0000       2.646980        72.0280 
 245   0.0000       2.658952        72.3538 
 246   0.0000       2.690608        73.2152 
 247   0.0000       2.703428        73.5640 
 248   0.0000       2.717478        73.9463 
 249   0.0000       2.754450        74.9524 
 250   0.0000       2.761379        75.1409 
 251   0.0000       2.768364        75.3310 
 252   0.0000       2.793580        76.0172 
 253   0.0000       2.827892        76.9508 
 254   0.0000       2.835356        77.1540 
 255   0.0000       2.848440        77.5100 
 256   0.0000       2.856724        77.7354 
 257   0.0000       2.878975        78.3409 
 258   0.0000       2.906477        79.0893 
 259   0.0000       2.955676        80.4280 
 260   0.0000       2.963820        80.6496 
 261   0.0000       2.992201        81.4219 
 262   0.0000       3.008700        81.8709 
 263   0.0000       3.013428        81.9995 
 264   0.0000       3.023050        82.2614 
 265   0.0000       3.034724        82.5790 
 266   0.0000       3.044652        82.8492 
 267   0.0000       3.068316        83.4931 
 268   0.0000       3.075607        83.6915 
 269   0.0000       3.093262        84.1719 
 270   0.0000       3.098485        84.3141 
 271   0.0000       3.105116        84.4945 
 272   0.0000       3.116643        84.8082 
 273   0.0000       3.134557        85.2956 
 274   0.0000       3.147224        85.6403 
 275   0.0000       3.181415        86.5707 
 276   0.0000       3.222722        87.6947 
 277   0.0000       3.227458        87.8236 
 278   0.0000       3.314954        90.2045 
 279   0.0000       3.423550        93.1595 
 280   0.0000       3.455078        94.0175 
 281   0.0000       3.593781        97.7917 

                    ********************************
                    * MULLIKEN POPULATION ANALYSIS *
                    ********************************

-----------------------
MULLIKEN ATOMIC CHARGES
-----------------------
   0 C :   -0.003855
   1 C :    0.022457
   2 N :   -0.203425
   3 N :   -0.209656
   4 C :   -0.118905
   5 H :    0.054999
   6 H :    0.037666
   7 C :   -0.213024
   8 C :   -0.216720
   9 C :    0.047334
  10 C :    0.069624
  11 C :    0.057096
  12 C :    0.082029
  13 H :    0.011059
  14 H :    0.006086
  15 H :    0.015759
  16 H :    0.005979
  17 H :    0.051667
  18 H :    0.027214
  19 H :    0.025140
  20 H :    0.034588
  21 H :    0.020035
  22 H :    0.028680
  23 H :    0.023397
  24 H :    0.012794
  25 C :    0.089180
  26 C :    0.101190
  27 H :    0.001439
  28 H :    0.017329
  29 H :    0.041354
  30 H :    0.029691
  31 H :    0.031449
  32 H :    0.020350
Sum of atomic charges:   -0.0000000

--------------------------------
MULLIKEN REDUCED ORBITAL CHARGES
--------------------------------
  0 C s       :     3.162303  s :     3.162303
      pz      :     0.875556  p :     2.798523
      px      :     1.033149
      py      :     0.889818
      dz2     :     0.009409  d :     0.043029
      dxz     :     0.007154
      dyz     :     0.011985
      dx2y2   :     0.005626
      dxy     :     0.008854
  1 C s       :     3.134347  s :     3.134347
      pz      :     0.874275  p :     2.797133
      px      :     1.005320
      py      :     0.917538
      dz2     :     0.012794  d :     0.046062
      dxz     :     0.009237
      dyz     :     0.009517
      dx2y2   :     0.007079
      dxy     :     0.007435
  2 N s       :     3.395631  s :     3.395631
      pz      :     1.198526  p :     3.776455
      px      :     1.420243
      py      :     1.157686
      dz2     :     0.007906  d :     0.031339
      dxz     :     0.004379
      dyz     :     0.007447
      dx2y2   :     0.006678
      dxy     :     0.004929
  3 N s       :     3.393826  s :     3.393826
      pz      :     1.191805  p :     3.784385
      px      :     1.417607
      py      :     1.174973
      dz2     :     0.008129  d :     0.031445
      dxz     :     0.004708
      dyz     :     0.007560
      dx2y2   :     0.005882
      dxy     :     0.005166
  4 C s       :     3.624117  s :     3.624117
      pz      :     1.006652  p :     2.429574
      px      :     0.772011
      py      :     0.650911
      dz2     :     0.009843  d :     0.065214
      dxz     :     0.009382
      dyz     :     0.023671
      dx2y2   :     0.008492
      dxy     :     0.013826
  5 H s       :     0.923113  s :     0.923113
      pz      :     0.009380  p :     0.021888
      px      :     0.006430
      py      :     0.006078
  6 H s       :     0.937994  s :     0.937994
      pz      :     0.007450  p :     0.024340
      px      :     0.007369
      py      :     0.009521
  7 C s       :     3.229708  s :     3.229708
      pz      :     1.068861  p :     2.919909
      px      :     1.018419
      py      :     0.832628
      dz2     :     0.013558  d :     0.063407
      dxz     :     0.010321
      dyz     :     0.010338
      dx2y2   :     0.017071
      dxy     :     0.012119
  8 C s       :     3.216511  s :     3.216511
      pz      :     1.047768  p :     2.935118
      px      :     1.011869
      py      :     0.875481
      dz2     :     0.012389  d :     0.065091
      dxz     :     0.012112
      dyz     :     0.013423
      dx2y2   :     0.011917
      dxy     :     0.015251
  9 C s       :     3.003898  s :     3.003898
      pz      :     0.989898  p :     2.923615
      px      :     0.954703
      py      :     0.979014
      dz2     :     0.008953  d :     0.025153
      dxz     :     0.003542
      dyz     :     0.001129
      dx2y2   :     0.006694
      dxy     :     0.004835
 10 C s       :     2.973177  s :     2.973177
      pz      :     0.975292  p :     2.930568
      px      :     0.960731
      py      :     0.994545
      dz2     :     0.007013  d :     0.026631
      dxz     :     0.005902
      dyz     :     0.002608
      dx2y2   :     0.003102
      dxy     :     0.008005
 11 C s       :     2.968408  s :     2.968408
      pz      :     1.011490  p :     2.947902
      px      :     0.966761
      py      :     0.969651
      dz2     :     0.005422  d :     0.026593
      dxz     :     0.008893
      dyz     :     0.001217
      dx2y2   :     0.005027
      dxy     :     0.006034
 12 C s       :     2.941927  s :     2.941927
      pz      :     0.989918  p :     2.948618
      px      :     0.957528
      py      :     1.001173
      dz2     :     0.008988  d :     0.027426
      dxz     :     0.004189
      dyz     :     0.002749
      dx2y2   :     0.007149
      dxy     :     0.004350
 13 H s       :     0.964994  s :     0.964994
      pz      :     0.014516  p :     0.023947
      px      :     0.004121
      py      :     0.005310
 14 H s       :     0.969125  s :     0.969125
      pz      :     0.013440  p :     0.024789
      px      :     0.006158
      py      :     0.005192
 15 H s       :     0.959875  s :     0.959875
      pz      :     0.010863  p :     0.024366
      px      :     0.008797
      py      :     0.004706
 16 H s       :     0.968531  s :     0.968531
      pz      :     0.015592  p :     0.025490
      px      :     0.004386
      py      :     0.005512
 17 H s       :     0.925629  s :     0.925629
      pz      :     0.004969  p :     0.022704
      px      :     0.010384
      py      :     0.007351
 18 H s       :     0.948862  s :     0.948862
      pz      :     0.004824  p :     0.023924
      px      :     0.009655
      py      :     0.009445
 19 H s       :     0.950181  s :     0.950181
      pz      :     0.012613  p :     0.024678
      px      :     0.006987
      py      :     0.005078
 20 H s       :     0.940822  s :     0.940822
      pz      :     0.006218  p :     0.024589
      px      :     0.011725
      py      :     0.006646
 21 H s       :     0.956379  s :     0.956379
      pz      :     0.005268  p :     0.023586
      px      :     0.004117
      py      :     0.014201
 22 H s       :     0.947779  s :     0.947779
      pz      :     0.005168  p :     0.023541
      px      :     0.006199
      py      :     0.012174
 23 H s       :     0.952874  s :     0.952874
      pz      :     0.005010  p :     0.023728
      px      :     0.005406
      py      :     0.013313
 24 H s       :     0.961352  s :     0.961352
      pz      :     0.006481  p :     0.025855
      px      :     0.004884
      py      :     0.014489
 25 C s       :     2.951371  s :     2.951371
      pz      :     0.916926  p :     2.932697
      px      :     1.051566
      py      :     0.964205
      dz2     :     0.007408  d :     0.026752
      dxz     :     0.007319
      dyz     :     0.002511
      dx2y2   :     0.006709
      dxy     :     0.002805
 26 C s       :     2.943841  s :     2.943841
      pz      :     0.934735  p :     2.927411
      px      :     1.031080
      py      :     0.961597
      dz2     :     0.006876  d :     0.027558
      dxz     :     0.006024
      dyz     :     0.004891
      dx2y2   :     0.004291
      dxy     :     0.005475
 27 H s       :     0.972861  s :     0.972861
      pz      :     0.004724  p :     0.025700
      px      :     0.005422
      py      :     0.015554
 28 H s       :     0.959855  s :     0.959855
      pz      :     0.006131  p :     0.022816
      px      :     0.004472
      py      :     0.012212
 29 H s       :     0.933739  s :     0.933739
      pz      :     0.005335  p :     0.024907
      px      :     0.011829
      py      :     0.007744
 30 H s       :     0.945891  s :     0.945891
      pz      :     0.003804  p :     0.024418
      px      :     0.012196
      py      :     0.008418
 31 H s       :     0.944551  s :     0.944551
      pz      :     0.007072  p :     0.024000
      px      :     0.008818
      py      :     0.008110
 32 H s       :     0.954750  s :     0.954750
      pz      :     0.007311  p :     0.024901
      px      :     0.011112
      py      :     0.006478


                     *******************************
                     * LOEWDIN POPULATION ANALYSIS *
                     *******************************

----------------------
LOEWDIN ATOMIC CHARGES
----------------------
   0 C :   -0.050184
   1 C :   -0.043058
   2 N :    0.034828
   3 N :    0.034113
   4 C :   -0.247877
   5 H :    0.038620
   6 H :    0.025575
   7 C :    0.015029
   8 C :    0.008001
   9 C :   -0.051201
  10 C :   -0.047951
  11 C :   -0.048232
  12 C :   -0.041457
  13 H :    0.021074
  14 H :    0.018691
  15 H :    0.021679
  16 H :    0.013239
  17 H :    0.036101
  18 H :    0.028672
  19 H :    0.026986
  20 H :    0.029584
  21 H :    0.022800
  22 H :    0.026022
  23 H :    0.030370
  24 H :    0.027268
  25 C :   -0.042748
  26 C :   -0.044940
  27 H :    0.016602
  28 H :    0.027537
  29 H :    0.031376
  30 H :    0.027735
  31 H :    0.030787
  32 H :    0.024959

-------------------------------
LOEWDIN REDUCED ORBITAL CHARGES
-------------------------------
  0 C s       :     2.896819  s :     2.896819
      pz      :     0.978224  p :     3.049720
      px      :     1.054865
      py      :     1.016631
      dz2     :     0.022938  d :     0.103645
      dxz     :     0.015760
      dyz     :     0.030065
      dx2y2   :     0.015178
      dxy     :     0.019705
  1 C s       :     2.866377  s :     2.866377
      pz      :     0.975219  p :     3.062175
      px      :     1.034694
      py      :     1.052263
      dz2     :     0.031968  d :     0.114507
      dxz     :     0.021749
      dyz     :     0.024565
      dx2y2   :     0.019275
      dxy     :     0.016950
  2 N s       :     3.071749  s :     3.071749
      pz      :     1.249654  p :     3.819234
      px      :     1.378355
      py      :     1.191225
      dz2     :     0.018267  d :     0.074189
      dxz     :     0.010120
      dyz     :     0.020373
      dx2y2   :     0.014916
      dxy     :     0.010513
  3 N s       :     3.069416  s :     3.069416
      pz      :     1.237948  p :     3.822041
      px      :     1.375561
      py      :     1.208532
      dz2     :     0.018977  d :     0.074430
      dxz     :     0.010705
      dyz     :     0.020259
      dx2y2   :     0.013639
      dxy     :     0.010850
  4 C s       :     3.197846  s :     3.197846
      pz      :     1.210553  p :     2.908116
      px      :     0.868329
      py      :     0.829234
      dz2     :     0.016944  d :     0.141916
      dxz     :     0.015317
      dyz     :     0.054667
      dx2y2   :     0.023559
      dxy     :     0.031430
  5 H s       :     0.898314  s :     0.898314
      pz      :     0.026777  p :     0.063066
[...]
     46      -0.001031   0.000852   0.000408
     47      -0.004085   0.002167   0.001063
     48      -0.000023  -0.001841   0.002535
     49      -0.000024  -0.000945   0.001534
     50      -0.000072  -0.004434   0.006292
     51       0.003401   0.000131  -0.000442
     52       0.003196   0.000041  -0.000174
     53      -0.004260  -0.000101   0.000425
     54      -0.000940  -0.004568  -0.001809
     55       0.000526   0.003322   0.001378
     56      -0.001897  -0.004049  -0.001779
     57      -0.013869   0.000606   0.000192
     58      -0.021466   0.000943   0.000322
     59      -0.029847   0.001536   0.000529
     60      -0.000154   0.006824  -0.009427
     61       0.000036  -0.002563   0.003796
     62      -0.000020  -0.000418   0.000723
     63      -0.000096  -0.000322   0.000359
     64       0.003174   0.001418  -0.001339
     65       0.000789   0.000355  -0.000245
     66      -0.002775  -0.001597  -0.000690
     67      -0.008326  -0.003404  -0.001495
     68       0.002382   0.002133   0.000995
     69      -0.007925  -0.000331  -0.000188
     70      -0.026066   0.000477  -0.000056
     71       0.011112  -0.000096   0.000008
     72      -0.000001   0.000602  -0.000898
     73       0.000670  -0.003358   0.004393
     74       0.000122  -0.001526   0.002163
     75      -0.000211  -0.000045   0.000106
     76      -0.000338  -0.000042  -0.000010
     77       0.000168  -0.000019  -0.000017
     78       0.050973  -0.000012  -0.000029
     79       0.045144   0.000001  -0.000003
     80       0.063400   0.000112  -0.000050
     81      -0.000007   0.000109  -0.000182
     82       0.002540   0.001316  -0.001134
     83       0.000675   0.000598  -0.000551
     84      -0.069845   0.000983   0.000619
     85      -0.221126   0.001819   0.001094
     86       0.087990  -0.001041  -0.000529
     87       0.001997   0.000157  -0.000293
     88       0.002038   0.000159  -0.000240
     89      -0.002834  -0.000310   0.000596
     90      -0.284090  -0.000471  -0.000156
     91       0.180834   0.000205  -0.000032
     92      -0.158178  -0.000064  -0.000009
     93      -0.259315  -0.000358   0.000181
     94      -0.504641  -0.000515   0.000368
     95      -0.683208  -0.000550   0.000762
     96       0.000673   0.000277  -0.000798
     97      -0.000290  -0.000145   0.000332
     98      -0.000003   0.000041  -0.000041


-----------
IR SPECTRUM
-----------

 Mode   freq       eps      Int      T**2         TX        TY        TZ
       cm**-1   L/(mol*cm) km/mol    a.u.
----------------------------------------------------------------------------
  6:     11.91   0.000098    0.49  0.002566  (-0.040981  0.007433 -0.028835)
  7:     35.84   0.000154    0.78  0.001337  (-0.029210  0.003863 -0.021645)
  8:     99.82   0.001204    6.09  0.003765  ( 0.049927 -0.005575  0.035226)
  9:    150.69   0.000119    0.60  0.000247  ( 0.008665 -0.000043 -0.013093)
 10:    175.33   0.000032    0.16  0.000057  (-0.006230 -0.002753 -0.003195)
 11:    233.29   0.000044    0.22  0.000059  (-0.001961  0.006741 -0.003057)
 12:    249.77   0.000004    0.02  0.000005  ( 0.000392 -0.002102 -0.000648)
 13:    277.02   0.000329    1.66  0.000371  (-0.004959 -0.017714 -0.005676)
 14:    283.63   0.000008    0.04  0.000009  ( 0.001468 -0.001244  0.002362)
 15:    289.24   0.000163    0.82  0.000176  (-0.001820 -0.013013  0.001729)
 16:    301.79   0.000019    0.09  0.000019  ( 0.001269 -0.004090  0.000972)
 17:    314.33   0.000092    0.47  0.000091  ( 0.000361 -0.008293  0.004740)
 18:    341.08   0.000357    1.80  0.000327  ( 0.013268 -0.001486  0.012183)
 19:    344.95   0.000106    0.53  0.000096  (-0.001786 -0.002058  0.009397)
 20:    351.77   0.000413    2.09  0.000366  (-0.018408 -0.002456 -0.004597)
 21:    366.33   0.000071    0.36  0.000061  (-0.001218 -0.007442  0.001951)
 22:    374.07   0.000629    3.18  0.000525  ( 0.000759  0.022778 -0.002396)
 23:    415.36   0.000223    1.12  0.000167  (-0.004374 -0.012166  0.000308)
 24:    451.59   0.001123    5.67  0.000776  ( 0.022607 -0.002692  0.016052)
 25:    477.71   0.000240    1.21  0.000157  ( 0.008186 -0.000223 -0.009479)
 26:    480.53   0.000024    0.12  0.000016  ( 0.002969  0.002540  0.000793)
 27:    534.06   0.001350    6.82  0.000789  ( 0.005876  0.027404 -0.001817)
 28:    585.84   0.000211    1.07  0.000112  ( 0.004899 -0.000210 -0.009393)
 29:    658.17   0.003562   18.00  0.001689  ( 0.009087  0.040019 -0.002193)
 30:    676.16   0.000389    1.97  0.000180  ( 0.011379  0.001469  0.006936)
 31:    680.60   0.000872    4.41  0.000400  ( 0.015017 -0.006363  0.011578)
 32:    733.44   0.006934   35.04  0.002950  (-0.044389  0.006592 -0.030602)
 33:    847.23   0.000036    0.18  0.000013  ( 0.000942  0.002146 -0.002761)
 34:    858.48   0.000495    2.50  0.000180  ( 0.001658  0.013301 -0.000421)
 35:    867.58   0.000016    0.08  0.000006  (-0.000010  0.002192 -0.001052)
 36:    943.71   0.000168    0.85  0.000056  ( 0.006756  0.002766  0.001525)
 37:    948.57   0.000113    0.57  0.000037  (-0.004199  0.002221 -0.003807)
 38:    952.10   0.000292    1.47  0.000096  (-0.004391 -0.008132  0.003199)
 39:    952.71   0.000229    1.16  0.000075  (-0.005086 -0.000242  0.007017)
 40:    964.23   0.000047    0.24  0.000015  ( 0.001939  0.001297  0.003104)
 41:    964.61   0.000017    0.09  0.000006  ( 0.000824 -0.001920  0.001107)
 42:   1010.03   0.003012   15.22  0.000930  (-0.004797 -0.030069  0.001825)
 43:   1023.08   0.000271    1.37  0.000083  ( 0.005096  0.001086 -0.007453)
 44:   1046.38   0.000065    0.33  0.000019  ( 0.000326  0.004376  0.000144)
 45:   1050.16   0.000069    0.35  0.000021  ( 0.000540  0.000942 -0.004396)
 46:   1051.17   0.000082    0.41  0.000024  (-0.002925 -0.003160 -0.002399)
 47:   1051.51   0.000007    0.04  0.000002  (-0.000798 -0.000814 -0.000916)
 48:   1105.35   0.003361   16.99  0.000949  ( 0.017057 -0.005586 -0.025035)
 49:   1164.38   0.000846    4.27  0.000227  (-0.001348 -0.014832 -0.002193)
 50:   1226.87   0.000506    2.56  0.000129  ( 0.004030 -0.001333 -0.010520)
 51:   1263.56   0.002348   11.87  0.000580  ( 0.001141  0.023830  0.003270)
 52:   1274.32   0.004160   21.02  0.001019  ( 0.001817 -0.030218  0.010114)
 53:   1276.77   0.000963    4.87  0.000235  (-0.012996  0.001544 -0.008012)
 54:   1277.85   0.000964    4.87  0.000235  ( 0.012326 -0.001370  0.009037)
 55:   1285.63   0.028048  141.74  0.006808  (-0.017163 -0.080619  0.003748)
 56:   1359.21   0.000488    2.47  0.000112  ( 0.001825  0.010360  0.001182)
 57:   1389.44   0.000890    4.50  0.000200  (-0.006213  0.002852  0.012380)
 58:   1393.19   0.004093   20.68  0.000917  (-0.022083  0.004060 -0.020313)
 59:   1394.66   0.002152   10.87  0.000481  (-0.006422 -0.000346  0.020979)
 60:   1395.64   0.004376   22.12  0.000979  (-0.029467  0.003755 -0.009803)
 61:   1402.50   0.000887    4.48  0.000197  ( 0.007306  0.001083 -0.011953)
 62:   1415.63   0.006437   32.53  0.001419  (-0.006346  0.033057  0.016909)
 63:   1419.01   0.002632   13.30  0.000579  (-0.013115 -0.016849  0.011089)
 64:   1423.43   0.008641   43.67  0.001895  ( 0.023229  0.011317 -0.035027)
 65:   1446.48   0.000127    0.64  0.000028  (-0.001990  0.003983 -0.002771)
 66:   1447.45   0.000013    0.07  0.000003  (-0.001411 -0.000401 -0.000825)
 67:   1458.42   0.000411    2.08  0.000088  ( 0.000879  0.008738  0.003281)
 68:   1459.40   0.000158    0.80  0.000034  (-0.001083 -0.005029 -0.002690)
 69:   1465.95   0.010679   53.97  0.002273  ( 0.005641  0.047180  0.003951)
 70:   1467.20   0.001509    7.63  0.000321  ( 0.003580  0.017526  0.001042)
 71:   1469.74   0.002112   10.67  0.000448  ( 0.007080  0.019394 -0.004704)
 72:   1476.83   0.001620    8.19  0.000342  ( 0.002448 -0.016724  0.007528)
 73:   1479.89   0.000393    1.99  0.000083  ( 0.000441 -0.003618 -0.008346)
 74:   1483.54   0.000885    4.47  0.000186  (-0.011852 -0.000166 -0.006764)
 75:   1485.61   0.002658   13.43  0.000558  (-0.007932  0.022009  0.003327)
 76:   1497.72   0.000389    1.96  0.000081  (-0.005394 -0.005474  0.004684)
 77:   1504.52   0.000611    3.09  0.000127  (-0.000974  0.010838  0.002875)
 78:   1660.77   0.000142    0.72  0.000027  (-0.001558  0.002331  0.004329)
 79:   3063.14   0.003009   15.21  0.000307  ( 0.013941 -0.007493  0.007488)
 80:   3064.37   0.003868   19.55  0.000394  ( 0.011433  0.000781  0.016205)
 81:   3064.78   0.002883   14.57  0.000294  (-0.015361  0.005691  0.005016)
 82:   3069.62   0.003379   17.08  0.000344  (-0.001532  0.014270  0.011728)
 83:   3069.85   0.002776   14.03  0.000282  (-0.004622 -0.014467  0.007180)
 84:   3078.60   0.003486   17.62  0.000353  (-0.012714 -0.012505  0.005945)
 85:   3161.57   0.000325    1.64  0.000032  (-0.004627  0.000947 -0.003123)
 86:   3162.94   0.001227    6.20  0.000121  (-0.005369 -0.004751  0.008349)
 87:   3164.13   0.003738   18.89  0.000369  (-0.000938  0.015793  0.010878)
 88:   3165.64   0.004512   22.80  0.000445  ( 0.017901 -0.005816  0.009516)
 89:   3168.64   0.005245   26.50  0.000517  (-0.018975 -0.003405  0.012037)
 90:   3172.41   0.000268    1.35  0.000026  ( 0.004774  0.000953 -0.001625)
 91:   3173.45   0.007227   36.52  0.000711  (-0.003102  0.023304  0.012569)
 92:   3173.48   0.000975    4.92  0.000096  ( 0.005149  0.000964  0.008270)
 93:   3177.57   0.008942   45.19  0.000878  ( 0.000591 -0.027753  0.010375)
 94:   3187.38   0.000758    3.83  0.000074  ( 0.006756  0.005318  0.000553)
 95:   3191.37   0.001760    8.89  0.000172  (-0.002450 -0.011612  0.005588)
 96:   3204.98   0.001377    6.96  0.000134  ( 0.007600  0.006675  0.005634)
 97:   3298.44   0.000286    1.45  0.000027  ( 0.001407  0.004909 -0.001006)
 98:   3323.15   0.000128    0.64  0.000012  ( 0.001089 -0.002778 -0.001754)

* The epsilon (eps) is given for a Dirac delta lineshape.
** The dipole moment derivative (T) already includes vibrational overlap.

The first frequency considered to be a vibration is 6
The total number of vibrations considered is 93


--------------------------
THERMOCHEMISTRY AT 298.15K
--------------------------

Temperature         ... 298.15 K
Pressure            ... 1.00 atm
Total Mass          ... 180.29 AMU

Throughout the following assumptions are being made:
  (1) The electronic state is orbitally nondegenerate
  (2) There are no thermally accessible electronically excited states
  (3) Hindered rotations indicated by low frequency modes are not
      treated as such but are treated as vibrations and this may
      cause some error
  (4) All equations used are the standard statistical mechanics
      equations for an ideal gas
  (5) All vibrations are strictly harmonic

freq.      11.91  E(vib)   ...       0.58 
freq.      35.84  E(vib)   ...       0.54 
freq.      99.82  E(vib)   ...       0.46 
freq.     150.69  E(vib)   ...       0.40 
freq.     175.33  E(vib)   ...       0.38 
freq.     233.29  E(vib)   ...       0.32 
freq.     249.77  E(vib)   ...       0.31 
freq.     277.02  E(vib)   ...       0.28 
freq.     283.63  E(vib)   ...       0.28 
freq.     289.24  E(vib)   ...       0.27 
freq.     301.79  E(vib)   ...       0.26 
freq.     314.33  E(vib)   ...       0.25 
freq.     341.08  E(vib)   ...       0.23 
freq.     344.95  E(vib)   ...       0.23 
freq.     351.77  E(vib)   ...       0.23 
freq.     366.33  E(vib)   ...       0.22 
freq.     374.07  E(vib)   ...       0.21 
freq.     415.36  E(vib)   ...       0.18 
freq.     451.59  E(vib)   ...       0.16 
freq.     477.71  E(vib)   ...       0.15 
freq.     480.53  E(vib)   ...       0.15 
freq.     534.06  E(vib)   ...       0.13 
freq.     585.84  E(vib)   ...       0.11 
freq.     658.17  E(vib)   ...       0.08 
freq.     676.16  E(vib)   ...       0.08 
freq.     680.60  E(vib)   ...       0.08 
freq.     733.44  E(vib)   ...       0.06 
freq.     847.23  E(vib)   ...       0.04 
freq.     858.48  E(vib)   ...       0.04 
freq.     867.58  E(vib)   ...       0.04 
freq.     943.71  E(vib)   ...       0.03 
freq.     948.57  E(vib)   ...       0.03 
freq.     952.10  E(vib)   ...       0.03 
freq.     952.71  E(vib)   ...       0.03 
freq.     964.23  E(vib)   ...       0.03 
freq.     964.61  E(vib)   ...       0.03 
freq.    1010.03  E(vib)   ...       0.02 
freq.    1023.08  E(vib)   ...       0.02 
freq.    1046.38  E(vib)   ...       0.02 
freq.    1050.16  E(vib)   ...       0.02 
freq.    1051.17  E(vib)   ...       0.02 
freq.    1051.51  E(vib)   ...       0.02 
freq.    1105.35  E(vib)   ...       0.02 
freq.    1164.38  E(vib)   ...       0.01 
freq.    1226.87  E(vib)   ...       0.01 
freq.    1263.56  E(vib)   ...       0.01 
freq.    1274.32  E(vib)   ...       0.01 
freq.    1276.77  E(vib)   ...       0.01 
freq.    1277.85  E(vib)   ...       0.01 
freq.    1285.63  E(vib)   ...       0.01 
freq.    1359.21  E(vib)   ...       0.01 
freq.    1389.44  E(vib)   ...       0.00 
freq.    1393.19  E(vib)   ...       0.00 
freq.    1394.66  E(vib)   ...       0.00 
freq.    1395.64  E(vib)   ...       0.00 
freq.    1402.50  E(vib)   ...       0.00 
freq.    1415.63  E(vib)   ...       0.00 
freq.    1419.01  E(vib)   ...       0.00 
freq.    1423.43  E(vib)   ...       0.00 
freq.    1446.48  E(vib)   ...       0.00 
freq.    1447.45  E(vib)   ...       0.00 
freq.    1458.42  E(vib)   ...       0.00 
freq.    1459.40  E(vib)   ...       0.00 
freq.    1465.95  E(vib)   ...       0.00 
freq.    1467.20  E(vib)   ...       0.00 
freq.    1469.74  E(vib)   ...       0.00 
freq.    1476.83  E(vib)   ...       0.00 
freq.    1479.89  E(vib)   ...       0.00 
freq.    1483.54  E(vib)   ...       0.00 
freq.    1485.61  E(vib)   ...       0.00 
freq.    1497.72  E(vib)   ...       0.00 
freq.    1504.52  E(vib)   ...       0.00 
freq.    1660.77  E(vib)   ...       0.00 
freq.    3063.14  E(vib)   ...       0.00 
freq.    3064.37  E(vib)   ...       0.00 
freq.    3064.78  E(vib)   ...       0.00 
freq.    3069.62  E(vib)   ...       0.00 
freq.    3069.85  E(vib)   ...       0.00 
freq.    3078.60  E(vib)   ...       0.00 
freq.    3161.57  E(vib)   ...       0.00 
freq.    3162.94  E(vib)   ...       0.00 
freq.    3164.13  E(vib)   ...       0.00 
freq.    3165.64  E(vib)   ...       0.00 
freq.    3168.64  E(vib)   ...       0.00 
freq.    3172.41  E(vib)   ...       0.00 
freq.    3173.45  E(vib)   ...       0.00 
freq.    3173.48  E(vib)   ...       0.00 
freq.    3177.57  E(vib)   ...       0.00 
freq.    3187.38  E(vib)   ...       0.00 
freq.    3191.37  E(vib)   ...       0.00 
freq.    3204.98  E(vib)   ...       0.00 
freq.    3298.44  E(vib)   ...       0.00 
freq.    3323.15  E(vib)   ...       0.00 

------------
INNER ENERGY
------------

The inner energy is: U= E(el) + E(ZPE) + E(vib) + E(rot) + E(trans)
    E(el)   - is the total energy from the electronic structure calculation
              = E(kin-el) + E(nuc-el) + E(el-el) + E(nuc-nuc)
    E(ZPE)  - the the zero temperature vibrational energy from the frequency calculation
    E(vib)  - the the finite temperature correction to E(ZPE) due to population
              of excited vibrational states
    E(rot)  - is the rotational thermal energy
    E(trans)- is the translational thermal energy

Summary of contributions to the inner energy U:
Electronic energy                ...   -540.17610208 Eh
Zero point energy                ...      0.29805790 Eh     187.03 kcal/mol
Thermal vibrational correction   ...      0.01146451 Eh       7.19 kcal/mol
Thermal rotational correction    ...      0.00141627 Eh       0.89 kcal/mol
Thermal translational correction ...      0.00141627 Eh       0.89 kcal/mol
-----------------------------------------------------------------------
Total thermal energy                   -539.86374713 Eh


Summary of corrections to the electronic energy:
(perhaps to be used in another calculation)
Total thermal correction                  0.01429705 Eh       8.97 kcal/mol
Non-thermal (ZPE) correction              0.29805790 Eh     187.03 kcal/mol
-----------------------------------------------------------------------
Total correction                          0.31235495 Eh     196.01 kcal/mol


--------
ENTHALPY
--------

The enthalpy is H = U + kB*T
                kB is Boltzmann's constant
Total free energy                 ...   -539.86374713 Eh 
Thermal Enthalpy correction       ...      0.00094421 Eh       0.59 kcal/mol
-----------------------------------------------------------------------
Total Enthalpy                    ...   -539.86280292 Eh


Note: Only C1 symmetry has been detected, increase convergence thresholds 
      if your molecule has a higher symmetry. Symmetry factor of 1.0 is   
      used for the rotational entropy correction. 
 

Note: Rotational entropy computed according to Herzberg 
Infrared and Raman Spectra, Chapter V,1, Van Nostrand Reinhold, 1945 
Point Group:  C1, Symmetry Number:   1  
Rotational constants in cm-1:     0.055550     0.015125     0.014102 

Vibrational entropy computed according to the QRRHO of S. Grimme
Chem.Eur.J. 2012 18 9955


-------
ENTROPY
-------

The entropy contributions are T*S = T*(S(el)+S(vib)+S(rot)+S(trans))
     S(el)   - electronic entropy
     S(vib)  - vibrational entropy
     S(rot)  - rotational entropy
     S(trans)- translational entropy
The entropies will be listed as multiplied by the temperature to get
units of energy

Electronic entropy                ...      0.00000000 Eh      0.00 kcal/mol
Vibrational entropy               ...      0.01968430 Eh     12.35 kcal/mol
Rotational entropy                ...      0.01486586 Eh      9.33 kcal/mol
Translational entropy             ...      0.01970603 Eh     12.37 kcal/mol
-----------------------------------------------------------------------
Final entropy term                ...      0.05425619 Eh     34.05 kcal/mol

In case the symmetry of your molecule has not been determined correctly
or in case you have a reason to use a different symmetry number we print 
out the resulting rotational entropy values for sn=1,12 :
 --------------------------------------------------------
|  sn= 1 | S(rot)=       0.01486586 Eh      9.33 kcal/mol|
|  sn= 2 | S(rot)=       0.01421140 Eh      8.92 kcal/mol|
|  sn= 3 | S(rot)=       0.01382857 Eh      8.68 kcal/mol|
|  sn= 4 | S(rot)=       0.01355695 Eh      8.51 kcal/mol|
|  sn= 5 | S(rot)=       0.01334626 Eh      8.37 kcal/mol|
|  sn= 6 | S(rot)=       0.01317411 Eh      8.27 kcal/mol|
|  sn= 7 | S(rot)=       0.01302857 Eh      8.18 kcal/mol|
|  sn= 8 | S(rot)=       0.01290249 Eh      8.10 kcal/mol|
|  sn= 9 | S(rot)=       0.01279128 Eh      8.03 kcal/mol|
|  sn=10 | S(rot)=       0.01269180 Eh      7.96 kcal/mol|
|  sn=11 | S(rot)=       0.01260181 Eh      7.91 kcal/mol|
|  sn=12 | S(rot)=       0.01251966 Eh      7.86 kcal/mol|
 --------------------------------------------------------


-------------------
GIBBS FREE ENERGY
-------------------

The Gibbs free energy is G = H - T*S

Total enthalpy                    ...   -539.86280292 Eh 
Total entropy correction          ...     -0.05425619 Eh    -34.05 kcal/mol
-----------------------------------------------------------------------
Final Gibbs free energy         ...   -539.91705911 Eh

For completeness - the Gibbs free energy minus the electronic energy
G-E(el)                           ...      0.25904297 Eh    162.55 kcal/mol


Timings for individual modules:

Sum of individual times         ...     2412.984 sec (=  40.216 min)
GTO integral calculation        ...       19.650 sec (=   0.328 min)   0.8 %
SCF iterations                  ...     1658.819 sec (=  27.647 min)  68.7 %
SCF Gradient evaluation         ...      464.512 sec (=   7.742 min)  19.3 %
Geometry relaxation             ...        2.397 sec (=   0.040 min)   0.1 %
Analytical frequency calculation...      267.606 sec (=   4.460 min)  11.1 %
                             ****ORCA TERMINATED NORMALLY****
TOTAL RUN TIME: 0 days 0 hours 40 minutes 48 seconds 256 msec
