      -----------------------------------------------------------      
     |                   =====================                   |     
     |                           x T B                           |     
     |                   =====================                   |     
     |                         S. Grimme                         |     
     |          Mulliken Center for Theoretical Chemistry        |     
     |                    University of Bonn                     |     
      -----------------------------------------------------------      

   * xtb version 6.6.1 (8d0f1dd) compiled by 'conda@1efc2f54142f' on 2023-08-01

   xtb is free software: you can redistribute it and/or modify it under
   the terms of the GNU Lesser General Public License as published by
   the Free Software Foundation, either version 3 of the License, or
   (at your option) any later version.
   
   xtb is distributed in the hope that it will be useful,
   but WITHOUT ANY WARRANTY; without even the implied warranty of
   MERCHANTABILITY or FITNESS FOR A PARTICULAR PURPOSE.  See the
   GNU Lesser General Public License for more details.
   
   Cite this work as:
   * C. Bannwarth, E. Caldeweyher, S. Ehlert, A. Hansen, P. Pracht,
     J. Seibert, S. Spicher, S. Grimme, WIREs Comput. Mol. Sci., 2020, 11,
     e01493. DOI: 10.1002/wcms.1493
   
   for GFN2-xTB:
   * C. Bannwarth, S. Ehlert and S. Grimme., J. Chem. Theory Comput., 2019,
     15, 1652-1671. DOI: 10.1021/acs.jctc.8b01176
   for GFN1-xTB:
   * S. Grimme, C. Bannwarth, P. Shushkov, J. Chem. Theory Comput., 2017,
     13, 1989-2009. DOI: 10.1021/acs.jctc.7b00118
   for GFN0-xTB:
   * P. Pracht, E. Caldeweyher, S. Ehlert, S. Grimme, ChemRxiv, 2019, preprint.
     DOI: 10.26434/chemrxiv.8326202.v1
   for GFN-FF:
   * S. Spicher and S. Grimme, Angew. Chem. Int. Ed., 2020, 59, 15665-15673.
     DOI: 10.1002/anie.202004239
   
   for ALPB and GBSA implicit solvation:
   * S. Ehlert, M. Stahn, S. Spicher, S. Grimme, J. Chem. Theory Comput.,
     2021, 17, 4250-4261. DOI: 10.1021/acs.jctc.1c00471
   
   for DFT-D4:
   * E. Caldeweyher, C. Bannwarth and S. Grimme, J. Chem. Phys., 2017,
     147, 034112. DOI: 10.1063/1.4993215
   * E. Caldeweyher, S. Ehlert, A. Hansen, H. Neugebauer, S. Spicher,
     C. Bannwarth and S. Grimme, J. Chem. Phys., 2019, 150, 154122.
     DOI: 10.1063/1.5090222
   * E. Caldeweyher, J.-M. Mewes, S. Ehlert and S. Grimme, Phys. Chem. Chem. Phys.
     2020, 22, 8499-8512. DOI: 10.1039/D0CP00502A
   
   for sTDA-xTB:
   * S. Grimme and C. Bannwarth, J. Chem. Phys., 2016, 145, 054103.
     DOI: 10.1063/1.4959605
   
   in the mass-spec context:
   * V. Asgeirsson, C. Bauer and S. Grimme, Chem. Sci., 2017, 8, 4879.
     DOI: 10.1039/c7sc00601b
   * J. Koopman and S. Grimme, ACS Omega 2019, 4, 12, 15120-15133.
     DOI: 10.1021/acsomega.9b02011
   
   for metadynamics refer to:
   * S. Grimme, J. Chem. Theory Comput., 2019, 155, 2847-2862
     DOI: 10.1021/acs.jctc.9b00143
   
   for SPH calculations refer to:
   * S. Spicher and S. Grimme, J. Chem. Theory Comput., 2021, 17, 1701-1714
     DOI: 10.1021/acs.jctc.0c01306
   
   with help from (in alphabetical order)
   P. Atkinson, C. Bannwarth, F. Bohle, G. Brandenburg, E. Caldeweyher
   M. Checinski, S. Dohm, S. Ehlert, S. Ehrlich, I. Gerasimov, C. Hölzer
   A. Katbashev, J. Koopman, C. Lavigne, S. Lehtola, F. März, M. Müller,
   F. Musil, H. Neugebauer, J. Pisarek, C. Plett, P. Pracht, F. Pultar,
   J. Seibert, P. Shushkov, S. Spicher, M. Stahn, M. Steiner, T. Strunk,
   J. Stückrath, T. Rose, and J. Unsleber
   
 * started run on 2024/02/12 at 14:13:51.617     

           -------------------------------------------------
          |                Calculation Setup                |
           -------------------------------------------------

          program call               : xtb struc.xyz --gfn2 --ceasefiles --opt
          hostname                   : node021
          coordinate file            : struc.xyz
          omp threads                :                     1

   ID    Z sym.   atoms
    1    6 C      1, 2, 5-7, 11-14, 27, 28
    2    7 N      3, 4
    3    1 H      8-10, 15-26, 29-34

           -------------------------------------------------
          |                 G F N 2 - x T B                 |
           -------------------------------------------------

        Reference                      10.1021/acs.jctc.8b01176
      * Hamiltonian:
        H0-scaling (s, p, d)           1.850000    2.230000    2.230000
        zeta-weighting                 0.500000
      * Dispersion:
        s8                             2.700000
        a1                             0.520000
        a2                             5.000000
        s9                             5.000000
      * Repulsion:
        kExp                           1.500000    1.000000
        rExp                           1.000000
      * Coulomb:
        alpha                          2.000000
        third order                    shell-resolved
        anisotropic                    true
        a3                             3.000000
        a5                             4.000000
        cn-shift                       1.200000
        cn-exp                         4.000000
        max-rad                        5.000000


          ...................................................
          :                      SETUP                      :
          :.................................................:
          :  # basis functions                  73          :
          :  # atomic orbitals                  73          :
          :  # shells                           47          :
          :  # electrons                        74          :
          :  max. iterations                   250          :
          :  Hamiltonian                  GFN2-xTB          :
          :  restarted?                      false          :
          :  GBSA solvation                  false          :
          :  PC potential                    false          :
          :  electronic temp.          300.0000000     K    :
          :  accuracy                    1.0000000          :
          :  -> integral cutoff          0.2500000E+02      :
          :  -> integral neglect         0.1000000E-07      :
          :  -> SCF convergence          0.1000000E-05 Eh   :
          :  -> wf. convergence          0.1000000E-03 e    :
          :  Broyden damping             0.4000000          :
          ...................................................

 iter      E             dE          RMSdq      gap      omega  full diag
   1    -40.2425502 -0.402426E+02  0.263E+00    5.45       0.0  T
   2    -40.3464234 -0.103873E+00  0.183E+00    4.54       1.0  T
   3    -40.3534994 -0.707600E-02  0.103E+00    4.67       1.0  T
   4    -40.3536038 -0.104457E-03  0.278E-01    4.42       1.0  T
   5    -40.3544702 -0.866398E-03  0.712E-02    4.45       1.0  T
   6    -40.3545124 -0.421335E-04  0.385E-02    4.45       1.0  T
   7    -40.3545159 -0.350503E-05  0.184E-02    4.46       1.0  T
   8    -40.3545213 -0.545882E-05  0.200E-03    4.46       8.6  T
   9    -40.3545214 -0.239540E-07  0.104E-03    4.46      16.5  T
  10    -40.3545214 -0.123005E-07  0.500E-04    4.46      34.3  T
  11    -40.3545214 -0.308691E-08  0.773E-05    4.46     221.8  T

   *** convergence criteria satisfied after 11 iterations ***

         #    Occupation            Energy/Eh            Energy/eV
      -------------------------------------------------------------
         1        2.0000           -0.8784451             -23.9037
       ...           ...                  ...                  ...
        31        2.0000           -0.5869235             -15.9710
        32        2.0000           -0.5816089             -15.8264
        33        2.0000           -0.5796970             -15.7744
        34        2.0000           -0.5768769             -15.6976
        35        2.0000           -0.5755976             -15.6628
        36        2.0000           -0.5702695             -15.5178
        37        2.0000           -0.5620495             -15.2941 (HOMO)
        38                         -0.3981850             -10.8352 (LUMO)
        39                         -0.3593587              -9.7786
        40                         -0.2003977              -5.4531
        41                         -0.1449648              -3.9447
        42                         -0.0827169              -2.2508
       ...                                ...                  ...
        73                          0.4805683              13.0769
      -------------------------------------------------------------
                  HL-Gap            0.1638645 Eh            4.4590 eV
             Fermi-level           -0.4801172 Eh          -13.0647 eV

 SCC (total)                   0 d,  0 h,  0 min,  0.286 sec
 SCC setup                      ...        0 min,  0.000 sec (  0.160%)
 Dispersion                     ...        0 min,  0.000 sec (  0.164%)
 classical contributions        ...        0 min,  0.000 sec (  0.046%)
 integral evaluation            ...        0 min,  0.006 sec (  1.998%)
 iterations                     ...        0 min,  0.262 sec ( 91.651%)
 molecular gradient             ...        0 min,  0.017 sec (  5.864%)
 printout                       ...        0 min,  0.000 sec (  0.109%)

         :::::::::::::::::::::::::::::::::::::::::::::::::::::
         ::                     SUMMARY                     ::
         :::::::::::::::::::::::::::::::::::::::::::::::::::::
         :: total energy             -39.742803058483 Eh    ::
         :: gradient norm              0.081954352168 Eh/a0 ::
         :: HOMO-LUMO gap              4.458979513500 eV    ::
         ::.................................................::
         :: SCC energy               -40.354521376731 Eh    ::
         :: -> isotropic ES            0.076577707508 Eh    ::
         :: -> anisotropic ES         -0.005690564947 Eh    ::
         :: -> anisotropic XC          0.026258918891 Eh    ::
         :: -> dispersion             -0.027772950572 Eh    ::
         :: repulsion energy           0.611486441129 Eh    ::
         :: add. restraining           0.000000000000 Eh    ::
         :: total charge               1.000000000000 e     ::
         :::::::::::::::::::::::::::::::::::::::::::::::::::::

      ----------------------------------------------------------- 
     |                   =====================                   |
     |                        A N C O P T                        |
     |                   =====================                   |
     |               Approximate Normal Coordinate               |
     |                Rational Function Optimizer                |
      ----------------------------------------------------------- 

Optimization log is written to '/dev/null'

          ...................................................
          :                      SETUP                      :
          :.................................................:
          :   optimization level             crude          :
          :   max. optcycles                   200          :
          :   ANC micro-cycles                  20          :
          :   degrees of freedom                96          :
          :.................................................:
          :   RF solver                   davidson          :
          :   write xtbopt.log                true          :
          :   linear?                        false          :
          :   energy convergence         0.5000000E-03 Eh   :
          :   grad. convergence          0.1000000E-01 Eh/α :
          :   maxmium RF displ.          1.0000000          :
          :   Hlow (freq-cutoff)         0.5000000E-02      :
          :   Hmax (freq-cutoff)         5.0000000          :
          :   S6 in model hess.         20.0000000          :
          ...................................................

generating ANC from model Hessian ...
Using Lindh-Hessian (1995)
 Shifting diagonal of input Hessian by    4.2976420242718336E-003
 Lowest  eigenvalues of input Hessian
    0.000000    0.000000    0.000000    0.000000    0.000000    0.000000
    0.005000    0.005284    0.006724    0.008795    0.009327    0.010218
    0.011493    0.013857    0.013939    0.014263    0.014438    0.014523
 Highest eigenvalues
    1.323673    1.691569    1.975780    2.021274    2.142471    2.240821


........................................................................
.............................. CYCLE    1 ..............................
........................................................................

 iter      E             dE          RMSdq      gap      omega  full diag
   1    -40.3545214 -0.403545E+02  0.208E-05    4.46       0.0  T
   2    -40.3545214 -0.621725E-11  0.771E-06    4.46    2223.2  T
   3    -40.3545214 -0.447642E-12  0.445E-06    4.46    3849.6  T
     SCC iter.                  ...        0 min,  0.006 sec
     gradient                   ...        0 min,  0.017 sec
 * total energy  :   -39.7428031 Eh     change       -0.1299583E-10 Eh
   gradient norm :     0.0819543 Eh/α   predicted     0.0000000E+00 (-100.00%)
   displ. norm   :     0.5469951 α      lambda       -0.3286157E-01
   maximum displ.:     0.1870017 α      in ANC's #37, #16, #35, ...

........................................................................
.............................. CYCLE    2 ..............................
........................................................................

 iter      E             dE          RMSdq      gap      omega  full diag
   1    -40.3703234 -0.403703E+02  0.446E-01    4.66       0.0  T
   2    -40.3704153 -0.919227E-04  0.259E-01    4.67       1.0  T
   3    -40.3704044  0.109048E-04  0.319E-02    4.67       1.0  T
   4    -40.3704237 -0.192724E-04  0.126E-02    4.67       1.4  T
   5    -40.3704277 -0.401081E-05  0.458E-03    4.67       3.7  T
   6    -40.3704277 -0.537003E-07  0.113E-03    4.67      15.2  T
   7    -40.3704277 -0.676173E-08  0.422E-04    4.67      40.7  T
   8    -40.3704277 -0.124807E-08  0.207E-04    4.67      82.9  T
     SCC iter.                  ...        0 min,  0.014 sec
     gradient                   ...        0 min,  0.017 sec
 * total energy  :   -39.7647978 Eh     change       -0.2199473E-01 Eh
   gradient norm :     0.0353363 Eh/α   predicted    -0.2134749E-01 (  -2.94%)
   displ. norm   :     0.4594807 α      lambda       -0.9078591E-02
   maximum displ.:     0.2428509 α      in ANC's #16, #7, #14, ...

........................................................................
.............................. CYCLE    3 ..............................
........................................................................

 iter      E             dE          RMSdq      gap      omega  full diag
   1    -40.3734238 -0.403734E+02  0.242E-01    4.72       0.0  T
   2    -40.3734403 -0.164640E-04  0.142E-01    4.73       1.0  T
   3    -40.3734265  0.138305E-04  0.247E-02    4.73       1.0  T
   4    -40.3734451 -0.185956E-04  0.566E-03    4.73       3.0  T
   5    -40.3734454 -0.392866E-06  0.255E-03    4.73       6.7  T
   6    -40.3734455 -0.176431E-07  0.637E-04    4.73      26.9  T
   7    -40.3734455 -0.456608E-08  0.245E-04    4.73      69.9  T
     SCC iter.                  ...        0 min,  0.012 sec
     gradient                   ...        0 min,  0.017 sec
 * total energy  :   -39.7709610 Eh     change       -0.6163249E-02 Eh
   gradient norm :     0.0200531 Eh/α   predicted    -0.5497648E-02 ( -10.80%)
   displ. norm   :     0.4556386 α      lambda       -0.3538194E-02
   maximum displ.:     0.2039147 α      in ANC's #16, #3, #14, ...

........................................................................
.............................. CYCLE    4 ..............................
........................................................................

 iter      E             dE          RMSdq      gap      omega  full diag
   1    -40.3764620 -0.403765E+02  0.137E-01    4.76       0.0  T
   2    -40.3764686 -0.665503E-05  0.802E-02    4.76       1.0  T
   3    -40.3764567  0.119231E-04  0.224E-02    4.76       1.0  T
   4    -40.3764714 -0.146387E-04  0.309E-03    4.76       5.5  T
   5    -40.3764715 -0.928059E-07  0.140E-03    4.76      12.2  T
   6    -40.3764715 -0.316507E-08  0.436E-04    4.76      39.4  T
   7    -40.3764715 -0.255234E-08  0.162E-04    4.76     105.6  T
     SCC iter.                  ...        0 min,  0.013 sec
     gradient                   ...        0 min,  0.017 sec
 * total energy  :   -39.7735736 Eh     change       -0.2612528E-02 Eh
   gradient norm :     0.0150338 Eh/α   predicted    -0.2136432E-02 ( -18.22%)
   displ. norm   :     0.4648846 α      lambda       -0.2218831E-02
   maximum displ.:     0.2248919 α      in ANC's #3, #14, #7, ...

........................................................................
.............................. CYCLE    5 ..............................
........................................................................

 iter      E             dE          RMSdq      gap      omega  full diag
   1    -40.3795279 -0.403795E+02  0.115E-01    4.79       0.0  T
   2    -40.3795338 -0.591771E-05  0.674E-02    4.79       1.0  T
   3    -40.3795240  0.984619E-05  0.210E-02    4.79       1.0  T
   4    -40.3795361 -0.121210E-04  0.295E-03    4.79       5.8  T
   5    -40.3795362 -0.129555E-06  0.127E-03    4.79      13.5  T
   6    -40.3795362 -0.956533E-09  0.460E-04    4.79      37.3  T
   7    -40.3795362 -0.280273E-08  0.148E-04    4.79     115.8  T
     SCC iter.                  ...        0 min,  0.088 sec
     gradient                   ...        0 min,  0.017 sec
 * total energy  :   -39.7751787 Eh     change       -0.1605139E-02 Eh
   gradient norm :     0.0141334 Eh/α   predicted    -0.1349192E-02 ( -15.95%)
   displ. norm   :     0.3828352 α      lambda       -0.1305541E-02
   maximum displ.:     0.2162241 α      in ANC's #3, #14, #7, ...

........................................................................
.............................. CYCLE    6 ..............................
........................................................................

 iter      E             dE          RMSdq      gap      omega  full diag
   1    -40.3840443 -0.403840E+02  0.885E-02    4.81       0.0  T
   2    -40.3840484 -0.407292E-05  0.514E-02    4.81       1.0  T
   3    -40.3840443  0.413098E-05  0.141E-02    4.81       1.2  T
   4    -40.3840494 -0.514334E-05  0.256E-03    4.81       6.7  T
   5    -40.3840495 -0.130907E-06  0.993E-04    4.81      17.3  T
   6    -40.3840495  0.431129E-09  0.381E-04    4.81      45.0  T
     SCC iter.                  ...        0 min,  0.011 sec
     gradient                   ...        0 min,  0.017 sec
 * total energy  :   -39.7761272 Eh     change       -0.9484789E-03 Eh
   gradient norm :     0.0116381 Eh/α   predicted    -0.7484427E-03 ( -21.09%)
   displ. norm   :     0.3715098 α      lambda       -0.9008676E-03
   maximum displ.:     0.1982622 α      in ANC's #3, #14, #9, ...

........................................................................
.............................. CYCLE    7 ..............................
........................................................................

 iter      E             dE          RMSdq      gap      omega  full diag
   1    -40.3852601 -0.403853E+02  0.738E-02    4.82       0.0  T
   2    -40.3852621 -0.199745E-05  0.433E-02    4.82       1.0  T
   3    -40.3852609  0.123584E-05  0.818E-03    4.82       2.1  T
   4    -40.3852626 -0.168228E-05  0.201E-03    4.82       8.5  T
   5    -40.3852626 -0.651415E-07  0.931E-04    4.82      18.4  T
   6    -40.3852626 -0.218920E-08  0.233E-04    4.82      73.6  T
     SCC iter.                  ...        0 min,  0.011 sec
     gradient                   ...        0 min,  0.017 sec
 * total energy  :   -39.7767669 Eh     change       -0.6397429E-03 Eh
   gradient norm :     0.0132067 Eh/α   predicted    -0.5126036E-03 ( -19.87%)
   displ. norm   :     0.3549683 α      lambda       -0.9804307E-03
   maximum displ.:     0.1964622 α      in ANC's #3, #4, #14, ...

........................................................................
.............................. CYCLE    8 ..............................
........................................................................

 iter      E             dE          RMSdq      gap      omega  full diag
   1    -40.3909394 -0.403909E+02  0.816E-02    4.83       0.0  T
   2    -40.3909491 -0.975543E-05  0.467E-02    4.83       1.0  T
   3    -40.3909480  0.116366E-05  0.126E-02    4.83       1.4  T
   4    -40.3909497 -0.172667E-05  0.385E-03    4.83       4.5  T
   5    -40.3909501 -0.370606E-06  0.143E-03    4.83      12.0  T
   6    -40.3909501 -0.479758E-09  0.435E-04    4.83      39.4  T
   7    -40.3909501 -0.305080E-08  0.128E-04    4.83     134.3  T
     SCC iter.                  ...        0 min,  0.012 sec
     gradient                   ...        0 min,  0.018 sec
 * total energy  :   -39.7772285 Eh     change       -0.4615899E-03 Eh
   gradient norm :     0.0114345 Eh/α   predicted    -0.5519903E-03 (  19.58%)
   displ. norm   :     0.3341442 α      lambda       -0.6921116E-03
   maximum displ.:     0.1534903 α      in ANC's #9, #4, #2, ...

........................................................................
.............................. CYCLE    9 ..............................
........................................................................

 iter      E             dE          RMSdq      gap      omega  full diag
   1    -40.3857485 -0.403857E+02  0.735E-02    4.83       0.0  T
   2    -40.3857553 -0.674763E-05  0.425E-02    4.83       1.0  T
   3    -40.3857549  0.393301E-06  0.961E-03    4.83       1.8  T
   4    -40.3857557 -0.837358E-06  0.363E-03    4.83       4.7  T
   5    -40.3857560 -0.280946E-06  0.146E-03    4.83      11.8  T
   6    -40.3857560 -0.379156E-08  0.306E-04    4.83      56.0  T
   7    -40.3857560 -0.615628E-09  0.816E-05    4.83     210.2  T
     SCC iter.                  ...        0 min,  0.012 sec
     gradient                   ...        0 min,  0.018 sec
 * total energy  :   -39.7775531 Eh     change       -0.3245673E-03 Eh
   gradient norm :     0.0118777 Eh/α   predicted    -0.3846949E-03 (  18.53%)
   displ. norm   :     0.1023206 α      lambda       -0.3164582E-03
   maximum displ.:     0.0462328 α      in ANC's #3, #5, #7, ...

........................................................................
.............................. CYCLE   10 ..............................
........................................................................

 iter      E             dE          RMSdq      gap      omega  full diag
   1    -40.3888275 -0.403888E+02  0.403E-02    4.83       0.0  T
   2    -40.3888293 -0.177323E-05  0.229E-02    4.83       1.0  T
   3    -40.3888291  0.186066E-06  0.522E-03    4.83       3.3  T
   4    -40.3888294 -0.330587E-06  0.168E-03    4.83      10.2  T
   5    -40.3888295 -0.649422E-07  0.684E-04    4.83      25.1  T
   6    -40.3888295 -0.882970E-09  0.271E-04    4.83      63.3  T
     SCC iter.                  ...        0 min,  0.011 sec
     gradient                   ...        0 min,  0.017 sec
 * total energy  :   -39.7777549 Eh     change       -0.2018133E-03 Eh
   gradient norm :     0.0064535 Eh/α   predicted    -0.1598868E-03 ( -20.77%)
   displ. norm   :     0.2445088 α      lambda       -0.4012502E-03
   maximum displ.:     0.1171050 α      in ANC's #2, #4, #14, ...

   *** GEOMETRY OPTIMIZATION CONVERGED AFTER 10 ITERATIONS ***

------------------------------------------------------------------------
 total energy gain   :        -0.0349518 Eh      -21.9326 kcal/mol
 total RMSD          :         0.4621379 a0        0.2446 Å
 total power (kW/mol):        -9.1766048 (step) -194.9817 (real)
------------------------------------------------------------------------

 ANCopt (total)                0 d,  0 h,  0 min,  0.471 sec
 optimizer setup                ...        0 min,  0.000 sec (  0.028%)
 model hessian                  ...        0 min,  0.037 sec (  7.814%)
 ANC generation                 ...        0 min,  0.002 sec (  0.331%)
 coordinate transformation      ...        0 min,  0.000 sec (  0.048%)
 single point calculation       ...        0 min,  0.426 sec ( 90.607%)
 optimization log               ...        0 min,  0.002 sec (  0.383%)
 hessian update                 ...        0 min,  0.000 sec (  0.048%)
 rational function              ...        0 min,  0.002 sec (  0.397%)

================
 final structure:
================
34
 xtb: 6.6.1 (8d0f1dd)
C           -2.16007792482772        0.66464970285349        1.08304930372138
C            2.28653012088028       -0.37555650012204       -0.87185256630758
N           -1.08934494550177       -0.00487834172145        0.32503825386260
N            0.84941924107681       -0.47278127974420       -0.55469291205174
C           -1.28598721054873       -0.96759458114349       -0.61861922883927
C           -0.07691347014696       -1.26081758687623       -1.16734114302310
C            0.21029735647782        0.27465865410373        0.34027923340205
H           -2.24399081823796       -1.38952681891514       -0.83936455045274
H            0.15931779009428       -1.95590803601950       -1.94269049561421
H            0.67442640667579        0.98825928372471        0.98822268263254
C           -1.55342409371258        1.64362898645699        2.08459276717641
C            3.07036089893312       -0.18857167928868        0.42513346848613
C            2.46268951204417        0.83176888475749       -1.79640838788135
C           -3.02530384147011        1.41651340066452        0.06828466274206
H           -0.97569258973002        2.42316298724354        1.58557443630514
H            2.84788067334755       -0.98425821693679        1.13201400811894
H            2.19306307326426        1.75646779507694       -1.29263235925754
H           -2.43320850791088        2.14680809569081       -0.47773566925173
H           -2.36074984713931        2.13501121371655        2.62303603764813
H            2.86783403866416        0.77198385942139        0.88987604876548
H            3.50068002263959        0.90434288344937       -2.10958236028569
H           -3.82035483572887        1.94221763128314        0.58881078176560
H           -0.93012205862138        1.12689213003242        2.81581691813408
H            4.13445669649930       -0.21934611518996        0.20713128656185
H            1.84837789819101        0.72710966878013       -2.68838705593910
H           -3.48307630242978        0.73456770431816       -0.64421454142233
C           -2.97699595771803       -0.39228857695452        1.82291422140434
C            2.74005332672498       -1.65189050706260       -1.57562859393334
H           -3.80222131537654        0.08862653648636        2.33434821315392
H            2.30055357252598       -1.74122078127541       -2.56574923211645
H           -3.39081421602887       -1.13333982057991        1.14771908807345
H            2.49611411650906       -2.53280342444278       -0.98813396092225
H            3.81873743499799       -1.61838955945770       -1.70381573742881
H           -2.37135283981666       -0.90435902412948        2.56527487327314

 Bond Distances (Angstroems)
 ---------------------------
C1-N3=1.4729         C1-C11=1.5263        C1-C14=1.5309        C1-C27=1.5270        C2-N4=1.4749         C2-C12=1.5269        
C2-C13=1.5308        C2-C28=1.5264        N3-C1=1.4729         N3-C5=1.3623         N3-C7=1.3295         N4-C2=1.4749         
N4-C6=1.3618         N4-C7=1.3297         C5-N3=1.3623         C5-C6=1.3598         C5-H8=1.0698         C6-N4=1.3618         
C6-C5=1.3598         C6-H9=1.0678         C7-N3=1.3295         C7-N4=1.3297         C7-H10=1.0698        H8-C5=1.0698         
H9-C6=1.0678         H10-C7=1.0698        C11-C1=1.5263        C11-H15=1.0911       C11-H19=1.0877       C11-H23=1.0910       
C12-C2=1.5269        C12-H16=1.0873       C12-H20=1.0861       C12-H24=1.0866       C13-C2=1.5308        C13-H17=1.0870       
C13-H21=1.0866       C13-H25=1.0881       C14-C1=1.5309        C14-H18=1.0872       C14-H22=1.0860       C14-H26=1.0873       
H15-C11=1.0911       H16-C12=1.0873       H17-C13=1.0870       H18-C14=1.0872       H19-C11=1.0877       H20-C12=1.0861       
H21-C13=1.0866       H22-C14=1.0860       H23-C11=1.0910       H24-C12=1.0866       H25-C13=1.0881       H26-C14=1.0873       
C27-C1=1.5270        C27-H29=1.0834       C27-H31=1.0846       C27-H34=1.0863       C28-C2=1.5264        C28-H30=1.0870       
C28-H32=1.0866       C28-H33=1.0868       H29-C27=1.0834       H30-C28=1.0870       H31-C27=1.0846       H32-C28=1.0866       
H33-C28=1.0868       H34-C27=1.0863       
 C  H  Rav=1.0845 sigma=0.0065  Rmin=1.0678  Rmax=1.0911    21
 C  C  Rav=1.5040 sigma=0.0589  Rmin=1.3598  Rmax=1.5309     7
 N  C  Rav=1.3885 sigma=0.0618  Rmin=1.3295  Rmax=1.4749     6

 selected bond angles (degree)
 --------------------
C11-C1-N3=109.90               C14-C1-N3=107.04               C14-C1-C11=110.16              C27-C1-N3=108.88               
C27-C1-C11=109.79              C27-C1-C14=111.02              C12-C2-N4=109.00               C13-C2-N4=107.10               
C13-C2-C12=110.94              C28-C2-N4=109.48               C28-C2-C12=109.97              C28-C2-C13=110.29              
C5-N3-C1=124.94                C7-N3-C1=127.53                C7-N3-C5=107.32                C6-N4-C2=127.17                
C7-N4-C2=125.17                C7-N4-C6=107.53                C6-C5-N3=107.67                H8-C5-N3=123.43                
H8-C5-C6=128.90                C5-C6-N4=107.37                H9-C6-N4=123.57                H9-C6-C5=129.06                
N4-C7-N3=110.12                H10-C7-N3=124.84               H10-C7-N4=125.03               

 selected dihedral angles (degree)
 ---------------------------------
C5-N3-C1-C11=177.85           C5-N3-C1-C14=297.47           C5-N3-C1-C27= 57.56           C7-N3-C1-C11=351.92           
C7-N3-C1-C14=111.54           C7-N3-C1-C27=231.63           C6-N4-C2-C12=216.52           C6-N4-C2-C13= 96.43           
C6-N4-C2-C28=336.85           C7-N4-C2-C12= 41.22           C7-N4-C2-C13=281.13           C7-N4-C2-C28=161.55           
C6-C5-N3-C1=175.17            C6-C5-N3-C7=  0.09            H8-C5-N3-C1=354.58            H8-C5-N3-C7=179.50            
C5-C6-N4-C2=184.05            C5-C6-N4-C7=  0.00            H9-C6-N4-C2=  3.26            H9-C6-N4-C7=179.24            
N4-C6-C5-N3=359.93            N4-C6-C5-H8=180.57            H9-C6-C5-N3=180.77            H9-C6-C5-H8=  1.41            
N4-C7-N3-C1=185.01            N4-C7-N3-C5=359.92            H10-C7-N3-C1=  5.75           H10-C7-N3-C5=180.67           
N3-C7-N4-C2=176.11            N3-C7-N4-C6=  0.04            H10-C7-N4-C2=355.36           H10-C7-N4-C6=179.29           
           -------------------------------------------------
          |                Final Singlepoint                |
           -------------------------------------------------

          ...................................................
          :                      SETUP                      :
          :.................................................:
          :  # basis functions                  73          :
          :  # atomic orbitals                  73          :
          :  # shells                           47          :
          :  # electrons                        74          :
          :  max. iterations                   250          :
          :  Hamiltonian                  GFN2-xTB          :
          :  restarted?                      false          :
          :  GBSA solvation                  false          :
          :  PC potential                    false          :
          :  electronic temp.          300.0000000     K    :
          :  accuracy                    1.0000000          :
          :  -> integral cutoff          0.2500000E+02      :
          :  -> integral neglect         0.1000000E-07      :
          :  -> SCF convergence          0.1000000E-05 Eh   :
          :  -> wf. convergence          0.1000000E-03 e    :
          :  Broyden damping             0.4000000          :
          ...................................................

 iter      E             dE          RMSdq      gap      omega  full diag
   1    -40.3888295 -0.403888E+02  0.629E-05    4.83       0.0  T
   2    -40.3888295 -0.531273E-10  0.385E-05    4.83     445.0  T
   3    -40.3888295 -0.303331E-10  0.184E-05    4.83     933.6  T

   *** convergence criteria satisfied after 3 iterations ***

         #    Occupation            Energy/Eh            Energy/eV
      -------------------------------------------------------------
         1        2.0000           -0.8782607             -23.8987
       ...           ...                  ...                  ...
        31        2.0000           -0.5904644             -16.0674
        32        2.0000           -0.5897037             -16.0467
        33        2.0000           -0.5815159             -15.8239
        34        2.0000           -0.5784523             -15.7405
        35        2.0000           -0.5778167             -15.7232
        36        2.0000           -0.5737221             -15.6118
        37        2.0000           -0.5702664             -15.5177 (HOMO)
        38                         -0.3926778             -10.6853 (LUMO)
        39                         -0.3566791              -9.7057
        40                         -0.1956453              -5.3238
        41                         -0.1470623              -4.0018
        42                         -0.0735658              -2.0018
       ...                                ...                  ...
        73                          0.4754080              12.9365
      -------------------------------------------------------------
                  HL-Gap            0.1775887 Eh            4.8324 eV
             Fermi-level           -0.4814721 Eh          -13.1015 eV

 SCC (total)                   0 d,  0 h,  0 min,  0.029 sec
 SCC setup                      ...        0 min,  0.000 sec (  0.921%)
 Dispersion                     ...        0 min,  0.000 sec (  0.935%)
 classical contributions        ...        0 min,  0.000 sec (  0.372%)
 integral evaluation            ...        0 min,  0.005 sec ( 18.512%)
 iterations                     ...        0 min,  0.006 sec ( 20.809%)
 molecular gradient             ...        0 min,  0.017 sec ( 57.694%)
 printout                       ...        0 min,  0.000 sec (  0.695%)

         :::::::::::::::::::::::::::::::::::::::::::::::::::::
         ::                     SUMMARY                     ::
         :::::::::::::::::::::::::::::::::::::::::::::::::::::
         :: total energy             -39.777754900840 Eh    ::
         :: gradient norm              0.006454596781 Eh/a0 ::
         :: HOMO-LUMO gap              4.832433958419 eV    ::
         ::.................................................::
         :: SCC energy               -40.388829478736 Eh    ::
         :: -> isotropic ES            0.076453864972 Eh    ::
         :: -> anisotropic ES         -0.005904320686 Eh    ::
         :: -> anisotropic XC          0.025696924646 Eh    ::
         :: -> dispersion             -0.027892566171 Eh    ::
         :: repulsion energy           0.610798796356 Eh    ::
         :: add. restraining           0.000000000000 Eh    ::
         :: total charge               1.000000000000 e     ::
         :::::::::::::::::::::::::::::::::::::::::::::::::::::

           -------------------------------------------------
          |                Property Printout                |
           -------------------------------------------------

    * Orbital Energies and Occupations

         #    Occupation            Energy/Eh            Energy/eV
      -------------------------------------------------------------
         1        2.0000           -0.8782607             -23.8987
       ...           ...                  ...                  ...
        25        2.0000           -0.6011222             -16.3574
        26        2.0000           -0.5995682             -16.3151
        27        2.0000           -0.5985377             -16.2870
        28        2.0000           -0.5964056             -16.2290
        29        2.0000           -0.5936956             -16.1553
        30        2.0000           -0.5910540             -16.0834
        31        2.0000           -0.5904644             -16.0674
        32        2.0000           -0.5897037             -16.0467
        33        2.0000           -0.5815159             -15.8239
        34        2.0000           -0.5784523             -15.7405
        35        2.0000           -0.5778167             -15.7232
        36        2.0000           -0.5737221             -15.6118
        37        2.0000           -0.5702664             -15.5177 (HOMO)
        38                         -0.3926778             -10.6853 (LUMO)
        39                         -0.3566791              -9.7057
        40                         -0.1956453              -5.3238
        41                         -0.1470623              -4.0018
        42                         -0.0735658              -2.0018
        43                         -0.0600987              -1.6354
        44                         -0.0579268              -1.5763
        45                         -0.0556269              -1.5137
        46                         -0.0440127              -1.1976
        47                         -0.0363964              -0.9904
        48                         -0.0307617              -0.8371
       ...                                ...                  ...
        73                          0.4754080              12.9365
      -------------------------------------------------------------
                  HL-Gap            0.1775887 Eh            4.8324 eV
             Fermi-level           -0.4814721 Eh          -13.1015 eV

     #   Z          covCN         q      C6AA      α(0)
     1   6 C        3.837     0.075    19.302     6.250
     2   6 C        3.837     0.075    19.307     6.251
     3   7 N        2.868     0.048    20.407     6.709
     4   7 N        2.871     0.046    20.427     6.713
     5   6 C        3.084    -0.005    28.061     8.684
     6   6 C        3.076    -0.007    28.106     8.692
     7   6 C        3.116     0.051    26.692     8.463
     8   1 H        0.927     0.098     1.803     2.100
     9   1 H        0.927     0.103     1.755     2.071
    10   1 H        0.927     0.109     1.701     2.040
    11   6 C        3.759    -0.132    23.092     6.851
    12   6 C        3.759    -0.131    23.071     6.848
    13   6 C        3.760    -0.127    22.990     6.835
    14   6 C        3.760    -0.128    23.001     6.837
    15   1 H        0.924     0.055     2.257     2.349
    16   1 H        0.925     0.060     2.202     2.321
    17   1 H        0.925     0.055     2.264     2.353
    18   1 H        0.925     0.056     2.241     2.341
    19   1 H        0.925     0.082     1.958     2.188
    20   1 H        0.925     0.055     2.259     2.350
    21   1 H        0.925     0.081     1.971     2.196
    22   1 H        0.925     0.080     1.983     2.202
    23   1 H        0.924     0.059     2.217     2.328
    24   1 H        0.925     0.081     1.970     2.195
    25   1 H        0.925     0.058     2.218     2.329
    26   1 H        0.925     0.061     2.190     2.314
    27   6 C        3.760    -0.129    23.029     6.841
    28   6 C        3.760    -0.131    23.062     6.846
    29   1 H        0.925     0.079     1.985     2.203
    30   1 H        0.925     0.062     2.176     2.307
    31   1 H        0.925     0.060     2.194     2.317
    32   1 H        0.925     0.062     2.180     2.309
    33   1 H        0.925     0.079     1.990     2.206
    34   1 H        0.925     0.060     2.197     2.318

 Mol. C6AA /au·bohr⁶  :       8558.731791
 Mol. C8AA /au·bohr⁸  :     188318.961510
 Mol. α(0) /au        :        140.156642


molecular dipole:
                 x           y           z       tot (Debye)
 q only:       -0.091      -0.096      -0.081
   full:       -0.089      -0.087      -0.076       0.371
molecular quadrupole (traceless):
                xx          xy          yy          xz          yz          zz
 q only:       13.607      -3.851      -8.152      -9.256       5.718      -5.455
  q+dip:       13.315      -3.194      -7.934      -8.780       6.403      -5.381
   full:       12.611      -3.336      -7.539      -8.476       5.548      -5.072

           -------------------------------------------------
          |                Geometry Summary                 |
           -------------------------------------------------

      molecular mass/u    :      181.2982571
   center of mass at/Å    :       -0.0332662      -0.0191081      -0.0223259
  moments of inertia/u·Å² :        0.3017898E+03   0.1122313E+04   0.1201327E+04
rotational constants/cm⁻¹ :        0.5585886E-01   0.1502043E-01   0.1403251E-01

 * 34 selected distances

     #   Z          #   Z                                           value/Å
     1   6 C        3   7 N                                       1.4728605
     2   6 C        4   7 N                                       1.4749003
     3   7 N        5   6 C                                       1.3623438
     4   7 N        6   6 C                                       1.3617752
     5   6 C        6   6 C                                       1.3597555
     3   7 N        7   6 C                                       1.3294524
     4   7 N        7   6 C                                       1.3297062
     5   6 C        8   1 H                                       1.0698254
     6   6 C        9   1 H                                       1.0677653 (min)
     7   6 C       10   1 H                                       1.0698002
     1   6 C       11   6 C                                       1.5262762
     2   6 C       12   6 C                                       1.5269339
     2   6 C       13   6 C                                       1.5308398
     1   6 C       14   6 C                                       1.5309026 (max)
    11   6 C       15   1 H                                       1.0910850
    12   6 C       16   1 H                                       1.0873338
    13   6 C       17   1 H                                       1.0869945
    14   6 C       18   1 H                                       1.0872192
    11   6 C       19   1 H                                       1.0877282
    12   6 C       20   1 H                                       1.0861261
    13   6 C       21   1 H                                       1.0866322
    14   6 C       22   1 H                                       1.0860104
    11   6 C       23   1 H                                       1.0909681
    12   6 C       24   1 H                                       1.0866334
    13   6 C       25   1 H                                       1.0880986
    14   6 C       26   1 H                                       1.0873182
     1   6 C       27   6 C                                       1.5270475
     2   6 C       28   6 C                                       1.5264380
    27   6 C       29   1 H                                       1.0834395
    28   6 C       30   1 H                                       1.0869586
    27   6 C       31   1 H                                       1.0845696
    28   6 C       32   1 H                                       1.0865837
    28   6 C       33   1 H                                       1.0867906
    27   6 C       34   1 H                                       1.0863330

 * 3 distinct bonds (by element types)

   Z      Z             #   av. dist./Å        max./Å        min./Å
   1 H    6 C          21     1.0844864     1.0910850     1.0677653
   6 C    6 C           7     1.5040277     1.5309026     1.3597555
   6 C    7 N           6     1.3885064     1.4749003     1.3294524


optimized geometry written to: xtbopt.xyz


           -------------------------------------------------
          | TOTAL ENERGY              -39.777754900840 Eh   |
          | GRADIENT NORM               0.006454596781 Eh/α |
          | HOMO-LUMO GAP               4.832433958419 eV   |
           -------------------------------------------------

------------------------------------------------------------------------
 * finished run on 2024/02/12 at 14:13:52.429     
------------------------------------------------------------------------
 total:
 * wall-time:     0 d,  0 h,  0 min,  0.812 sec
 *  cpu-time:     0 d,  0 h,  0 min,  0.492 sec
 * ratio c/w:     0.606 speedup
 SCF:
 * wall-time:     0 d,  0 h,  0 min,  0.286 sec
 *  cpu-time:     0 d,  0 h,  0 min,  0.046 sec
 * ratio c/w:     0.162 speedup
 ANC optimizer:
 * wall-time:     0 d,  0 h,  0 min,  0.503 sec
 *  cpu-time:     0 d,  0 h,  0 min,  0.424 sec
 * ratio c/w:     0.842 speedup

