41
	Energy:     112.2101539
N         -2.04896       -0.68012        0.44231
C         -1.02226       -1.58676       -0.01198
N          0.06185       -0.75776       -0.51554
C         -0.36746        0.59080       -0.35489
C         -1.60944        0.62904        0.20734
C         -3.30536       -1.06340        1.02182
C          1.31373       -1.27942       -1.06776
C         -4.07233       -2.13995        0.46792
C         -3.82697       -0.38469        2.17149
C          2.38853       -0.42705       -1.53065
C          1.53751       -2.70836       -1.17389
H          0.12942        1.49876       -0.61451
H         -2.17059        1.53067        0.41670
C         -5.06419       -0.77208        2.70885
C         -5.78877       -1.81794        2.15755
C         -5.29659       -2.49765        1.05363
C          3.56982       -0.99145       -2.04681
C          3.74185       -2.35731       -2.13046
C          2.74203       -3.20415       -1.70161
C         -3.69894       -2.92237       -0.76971
C         -3.11226        0.71076        2.92746
H         -5.46470       -0.26875        3.58134
H         -6.73799       -2.10595        2.59109
H         -5.88776       -3.30550        0.63784
C          2.37471        1.07809       -1.51500
H          2.91903       -4.26991       -1.78577
C          0.54783       -3.77237       -0.75164
H          4.38308       -0.36624       -2.39636
H          4.66113       -2.76422       -2.53274
H         -2.08488        0.91762        2.59187
H         -3.00772        0.40490        3.99039
H         -3.70704        1.64761        2.88584
H         -2.80127       -2.57111       -1.29804
H         -4.52264       -2.83969       -1.51056
H         -3.56350       -3.99340       -0.50920
H          0.92299       -4.80361       -0.92650
H         -0.38753       -3.68069       -1.34178
H          0.34745       -3.70016        0.33744
H          3.31397        1.52368       -1.90774
H          2.28316        1.44328       -0.47125
H          1.57045        1.45226       -2.18092
