
                                 *****************
                                 * O   R   C   A *
                                 *****************

                                            #,                                       
                                            ###                                      
                                            ####                                     
                                            #####                                    
                                            ######                                   
                                           ########,                                 
                                     ,,################,,,,,                         
                               ,,#################################,,                 
                          ,,##########################################,,             
                       ,#########################################, ''#####,          
                    ,#############################################,,   '####,        
                  ,##################################################,,,,####,       
                ,###########''''           ''''###############################       
              ,#####''   ,,,,##########,,,,          '''####'''          '####       
            ,##' ,,,,###########################,,,                        '##       
           ' ,,###''''                  '''############,,,                           
         ,,##''                                '''############,,,,        ,,,,,,###''
      ,#''                                            '''#######################'''  
     '                                                          ''''####''''         
             ,#######,   #######,   ,#######,      ##                                
            ,#'     '#,  ##    ##  ,#'     '#,    #''#        ######   ,####,        
            ##       ##  ##   ,#'  ##            #'  '#       #        #'  '#        
            ##       ##  #######   ##           ,######,      #####,   #    #        
            '#,     ,#'  ##    ##  '#,     ,#' ,#      #,         ##   #,  ,#        
             '#######'   ##     ##  '#######'  #'      '#     #####' # '####'        



                  #######################################################
                  #                        -***-                        #
                  #          Department of theory and spectroscopy      #
                  #    Directorship and core code : Frank Neese         #
                  #        Max Planck Institute fuer Kohlenforschung    #
                  #                Kaiser Wilhelm Platz 1               #
                  #                 D-45470 Muelheim/Ruhr               #
                  #                      Germany                        #
                  #                                                     #
                  #                  All rights reserved                #
                  #                        -***-                        #
                  #######################################################


                         Program Version 5.0.4 -  RELEASE  -


 With contributions from (in alphabetic order):
   Daniel Aravena         : Magnetic Suceptibility
   Michael Atanasov       : Ab Initio Ligand Field Theory (pilot matlab implementation)
   Alexander A. Auer      : GIAO ZORA, VPT2 properties, NMR spectrum
   Ute Becker             : Parallelization
   Giovanni Bistoni       : ED, misc. LED, open-shell LED, HFLD
   Martin Brehm           : Molecular dynamics
   Dmytro Bykov           : SCF Hessian
   Vijay G. Chilkuri      : MRCI spin determinant printing, contributions to CSF-ICE
   Dipayan Datta          : RHF DLPNO-CCSD density
   Achintya Kumar Dutta   : EOM-CC, STEOM-CC
   Dmitry Ganyushin       : Spin-Orbit,Spin-Spin,Magnetic field MRCI
   Miquel Garcia          : C-PCM and meta-GGA Hessian, CC/C-PCM, Gaussian charge scheme
   Yang Guo               : DLPNO-NEVPT2, F12-NEVPT2, CIM, IAO-localization
   Andreas Hansen         : Spin unrestricted coupled pair/coupled cluster methods
   Benjamin Helmich-Paris : MC-RPA, TRAH-SCF, COSX integrals
   Lee Huntington         : MR-EOM, pCC
   Robert Izsak           : Overlap fitted RIJCOSX, COSX-SCS-MP3, EOM
   Marcus Kettner         : VPT2
   Christian Kollmar      : KDIIS, OOCD, Brueckner-CCSD(T), CCSD density, CASPT2, CASPT2-K
   Simone Kossmann        : Meta GGA functionals, TD-DFT gradient, OOMP2, MP2 Hessian
   Martin Krupicka        : Initial AUTO-CI
   Lucas Lang             : DCDCAS
   Marvin Lechner         : AUTO-CI (C++ implementation), FIC-MRCC
   Dagmar Lenk            : GEPOL surface, SMD
   Dimitrios Liakos       : Extrapolation schemes; Compound Job, initial MDCI parallelization
   Dimitrios Manganas     : Further ROCIS development; embedding schemes
   Dimitrios Pantazis     : SARC Basis sets
   Anastasios Papadopoulos: AUTO-CI, single reference methods and gradients
   Taras Petrenko         : DFT Hessian,TD-DFT gradient, ASA, ECA, R-Raman, ABS, FL, XAS/XES, NRVS
   Peter Pinski           : DLPNO-MP2, DLPNO-MP2 Gradient
   Christoph Reimann      : Effective Core Potentials
   Marius Retegan         : Local ZFS, SOC
   Christoph Riplinger    : Optimizer, TS searches, QM/MM, DLPNO-CCSD(T), (RO)-DLPNO pert. Triples
   Tobias Risthaus        : Range-separated hybrids, TD-DFT gradient, RPA, STAB
   Michael Roemelt        : Original ROCIS implementation
   Masaaki Saitow         : Open-shell DLPNO-CCSD energy and density
   Barbara Sandhoefer     : DKH picture change effects
   Avijit Sen             : IP-ROCIS
   Kantharuban Sivalingam : CASSCF convergence, NEVPT2, FIC-MRCI
   Bernardo de Souza      : ESD, SOC TD-DFT
   Georgi Stoychev        : AutoAux, RI-MP2 NMR, DLPNO-MP2 response
   Willem Van den Heuvel  : Paramagnetic NMR
   Boris Wezisla          : Elementary symmetry handling
   Frank Wennmohs         : Technical directorship


 We gratefully acknowledge several colleagues who have allowed us to
 interface, adapt or use parts of their codes:
   Stefan Grimme, W. Hujo, H. Kruse, P. Pracht,  : VdW corrections, initial TS optimization,
                  C. Bannwarth, S. Ehlert          DFT functionals, gCP, sTDA/sTD-DF
   Ed Valeev, F. Pavosevic, A. Kumar             : LibInt (2-el integral package), F12 methods
   Garnet Chan, S. Sharma, J. Yang, R. Olivares  : DMRG
   Ulf Ekstrom                                   : XCFun DFT Library
   Mihaly Kallay                                 : mrcc  (arbitrary order and MRCC methods)
   Jiri Pittner, Ondrej Demel                    : Mk-CCSD
   Frank Weinhold                                : gennbo (NPA and NBO analysis)
   Christopher J. Cramer and Donald G. Truhlar   : smd solvation model
   Lars Goerigk                                  : TD-DFT with DH, B97 family of functionals
   V. Asgeirsson, H. Jonsson                     : NEB implementation
   FAccTs GmbH                                   : IRC, NEB, NEB-TS, DLPNO-Multilevel, CI-OPT
                                                   MM, QMMM, 2- and 3-layer-ONIOM, Crystal-QMMM,
                                                   LR-CPCM, SF, NACMEs, symmetry and pop. for TD-DFT,
                                                   nearIR, NL-DFT gradient (VV10), updates on ESD,
                                                   ML-optimized integration grids
   S Lehtola, MJT Oliveira, MAL Marques          : LibXC Library
   Liviu Ungur et al                             : ANISO software


 Your calculation uses the libint2 library for the computation of 2-el integrals
 For citations please refer to: http://libint.valeyev.net

 Your ORCA version has been built with support for libXC version: 5.1.0
 For citations please refer to: https://tddft.org/programs/libxc/

 This ORCA versions uses:
   CBLAS   interface :  Fast vector & matrix operations
   LAPACKE interface :  Fast linear algebra routines
   SCALAPACK package :  Parallel linear algebra routines
   Shared memory     :  Shared parallel matrices
   BLAS/LAPACK       :  OpenBLAS 0.3.15  USE64BITINT DYNAMIC_ARCH NO_AFFINITY SkylakeX SINGLE_THREADED
        Core in use  :  SkylakeX
   Copyright (c) 2011-2014, The OpenBLAS Project




***************************************
The coordinates will be read from file: 7_prot.xyz
***************************************


Your calculation utilizes the atom-pairwise dispersion correction
based on tight binding partial charges (D4)
Cite in your paper:
E.Caldeweyher, C.Bannwarth, S.Grimme, J.Chem.Phys., (2017), 147, 034112.
E.Caldeweyher, S.Ehlert, A.Hansen, H.Neugebauer, S.Grimme, J.Chem.Phys., (2018), in progress.
   

XCFun DFT library Copyright 2009-2010 Ulf Ekstrom and contributors.
See http://admol.org/xcfun for more information.
This is free software; see the source code for copying conditions.
There is ABSOLUTELY NO WARRANTY; not even for MERCHANTABILITY or FITNESS FOR A PARTICULAR PURPOSE.
For details see the documentation.
Scientific users of this library should cite U. Ekstrom, L. Visscher, R. Bast, A. J. Thorvaldsen and K. Ruud;
J.Chem.Theor.Comp. 2010, DOI: 10.1021/ct100117s
XCFun Version 0.99 

================================================================================

----- Orbital basis set information -----
Your calculation utilizes the basis: def2-TZVP
   F. Weigend and R. Ahlrichs, Phys. Chem. Chem. Phys. 7, 3297 (2005).

----- AuxJ basis set information -----
Your calculation utilizes the auxiliary basis: def2/J
   F. Weigend, Phys. Chem. Chem. Phys. 8, 1057 (2006).

================================================================================
                                        WARNINGS
                       Please study these warnings very carefully!
================================================================================


WARNING: Geometry Optimization
  ===> : Switching off AutoStart
         For restart on a previous wavefunction, please use MOREAD

INFO   : the flag for use of the SHARK integral package has been found!

================================================================================
                                       INPUT FILE
================================================================================
NAME = 7_prot.inp
|  1> # ORCA 5.0.4 - /users/bwb16179/postgrad/2024_06/pKa_Reviewer_Comments/Gas_Z=1/7_prot.inp # write input file
|  2> # Basic Mode
|  3> #
|  4> ! Opt Freq wB97X Def2-TZVP D4 SlowConv TightSCF Defgrid2 Def2/J RIJCOSX 
|  5> 
|  6> %PAL NPROCS 4 END
|  7> 
|  8> %maxcore 4500
|  9> 
| 10> %geom
| 11> Maxiter 150
| 12> END
| 13> 
| 14> * xyzfile 1 1 7_prot.xyz
| 15> 
| 16>                          ****END OF INPUT****
================================================================================

                       *****************************
                       * Geometry Optimization Run *
                       *****************************

Geometry optimization settings:
Update method            Update   .... BFGS
Choice of coordinates    CoordSys .... Z-matrix Internals
Initial Hessian          InHess   .... Almoef's Model

Convergence Tolerances:
Energy Change            TolE     ....  5.0000e-06 Eh
Max. Gradient            TolMAXG  ....  3.0000e-04 Eh/bohr
RMS Gradient             TolRMSG  ....  1.0000e-04 Eh/bohr
Max. Displacement        TolMAXD  ....  4.0000e-03 bohr
RMS Displacement         TolRMSD  ....  2.0000e-03 bohr
Strict Convergence                ....  False
------------------------------------------------------------------------------
                        ORCA OPTIMIZATION COORDINATE SETUP
------------------------------------------------------------------------------

The optimization will be done in new redundant internal coordinates
Making redundant internal coordinates   ...  (new redundants) done
Evaluating the initial hessian          ...  (Almloef) done
Evaluating the coordinates              ...  done
Calculating the B-matrix                .... done
Calculating the G-matrix                .... done
Diagonalizing the G-matrix              .... done
Small eigenvalue found = 5.519e-03
Small eigenvalue found = 1.102e-02
The first mode is                       ....   75
The number of degrees of freedom        ....   84

    -----------------------------------------------------------------
                    Redundant Internal Coordinates


    -----------------------------------------------------------------
         Definition                    Initial Value    Approx d2E/dq
    -----------------------------------------------------------------
      1. B(C   1,C   0)                  1.3605         0.696204   
      2. B(H   2,C   0)                  1.0880         0.362753   
      3. B(H   3,C   1)                  1.0880         0.362753   
      4. B(C   5,C   4)                  1.3930         0.617951   
      5. B(C   6,C   4)                  1.3932         0.617600   
      6. B(C   7,C   5)                  1.3928         0.618487   
      7. B(H   8,C   5)                  1.0936         0.355368   
      8. B(C   9,C   6)                  1.3923         0.619446   
      9. B(H  10,C   6)                  1.0935         0.355478   
     10. B(C  11,C   9)                  1.3947         0.614055   
     11. B(C  11,C   7)                  1.3941         0.615354   
     12. B(H  12,C   7)                  1.0924         0.356879   
     13. B(H  13,C   9)                  1.0925         0.356748   
     14. B(H  14,C  11)                  1.0927         0.356606   
     15. B(C  16,C  15)                  1.3930         0.617953   
     16. B(C  17,C  15)                  1.3932         0.617600   
     17. B(C  18,C  16)                  1.3928         0.618487   
     18. B(H  19,C  16)                  1.0936         0.355368   
     19. B(C  20,C  17)                  1.3923         0.619446   
     20. B(H  21,C  17)                  1.0935         0.355479   
     21. B(C  22,C  20)                  1.3947         0.614054   
     22. B(C  22,C  18)                  1.3941         0.615355   
     23. B(H  23,C  18)                  1.0924         0.356879   
     24. B(H  24,C  20)                  1.0925         0.356748   
     25. B(H  25,C  22)                  1.0927         0.356606   
     26. B(H  27,C  26)                  1.0897         0.360508   
     27. B(N  28,C  26)                  1.3333         0.689158   
     28. B(N  28,C   4)                  1.4407         0.464464   
     29. B(N  28,C   0)                  1.3806         0.579208   
     30. B(N  29,C  15)                  1.4407         0.464462   
     31. B(N  29,C   1)                  1.3806         0.579208   
     32. B(N  29,C  26)                  1.3333         0.689158   
     33. A(C   1,C   0,N  28)          107.0181         0.434954   
     34. A(C   1,C   0,H   2)          131.1393         0.360376   
     35. A(H   2,C   0,N  28)          121.8369         0.347165   
     36. A(C   0,C   1,N  29)          107.0181         0.434954   
     37. A(H   3,C   1,N  29)          121.8369         0.347165   
     38. A(C   0,C   1,H   3)          131.1393         0.360376   
     39. A(C   5,C   4,N  28)          119.2842         0.409329   
     40. A(C   5,C   4,C   6)          121.7796         0.433505   
     41. A(C   6,C   4,N  28)          118.9362         0.409288   
     42. A(C   4,C   5,H   8)          120.6040         0.351923   
     43. A(C   4,C   5,C   7)          118.8103         0.433617   
     44. A(C   7,C   5,H   8)          120.5741         0.351975   
     45. A(C   4,C   6,H  10)          120.5488         0.351908   
     46. A(C   9,C   6,H  10)          120.6853         0.352085   
     47. A(C   4,C   6,C   9)          118.7592         0.433693   
     48. A(C  11,C   7,H  12)          120.2427         0.351925   
     49. A(C   5,C   7,H  12)          119.5914         0.352227   
     50. A(C   5,C   7,C  11)          120.1607         0.433289   
     51. A(C   6,C   9,H  13)          119.5942         0.352298   
     52. A(C   6,C   9,C  11)          120.2161         0.433245   
     53. A(C  11,C   9,H  13)          120.1865         0.351777   
     54. A(C   7,C  11,C   9)          120.2679         0.432729   
     55. A(C   9,C  11,H  14)          119.8963         0.351753   
     56. A(C   7,C  11,H  14)          119.8357         0.351879   
     57. A(C  17,C  15,N  29)          118.9361         0.409288   
     58. A(C  16,C  15,N  29)          119.2842         0.409329   
     59. A(C  16,C  15,C  17)          121.7796         0.433505   
     60. A(C  18,C  16,H  19)          120.5741         0.351975   
     61. A(C  15,C  16,H  19)          120.6040         0.351923   
     62. A(C  15,C  16,C  18)          118.8103         0.433617   
     63. A(C  20,C  17,H  21)          120.6854         0.352085   
     64. A(C  15,C  17,H  21)          120.5488         0.351908   
     65. A(C  15,C  17,C  20)          118.7592         0.433693   
     66. A(C  22,C  18,H  23)          120.2427         0.351925   
     67. A(C  16,C  18,H  23)          119.5914         0.352227   
     68. A(C  16,C  18,C  22)          120.1607         0.433289   
     69. A(C  17,C  20,H  24)          119.5942         0.352298   
     70. A(C  17,C  20,C  22)          120.2161         0.433245   
     71. A(C  22,C  20,H  24)          120.1865         0.351777   
     72. A(C  18,C  22,C  20)          120.2679         0.432729   
     73. A(C  20,C  22,H  25)          119.8963         0.351753   
     74. A(C  18,C  22,H  25)          119.8357         0.351879   
     75. A(N  28,C  26,N  29)          108.8337         0.445054   
     76. A(H  27,C  26,N  29)          125.5831         0.357146   
     77. A(H  27,C  26,N  28)          125.5831         0.357146   
     78. A(C   4,N  28,C  26)          125.3737         0.414633   
     79. A(C   0,N  28,C  26)          108.5650         0.431319   
     80. A(C   0,N  28,C   4)          126.0605         0.402072   
     81. A(C  15,N  29,C  26)          125.3737         0.414633   
     82. A(C   1,N  29,C  26)          108.5650         0.431319   
     83. A(C   1,N  29,C  15)          126.0605         0.402071   
     84. D(H   3,C   1,C   0,N  28)   -179.0401         0.034106   
     85. D(H   3,C   1,C   0,H   2)      1.8332         0.034106   
     86. D(N  29,C   1,C   0,H   2)   -179.0400         0.034106   
     87. D(N  29,C   1,C   0,N  28)      0.0866         0.034106   
     88. D(C   7,C   5,C   4,C   6)     -0.6390         0.026413   
     89. D(C   7,C   5,C   4,N  28)    179.3645         0.026413   
     90. D(H   8,C   5,C   4,N  28)     -1.8647         0.026413   
     91. D(H   8,C   5,C   4,C   6)    178.1318         0.026413   
     92. D(H  10,C   6,C   4,C   5)    179.0261         0.026381   
     93. D(H  10,C   6,C   4,N  28)     -0.9774         0.026381   
     94. D(C   9,C   6,C   4,N  28)    179.9539         0.026381   
     95. D(C   9,C   6,C   4,C   5)     -0.0426         0.026381   
     96. D(H  12,C   7,C   5,C   4)    179.9671         0.026462   
     97. D(C  11,C   7,C   5,H   8)   -177.9794         0.026462   
     98. D(C  11,C   7,C   5,C   4)      0.7917         0.026462   
     99. D(H  12,C   7,C   5,H   8)      1.1959         0.026462   
    100. D(H  13,C   9,C   6,H  10)      0.8610         0.026549   
    101. D(C  11,C   9,C   6,C   4)      0.5741         0.026549   
    102. D(C  11,C   9,C   6,H  10)   -178.4933         0.026549   
    103. D(H  13,C   9,C   6,C   4)    179.9284         0.026549   
    104. D(H  14,C  11,C   9,H  13)      0.3422         0.026062   
    105. D(C   7,C  11,C   9,H  13)   -179.7710         0.026062   
    106. D(C   7,C  11,C   9,C   6)     -0.4205         0.026062   
    107. D(H  14,C  11,C   7,H  12)      0.4419         0.026179   
    108. D(H  14,C  11,C   7,C   5)    179.6119         0.026179   
    109. D(H  14,C  11,C   9,C   6)    179.6927         0.026062   
    110. D(C   9,C  11,C   7,H  12)   -179.4450         0.026179   
    111. D(C   9,C  11,C   7,C   5)     -0.2750         0.026179   
    112. D(C  18,C  16,C  15,C  17)     -0.6389         0.026414   
    113. D(C  18,C  16,C  15,N  29)    179.3645         0.026414   
    114. D(H  19,C  16,C  15,C  17)    178.1318         0.026414   
    115. D(H  19,C  16,C  15,N  29)     -1.8648         0.026414   
    116. D(H  21,C  17,C  15,N  29)     -0.9773         0.026382   
    117. D(H  21,C  17,C  15,C  16)    179.0261         0.026382   
    118. D(C  20,C  17,C  15,N  29)    179.9539         0.026382   
    119. D(C  20,C  17,C  15,C  16)     -0.0427         0.026382   
    120. D(H  23,C  18,C  16,H  19)      1.1960         0.026462   
    121. D(H  23,C  18,C  16,C  15)    179.9671         0.026462   
    122. D(C  22,C  18,C  16,H  19)   -177.9794         0.026462   
    123. D(C  22,C  18,C  16,C  15)      0.7917         0.026462   
    124. D(H  24,C  20,C  17,H  21)      0.8611         0.026549   
    125. D(H  24,C  20,C  17,C  15)    179.9286         0.026549   
    126. D(C  22,C  20,C  17,H  21)   -178.4934         0.026549   
    127. D(C  22,C  20,C  17,C  15)      0.5741         0.026549   
    128. D(H  25,C  22,C  20,H  24)      0.3421         0.026062   
    129. D(H  25,C  22,C  20,C  17)    179.6927         0.026062   
    130. D(C  18,C  22,C  20,H  24)   -179.7711         0.026062   
    131. D(C  18,C  22,C  20,C  17)     -0.4205         0.026062   
    132. D(H  25,C  22,C  18,H  23)      0.4418         0.026179   
    133. D(H  25,C  22,C  18,C  16)    179.6119         0.026179   
    134. D(C  20,C  22,C  18,H  23)   -179.4450         0.026179   
    135. D(C  20,C  22,C  18,C  16)     -0.2750         0.026179   
    136. D(C   0,N  28,C  26,N  29)      0.0273         0.039181   
    137. D(C   0,N  28,C  26,H  27)   -179.9727         0.039181   
    138. D(C  26,N  28,C   4,C   6)    129.5450         0.016999   
    139. D(C  26,N  28,C   4,C   5)    -50.4584         0.016999   
    140. D(C   0,N  28,C   4,C   6)    -50.8282         0.016999   
    141. D(C   0,N  28,C   4,C   5)    129.1683         0.016999   
    142. D(C  26,N  28,C   0,H   2)    179.1540         0.026903   
    143. D(C  26,N  28,C   0,C   1)     -0.0717         0.026903   
    144. D(C   4,N  28,C   0,H   2)     -0.5250         0.026903   
    145. D(C   4,N  28,C  26,H  27)     -0.2909         0.039181   
    146. D(C   4,N  28,C   0,C   1)   -179.7507         0.026903   
    147. D(C   4,N  28,C  26,N  29)    179.7091         0.039181   
    148. D(C  15,N  29,C  26,N  28)    179.7091         0.039181   
    149. D(C   1,N  29,C  26,N  28)      0.0275         0.039181   
    150. D(C   1,N  29,C  26,H  27)   -179.9725         0.039181   
    151. D(C  26,N  29,C  15,C  17)    129.5452         0.016999   
    152. D(C  26,N  29,C  15,C  16)    -50.4581         0.016999   
    153. D(C   1,N  29,C  15,C  17)    -50.8281         0.016999   
    154. D(C   1,N  29,C  15,C  16)    129.1686         0.016999   
    155. D(C  26,N  29,C   1,H   3)    179.1540         0.026903   
    156. D(C  26,N  29,C   1,C   0)     -0.0718         0.026903   
    157. D(C  15,N  29,C  26,H  27)     -0.2909         0.039181   
    158. D(C  15,N  29,C   1,H   3)     -0.5249         0.026903   
    159. D(C  15,N  29,C   1,C   0)   -179.7507         0.026903   
    -----------------------------------------------------------------

Number of atoms                         .... 30
Number of degrees of freedom            .... 159

         *************************************************************
         *                GEOMETRY OPTIMIZATION CYCLE   1            *
         *************************************************************
---------------------------------
CARTESIAN COORDINATES (ANGSTROEM)
---------------------------------
  C      0.001186    0.680270   -1.862926
  C     -0.001190   -0.680270   -1.862926
  H     -0.010674    1.396080   -2.682208
  H      0.010666   -1.396079   -2.682209
  C      0.000558    2.446219   -0.072690
  C     -0.940429    2.837660    0.876922
  C      0.942593    3.336936   -0.582661
  C     -0.925224    4.153081    1.334333
  H     -1.690582    2.130484    1.241798
  C      0.936389    4.652427   -0.126526
  H      1.682345    3.004043   -1.315960
  C      0.008380    5.058545    0.832178
  H     -1.657740    4.473930    2.078587
  H      1.669840    5.362149   -0.516398
  H      0.011445    6.090899    1.190130
  C     -0.000557   -2.446220   -0.072690
  C      0.940428   -2.837660    0.876923
  C     -0.942592   -3.336936   -0.582662
  C      0.925223   -4.153081    1.334334
  H      1.690581   -2.130484    1.241800
  C     -0.936388   -4.652427   -0.126527
  H     -1.682342   -3.004043   -1.315962
  C     -0.008380   -5.058545    0.832178
  H      1.657738   -4.473929    2.078590
  H     -1.669837   -5.362150   -0.516401
  H     -0.011445   -6.090899    1.190130
  C      0.000002   -0.000000    0.233075
  H      0.000005   -0.000000    1.322767
  N      0.002891    1.084341   -0.542757
  N     -0.002891   -1.084341   -0.542757

----------------------------
CARTESIAN COORDINATES (A.U.)
----------------------------
  NO LB      ZA    FRAG     MASS         X           Y           Z
   0 C     6.0000    0    12.011    0.002241    1.285524   -3.520420
   1 C     6.0000    0    12.011   -0.002249   -1.285524   -3.520420
   2 H     1.0000    0     1.008   -0.020171    2.638209   -5.068639
   3 H     1.0000    0     1.008    0.020156   -2.638207   -5.068640
   4 C     6.0000    0    12.011    0.001054    4.622684   -0.137364
   5 C     6.0000    0    12.011   -1.777153    5.362400    1.657142
   6 C     6.0000    0    12.011    1.781243    6.305895   -1.101070
   7 C     6.0000    0    12.011   -1.748420    7.848186    2.521524
   8 H     1.0000    0     1.008   -3.194737    4.026031    2.346658
   9 C     6.0000    0    12.011    1.769519    8.791813   -0.239099
  10 H     1.0000    0     1.008    3.179171    5.676819   -2.486804
  11 C     6.0000    0    12.011    0.015836    9.559265    1.572589
  12 H     1.0000    0     1.008   -3.132675    8.454502    3.927960
  13 H     1.0000    0     1.008    3.155540   10.132993   -0.975851
  14 H     1.0000    0     1.008    0.021628   11.510131    2.249020
  15 C     6.0000    0    12.011   -0.001053   -4.622686   -0.137364
  16 C     6.0000    0    12.011    1.777151   -5.362400    1.657144
  17 C     6.0000    0    12.011   -1.781241   -6.305895   -1.101072
  18 C     6.0000    0    12.011    1.748418   -7.848186    2.521526
  19 H     1.0000    0     1.008    3.194735   -4.026031    2.346662
  20 C     6.0000    0    12.011   -1.769517   -8.791813   -0.239101
  21 H     1.0000    0     1.008   -3.179166   -5.676819   -2.486808
  22 C     6.0000    0    12.011   -0.015836   -9.559265    1.572589
  23 H     1.0000    0     1.008    3.132671   -8.454501    3.927966
  24 H     1.0000    0     1.008   -3.155535  -10.132995   -0.975856
  25 H     1.0000    0     1.008   -0.021628  -11.510131    2.249020
  26 C     6.0000    0    12.011    0.000004   -0.000000    0.440448
  27 H     1.0000    0     1.008    0.000009   -0.000000    2.499667
  28 N     7.0000    0    14.007    0.005463    2.049108   -1.025662
  29 N     7.0000    0    14.007   -0.005463   -2.049108   -1.025662

--------------------------------
INTERNAL COORDINATES (ANGSTROEM)
--------------------------------
 C      0   0   0     0.000000000000     0.00000000     0.00000000
 C      1   0   0     1.360542074681     0.00000000     0.00000000
 H      1   2   0     1.088001659569   131.13934477     0.00000000
 H      2   1   3     1.088001711077   131.13927296     1.83324209
 C      1   2   3     2.514661249688   134.60858095   178.96443804
 C      5   1   2     1.392998758504   133.06488494   292.57820507
 C      5   1   2     1.393153665665   100.84905407   136.63981067
 C      6   5   1     1.392762873639   118.81033004   207.46351879
 H      6   5   1     1.093600436065   120.60400241    26.23430103
 C      7   5   1     1.392341265251   118.75924750   159.44536530
 H      7   5   1     1.093516435338   120.54879536   338.51407190
 C      8   6   5     1.394145303811   120.16073823     0.79171899
 H      8   6   5     1.092445782441   119.59143245   179.96710726
 H     10   7   5     1.092545588554   119.59418537   179.92839753
 H     12   8   6     1.092654478710   119.83570278   179.61187702
 C      2   1   3     2.514661953203   134.60859687   180.79780096
 C     16   2   1     1.392997808180   133.06502111   292.57848866
 C     16   2   1     1.393153392367   100.84893033   136.63990484
 C     17  16   2     1.392762873639   118.81032365   207.46341016
 H     17  16   2     1.093600769712   120.60403797    26.23413110
 C     18  16   2     1.392341265251   118.75919398   159.44547170
 H     18  16   2     1.093515752950   120.54880965   338.51427667
 C     19  17  16     1.394144994339   120.16072949     0.79167807
 H     19  17  16     1.092446180764   119.59140390   179.96714356
 H     21  18  16     1.092545609211   119.59420276   179.92855478
 H     23  19  17     1.092654478710   119.83569443   179.61187663
 C      1   2   3     2.203630837222    72.01881751   179.08334785
 H     27   1   2     1.089692000004   162.01881723   179.99984323
 N     27   1   2     1.333311307544    36.43569260   179.92787574
 N     27   1   2     1.333311316218    72.39804103   359.95501304

---------------------------
INTERNAL COORDINATES (A.U.)
---------------------------
 C      0   0   0     0.000000000000     0.00000000     0.00000000
 C      1   0   0     2.571051914823     0.00000000     0.00000000
 H      1   2   0     2.056025169836   131.13934477     0.00000000
 H      2   1   3     2.056025267173   131.13927296     1.83324209
 C      1   2   3     4.752021081494   134.60858095   178.96443804
 C      5   1   2     2.632386158465   133.06488494   292.57820507
 C      5   1   2     2.632678890575   100.84905407   136.63981067
 C      6   5   1     2.631940400671   118.81033004   207.46351879
 H      6   5   1     2.066605324099   120.60400241    26.23430103
 C      7   5   1     2.631143676283   118.75924750   159.44536530
 H      7   5   1     2.066446585730   120.54879536   338.51407190
 C      8   6   5     2.634552815094   120.16073823     0.79171899
 H      8   6   5     2.064423344971   119.59143245   179.96710726
 H     10   7   5     2.064611951191   119.59418537   179.92839753
 H     12   8   6     2.064817723764   119.83570278   179.61187702
 C      2   1   3     4.752022410945   134.60859687   180.79780096
 C     16   2   1     2.632384362613   133.06502111   292.57848866
 C     16   2   1     2.632678374118   100.84893033   136.63990484
 C     17  16   2     2.631940400671   118.81032365   207.46341016
 H     17  16   2     2.066605954601   120.60403797    26.23413110
 C     18  16   2     2.631143676283   118.75919398   159.44547170
 H     18  16   2     2.066445296203   120.54880965   338.51427667
 C     19  17  16     2.634552230278   120.16072949     0.79167807
 H     19  17  16     2.064424097691   119.59140390   179.96714356
 H     21  18  16     2.064611990227   119.59420276   179.92855478
 H     23  19  17     2.064817723764   119.83569443   179.61187663
 C      1   2   3     4.164258782614    72.01881751   179.08334785
 H     27   1   2     2.059219450333   162.01881723   179.99984323
 N     27   1   2     2.519593222520    36.43569260   179.92787574
 N     27   1   2     2.519593238909    72.39804103   359.95501304

---------------------
BASIS SET INFORMATION
---------------------
There are 3 groups of distinct atoms

 Group   1 Type C   : 11s6p2d1f contracted to 5s3p2d1f pattern {62111/411/11/1}
 Group   2 Type H   : 5s1p contracted to 3s1p pattern {311/1}
 Group   3 Type N   : 11s6p2d1f contracted to 5s3p2d1f pattern {62111/411/11/1}

Atom   0C    basis set group =>   1
Atom   1C    basis set group =>   1
Atom   2H    basis set group =>   2
Atom   3H    basis set group =>   2
Atom   4C    basis set group =>   1
Atom   5C    basis set group =>   1
Atom   6C    basis set group =>   1
Atom   7C    basis set group =>   1
Atom   8H    basis set group =>   2
Atom   9C    basis set group =>   1
Atom  10H    basis set group =>   2
Atom  11C    basis set group =>   1
Atom  12H    basis set group =>   2
Atom  13H    basis set group =>   2
Atom  14H    basis set group =>   2
Atom  15C    basis set group =>   1
Atom  16C    basis set group =>   1
Atom  17C    basis set group =>   1
Atom  18C    basis set group =>   1
Atom  19H    basis set group =>   2
Atom  20C    basis set group =>   1
Atom  21H    basis set group =>   2
Atom  22C    basis set group =>   1
Atom  23H    basis set group =>   2
Atom  24H    basis set group =>   2
Atom  25H    basis set group =>   2
Atom  26C    basis set group =>   1
Atom  27H    basis set group =>   2
Atom  28N    basis set group =>   3
Atom  29N    basis set group =>   3
---------------------------------
AUXILIARY/J BASIS SET INFORMATION
---------------------------------
There are 3 groups of distinct atoms

 Group   1 Type C   : 12s5p4d2f1g contracted to 6s4p3d1f1g pattern {711111/2111/211/2/1}
 Group   2 Type H   : 5s2p1d contracted to 3s1p1d pattern {311/2/1}
 Group   3 Type N   : 12s5p4d2f1g contracted to 6s4p3d1f1g pattern {711111/2111/211/2/1}

Atom   0C    basis set group =>   1
Atom   1C    basis set group =>   1
Atom   2H    basis set group =>   2
Atom   3H    basis set group =>   2
Atom   4C    basis set group =>   1
Atom   5C    basis set group =>   1
Atom   6C    basis set group =>   1
Atom   7C    basis set group =>   1
Atom   8H    basis set group =>   2
Atom   9C    basis set group =>   1
Atom  10H    basis set group =>   2
Atom  11C    basis set group =>   1
Atom  12H    basis set group =>   2
Atom  13H    basis set group =>   2
Atom  14H    basis set group =>   2
Atom  15C    basis set group =>   1
Atom  16C    basis set group =>   1
Atom  17C    basis set group =>   1
Atom  18C    basis set group =>   1
Atom  19H    basis set group =>   2
Atom  20C    basis set group =>   1
Atom  21H    basis set group =>   2
Atom  22C    basis set group =>   1
Atom  23H    basis set group =>   2
Atom  24H    basis set group =>   2
Atom  25H    basis set group =>   2
Atom  26C    basis set group =>   1
Atom  27H    basis set group =>   2
Atom  28N    basis set group =>   3
Atom  29N    basis set group =>   3


           ************************************************************
           *        Program running with 4 parallel MPI-processes     *
           *              working on a common directory               *
           ************************************************************
------------------------------------------------------------------------------
                           ORCA GTO INTEGRAL CALCULATION
                           -- RI-GTO INTEGRALS CHOSEN --
------------------------------------------------------------------------------
------------------------------------------------------------------------------
                   ___                                                        
                  /   \      - P O W E R E D   B Y -                         
                 /     \                                                     
                 |  |  |   _    _      __       _____    __    __             
                 |  |  |  | |  | |    /  \     |  _  \  |  |  /  |          
                  \  \/   | |  | |   /    \    | | | |  |  | /  /          
                 / \  \   | |__| |  /  /\  \   | |_| |  |  |/  /          
                |  |  |   |  __  | /  /__\  \  |    /   |      \           
                |  |  |   | |  | | |   __   |  |    \   |  |\   \          
                \     /   | |  | | |  |  |  |  | |\  \  |  | \   \       
                 \___/    |_|  |_| |__|  |__|  |_| \__\ |__|  \__/        
                                                                              
                      - O R C A' S   B I G   F R I E N D -                    
                                      &                                       
                       - I N T E G R A L  F E E D E R -                       
                                                                              
 v1 FN, 2020, v2 2021                                                         
------------------------------------------------------------------------------


Reading SHARK input file 7_prot.SHARKINP.tmp ... ok
----------------------
SHARK INTEGRAL PACKAGE
----------------------

Number of atoms                             ...     30
Number of basis functions                   ...    605
Number of shells                            ...    239
Maximum angular momentum                    ...      3
Integral batch strategy                     ... SHARK/LIBINT Hybrid
RI-J (if used) integral strategy            ... SPLIT-RIJ (Revised 2003 algorithm where possible)
Printlevel                                  ...      1
Contraction scheme used                     ... SEGMENTED contraction
Coulomb Range Separation                    ... NOT USED
Exchange Range Separation                   ... Long Range
   Mu parameter                             ...  0.300000
   Scaling (regular/separated)              ...  0.157706  0.842294
Finite Nucleus Model                        ... NOT USED
Auxiliary Coulomb fitting basis             ... AVAILABLE
   # of basis functions in Aux-J            ...    976
   # of shells in Aux-J                     ...    320
   Maximum angular momentum in Aux-J        ...      4
Auxiliary J/K fitting basis                 ... NOT available
Auxiliary Correlation fitting basis         ... NOT available
Auxiliary 'external' fitting basis          ... NOT available
Integral threshold                          ...     2.500000e-11
Primitive cut-off                           ...     2.500000e-12
Primitive pair pre-selection threshold      ...     2.500000e-12

Calculating pre-screening integrals         ... done (  0.1 sec) Dimension = 239
Organizing shell pair data                  ... done (  0.2 sec)
Shell pair information
Total number of shell pairs                 ...     28680
Shell pairs after pre-screening             ...     20955
Total number of primitive shell pairs       ...     87984
Primitive shell pairs kept                  ...     44304
          la=0 lb=0:   5409 shell pairs
          la=1 lb=0:   6008 shell pairs
          la=1 lb=1:   1674 shell pairs
          la=2 lb=0:   3014 shell pairs
          la=2 lb=1:   1670 shell pairs
          la=2 lb=2:    436 shell pairs
          la=3 lb=0:   1432 shell pairs
          la=3 lb=1:    808 shell pairs
          la=3 lb=2:    398 shell pairs
          la=3 lb=3:    106 shell pairs

Calculating one electron integrals          ... done (  0.1 sec)
Calculating RI/J V-Matrix + Cholesky decomp.... done (  0.1 sec)
Calculating Nuclear repulsion               ... done (  0.0 sec) ENN=   1056.005190545284 Eh

SHARK setup successfully completed in   0.8 seconds

Maximum memory used throughout the entire GTOINT-calculation: 34.1 MB


           ************************************************************
           *        Program running with 4 parallel MPI-processes     *
           *              working on a common directory               *
           ************************************************************
-------------------------------------------------------------------------------
                                 ORCA SCF
-------------------------------------------------------------------------------

------------
SCF SETTINGS
------------
Hamiltonian:
 Density Functional     Method          .... DFT(GTOs)
 Exchange Functional    Exchange        .... WB97X
 Correlation Functional Correlation     .... WB97X
 Gradients option       PostSCFGGA      .... off
 Hybrid DFT is turned on
   Fraction HF Exchange ScalHFX         ....  0.157706
   Scaling of DF-GGA-X  ScalDFX         ....  0.000000
   Scaling of DF-GGA-C  ScalDFC         ....  1.000000
   Scaling of DF-LDA-C  ScalLDAC        ....  1.000000
   Perturbative correction              ....  0.000000
   Density functional embedding theory  .... OFF
 Long-range corrected/Screened/Range-Separated Hybrid DFT is turned on
   Amount of maximum screened exact exchange              ....  0.842294
   Range separation parameter mu (erf(mu*r12)/r12)        ....  0.300000
 RI-approximation to the Coulomb term is turned on
   Number of AuxJ basis functions       .... 976
   RIJ-COSX (HFX calculated with COS-X)).... on


General Settings:
 Integral files         IntName         .... 7_prot
 Hartree-Fock type      HFTyp           .... RHF
 Total Charge           Charge          ....    1
 Multiplicity           Mult            ....    1
 Number of Electrons    NEL             ....  116
 Basis Dimension        Dim             ....  605
 Nuclear Repulsion      ENuc            ....   1056.0051905453 Eh

Convergence Acceleration:
 DIIS                   CNVDIIS         .... on
   Start iteration      DIISMaxIt       ....     0
   Startup error        DIISStart       ....  0.200000
   # of expansion vecs  DIISMaxEq       ....     5
   Bias factor          DIISBfac        ....   1.050
   Max. coefficient     DIISMaxC        ....  10.000
 Trust-Rad. Augm. Hess. CNVTRAH         .... auto
   Auto Start mean grad. ratio tolernc. ....  1.125000
   Auto Start start iteration           ....    20
   Auto Start num. interpolation iter.  ....    10
   Max. Number of Micro iterations      ....    16
   Max. Number of Macro iterations      .... Maxiter - #DIIS iter
   Number of Davidson start vectors     ....     2
   Converg. threshold I  (grad. norm)   ....   1.000e-05
   Converg. threshold II (energy diff.) ....   1.000e-08
   Grad. Scal. Fac. for Micro threshold ....   0.100
   Minimum threshold for Micro iter.    ....   0.010
   NR start threshold (gradient norm)   ....   0.001
   Initial trust radius                 ....   0.400
   Minimum AH scaling param. (alpha)    ....   1.000
   Maximum AH scaling param. (alpha)    .... 1000.000
   Orbital update algorithm             .... Taylor
   White noise on init. David. guess    .... on
   Maximum white noise                  ....   0.010
   Quad. conv. algorithm                .... NR
 SOSCF                  CNVSOSCF        .... on
   Start iteration      SOSCFMaxIt      ....   150
   Startup grad/error   SOSCFStart      ....  0.001000
 Level Shifting         CNVShift        .... on
   Level shift para.    LevelShift      ....    0.2500
   Turn off err/grad.   ShiftErr        ....    0.0000
 Zerner damping         CNVZerner       .... off
 Static damping         CNVDamp         .... on
   Fraction old density DampFac         ....    0.8500
   Max. Damping (<1)    DampMax         ....    0.9800
   Min. Damping (>=0)   DampMin         ....    0.0000
   Turn off err/grad.   DampErr         ....    0.0300
 Fernandez-Rico         CNVRico         .... off

SCF Procedure:
 Maximum # iterations   MaxIter         ....   125
 SCF integral mode      SCFMode         .... Direct
   Integral package                     .... SHARK and LIBINT hybrid scheme
 Reset frequency        DirectResetFreq ....    20
 Integral Threshold     Thresh          ....  2.500e-11 Eh
 Primitive CutOff       TCut            ....  2.500e-12 Eh

Convergence Tolerance:
 Convergence Check Mode ConvCheckMode   .... Total+1el-Energy
 Convergence forced     ConvForced      .... 0
 Energy Change          TolE            ....  1.000e-08 Eh
 1-El. energy change                    ....  1.000e-05 Eh
 Orbital Gradient       TolG            ....  1.000e-05
 Orbital Rotation angle TolX            ....  1.000e-05
 DIIS Error             TolErr          ....  5.000e-07


Diagonalization of the overlap matrix:
Smallest eigenvalue                        ... 8.727e-06
Time for diagonalization                   ...    0.071 sec
Threshold for overlap eigenvalues          ... 1.000e-08
Number of eigenvalues below threshold      ... 0
Time for construction of square roots      ...    0.037 sec
Total time needed                          ...    0.110 sec

Time for model grid setup =    0.331 sec

------------------------------
INITIAL GUESS: MODEL POTENTIAL
------------------------------
Loading Hartree-Fock densities                     ... done
Calculating cut-offs                               ... done
Initializing the effective Hamiltonian             ... done
Setting up the integral package (SHARK)            ... done
Starting the Coulomb interaction                   ... done (   0.8 sec)
Reading the grid                                   ... done
Mapping shells                                     ... done
Starting the XC term evaluation                    ... done (   0.5 sec)
  promolecular density results
     # of electrons  =    116.993045686
     EX              =    -93.695212664
     EC              =     -3.910747933
     EX+EC           =    -97.605960597
Transforming the Hamiltonian                       ... done (   0.0 sec)
Diagonalizing the Hamiltonian                      ... done (   0.1 sec)
Back transforming the eigenvectors                 ... done (   0.0 sec)
Now organizing SCF variables                       ... done
                      ------------------
                      INITIAL GUESS DONE (   1.7 sec)
                      ------------------
-------------------
DFT GRID GENERATION
-------------------

General Integration Accuracy     IntAcc      ... 4.388
Radial Grid Type                 RadialGrid  ... OptM3 with GC (2021)
Angular Grid (max. ang.)         AngularGrid ... 4 (Lebedev-302)
Angular grid pruning method      GridPruning ... 4 (adaptive)
Weight generation scheme         WeightScheme... Becke
Basis function cutoff            BFCut       ... 1.0000e-11
Integration weight cutoff        WCut        ... 1.0000e-14
Angular grids for H and He will be reduced by one unit
Partially contracted basis set               ... off
Rotationally invariant grid construction     ... off

Total number of grid points                  ...   143489
Total number of batches                      ...     2261
Average number of points per batch           ...       63
Average number of grid points per atom       ...     4783
Time for grid setup =    1.352 sec

--------------------
COSX GRID GENERATION
--------------------

GRIDX 1
-------
General Integration Accuracy     IntAcc      ... 3.816
Radial Grid Type                 RadialGrid  ... OptM3 with GC (2021)
Angular Grid (max. ang.)         AngularGrid ... 1 (Lebedev-50)
Angular grid pruning method      GridPruning ... 4 (adaptive)
Weight generation scheme         WeightScheme... Becke
Basis function cutoff            BFCut       ... 1.0000e-11
Integration weight cutoff        WCut        ... 1.0000e-14
Angular grids for H and He will be reduced by one unit
Partially contracted basis set               ... on
Rotationally invariant grid construction     ... off

Total number of grid points                  ...    18286
Total number of batches                      ...      293
Average number of points per batch           ...       62
Average number of grid points per atom       ...      610
UseSFitting                                  ... on

GRIDX 2
-------
General Integration Accuracy     IntAcc      ... 4.020
Radial Grid Type                 RadialGrid  ... OptM3 with GC (2021)
Angular Grid (max. ang.)         AngularGrid ... 2 (Lebedev-110)
Angular grid pruning method      GridPruning ... 4 (adaptive)
Weight generation scheme         WeightScheme... Becke
Basis function cutoff            BFCut       ... 1.0000e-11
Integration weight cutoff        WCut        ... 1.0000e-14
Angular grids for H and He will be reduced by one unit
Partially contracted basis set               ... on
Rotationally invariant grid construction     ... off

Total number of grid points                  ...    39899
Total number of batches                      ...      637
Average number of points per batch           ...       62
Average number of grid points per atom       ...     1330
UseSFitting                                  ... on

GRIDX 3
-------
General Integration Accuracy     IntAcc      ... 4.338
Radial Grid Type                 RadialGrid  ... OptM3 with GC (2021)
Angular Grid (max. ang.)         AngularGrid ... 3 (Lebedev-194)
Angular grid pruning method      GridPruning ... 4 (adaptive)
Weight generation scheme         WeightScheme... Becke
Basis function cutoff            BFCut       ... 1.0000e-11
Integration weight cutoff        WCut        ... 1.0000e-14
Angular grids for H and He will be reduced by one unit
Partially contracted basis set               ... on
Rotationally invariant grid construction     ... off

Total number of grid points                  ...    87342
Total number of batches                      ...     1380
Average number of points per batch           ...       63
Average number of grid points per atom       ...     2911
UseSFitting                                  ... on

Time for X-Grid setup             =    1.917 sec

--------------
SCF ITERATIONS
--------------
ITER       Energy         Delta-E        Max-DP      RMS-DP      [F,P]     Damp
               ***  Starting incremental Fock matrix formation  ***
  0   -688.4642021868   0.000000000000 0.01123310  0.00029526  0.1264230 0.8500
  1   -688.5257169353  -0.061514748465 0.01187588  0.00030107  0.0997390 0.8500
                               ***Turning on DIIS***
  2   -688.5721969452  -0.046480009914 0.01026643  0.00025577  0.0741090 0.8500
  3   -688.6063234150  -0.034126469831 0.00815930  0.00020338  0.0539769 0.8500
  4   -688.6325658849  -0.026242469856 0.00656865  0.00016826  0.0424119 0.8500
  5   -688.6532203352  -0.020654450315 0.00567097  0.00014354  0.0353146 0.8500
  6   -688.6700348311  -0.016814495863 0.03284371  0.00082520  0.0297939 0.0000
  7   -688.7589333482  -0.088898517108 0.00182089  0.00004340  0.0014162 0.0000
                      *** Initiating the SOSCF procedure ***
                           *** Shutting down DIIS ***
                      *** Re-Reading the Fockian *** 
                      *** Removing any level shift *** 
ITER      Energy       Delta-E        Grad      Rot      Max-DP    RMS-DP
  8   -688.75899994  -0.0000665942  0.000471  0.000471  0.000632  0.000017
               *** Restarting incremental Fock matrix formation ***
  9   -688.75894803   0.0000519122  0.000462  0.001117  0.003439  0.000048
 10   -688.75895419  -0.0000061620  0.000141  0.000734  0.001724  0.000026
 11   -688.75895561  -0.0000014159  0.000078  0.000113  0.001482  0.000021
 12   -688.75895605  -0.0000004404  0.000018  0.000043  0.000104  0.000002
 13   -688.75895605   0.0000000026  0.000006  0.000031  0.000067  0.000001
 14   -688.75895605   0.0000000002  0.000003  0.000004  0.000047  0.000001
                  ***Gradient check signals convergence***
              ***Rediagonalizing the Fockian in SOSCF/NRSCF***

               *****************************************************
               *                     SUCCESS                       *
               *           SCF CONVERGED AFTER  15 CYCLES          *
               *****************************************************

Old exchange energy                            =    -30.310160878 Eh
New exchange energy                            =    -30.310114901 Eh
Exchange energy change after final integration =      0.000045977 Eh
Total energy after final integration           =   -688.758910061 Eh
Final COS-X integration done in                =    70.103 sec

----------------
TOTAL SCF ENERGY
----------------

Total Energy       :         -688.75891006 Eh          -18742.08277 eV

Components:
Nuclear Repulsion  :         1056.00519055 Eh           28735.36211 eV
Electronic Energy  :        -1744.76410061 Eh          -47477.44488 eV
One Electron Energy:        -3008.00963483 Eh          -81852.10344 eV
Two Electron Energy:         1263.24553423 Eh           34374.65856 eV
Max COSX asymmetry :            0.00000115 Eh               0.00003 eV

Virial components:
Potential Energy   :        -1374.22898205 Eh          -37394.67171 eV
Kinetic Energy     :          685.47007199 Eh           18652.58894 eV
Virial Ratio       :            2.00479793


DFT components:
N(Alpha)           :       58.000065391445 electrons
N(Beta)            :       58.000065391445 electrons
N(Total)           :      116.000130782890 electrons
E(XC)              :      -69.424892485406 Eh       
DFET-embed. en.    :        0.000000000000 Eh       

---------------
SCF CONVERGENCE
---------------

  Last Energy change         ...    7.4284e-09  Tolerance :   1.0000e-08
  Last MAX-Density change    ...    1.4433e-15  Tolerance :   1.0000e-07
  Last RMS-Density change    ...    1.1034e-17  Tolerance :   5.0000e-09
  Last Orbital Gradient      ...    6.5864e-07  Tolerance :   1.0000e-05
  Last Orbital Rotation      ...    1.0750e-06  Tolerance :   1.0000e-05

             **** THE GBW FILE WAS UPDATED (7_prot.gbw) ****
             **** DENSITY 7_prot.scfp WAS UPDATED ****
             **** ENERGY FILE WAS UPDATED (7_prot.en.tmp) ****
             **** THE GBW FILE WAS UPDATED (7_prot.gbw) ****
             **** DENSITY 7_prot.scfp WAS UPDATED ****
----------------
ORBITAL ENERGIES
----------------

  NO   OCC          E(Eh)            E(eV) 
   0   2.0000     -14.648247      -398.5991 
   1   2.0000     -14.648223      -398.5984 
   2   2.0000     -10.515378      -286.1380 
   3   2.0000     -10.465065      -284.7689 
   4   2.0000     -10.464368      -284.7499 
   5   2.0000     -10.452330      -284.4224 
   6   2.0000     -10.452324      -284.4222 
   7   2.0000     -10.403824      -283.1025 
   8   2.0000     -10.403824      -283.1024 
   9   2.0000     -10.402830      -283.0754 
  10   2.0000     -10.402829      -283.0754 
  11   2.0000     -10.392125      -282.7841 
  12   2.0000     -10.392125      -282.7841 
  13   2.0000     -10.391906      -282.7781 
  14   2.0000     -10.391906      -282.7781 
  15   2.0000     -10.388621      -282.6887 
  16   2.0000     -10.388621      -282.6887 
  17   2.0000      -1.367510       -37.2118 
  18   2.0000      -1.251751       -34.0619 
  19   2.0000      -1.138500       -30.9802 
  20   2.0000      -1.119053       -30.4510 
  21   2.0000      -1.078538       -29.3485 
  22   2.0000      -1.042282       -28.3619 
  23   2.0000      -1.015460       -27.6321 
  24   2.0000      -1.012911       -27.5627 
  25   2.0000      -1.005955       -27.3734 
  26   2.0000      -0.933392       -25.3989 
  27   2.0000      -0.926833       -25.2204 
  28   2.0000      -0.878960       -23.9177 
  29   2.0000      -0.868965       -23.6457 
  30   2.0000      -0.861373       -23.4392 
  31   2.0000      -0.856179       -23.2978 
  32   2.0000      -0.818796       -22.2806 
  33   2.0000      -0.785625       -21.3780 
  34   2.0000      -0.766251       -20.8507 
  35   2.0000      -0.748988       -20.3810 
  36   2.0000      -0.735067       -20.0022 
  37   2.0000      -0.734728       -19.9930 
  38   2.0000      -0.720399       -19.6030 
  39   2.0000      -0.714101       -19.4317 
  40   2.0000      -0.707715       -19.2579 
  41   2.0000      -0.686760       -18.6877 
  42   2.0000      -0.674532       -18.3549 
  43   2.0000      -0.674316       -18.3491 
  44   2.0000      -0.665272       -18.1030 
  45   2.0000      -0.663805       -18.0631 
  46   2.0000      -0.637930       -17.3590 
  47   2.0000      -0.620940       -16.8966 
  48   2.0000      -0.595460       -16.2033 
  49   2.0000      -0.592931       -16.1345 
  50   2.0000      -0.590691       -16.0735 
  51   2.0000      -0.581248       -15.8166 
  52   2.0000      -0.570945       -15.5362 
  53   2.0000      -0.521374       -14.1873 
  54   2.0000      -0.483387       -13.1536 
  55   2.0000      -0.481859       -13.1121 
  56   2.0000      -0.481739       -13.1088 
  57   2.0000      -0.474272       -12.9056 
  58   0.0000      -0.106344        -2.8938 
  59   0.0000      -0.075621        -2.0577 
  60   0.0000      -0.067503        -1.8368 
  61   0.0000      -0.066841        -1.8188 
  62   0.0000      -0.050404        -1.3716 
  63   0.0000      -0.045390        -1.2351 
  64   0.0000      -0.000822        -0.0224 
  65   0.0000       0.016654         0.4532 
  66   0.0000       0.022115         0.6018 
  67   0.0000       0.023436         0.6377 
  68   0.0000       0.037396         1.0176 
  69   0.0000       0.038986         1.0609 
  70   0.0000       0.052748         1.4353 
  71   0.0000       0.056350         1.5334 
  72   0.0000       0.066425         1.8075 
  73   0.0000       0.068520         1.8645 
  74   0.0000       0.072001         1.9592 
  75   0.0000       0.081801         2.2259 
  76   0.0000       0.083264         2.2657 
  77   0.0000       0.093509         2.5445 
  78   0.0000       0.101051         2.7497 
  79   0.0000       0.106179         2.8893 
  80   0.0000       0.110370         3.0033 
  81   0.0000       0.118571         3.2265 
  82   0.0000       0.125917         3.4264 
  83   0.0000       0.134799         3.6681 
  84   0.0000       0.136070         3.7027 
  85   0.0000       0.144503         3.9321 
  86   0.0000       0.158583         4.3153 
  87   0.0000       0.159296         4.3347 
  88   0.0000       0.165319         4.4985 
  89   0.0000       0.169091         4.6012 
  90   0.0000       0.169704         4.6179 
  91   0.0000       0.183324         4.9885 
  92   0.0000       0.190853         5.1934 
  93   0.0000       0.193958         5.2779 
  94   0.0000       0.196503         5.3471 
  95   0.0000       0.197926         5.3858 
  96   0.0000       0.201792         5.4910 
  97   0.0000       0.202944         5.5224 
  98   0.0000       0.205229         5.5846 
  99   0.0000       0.212730         5.7887 
 100   0.0000       0.217883         5.9289 
 101   0.0000       0.224879         6.1193 
 102   0.0000       0.236442         6.4339 
 103   0.0000       0.242981         6.6119 
 104   0.0000       0.246893         6.7183 
 105   0.0000       0.253413         6.8957 
 106   0.0000       0.265203         7.2166 
 107   0.0000       0.270616         7.3638 
 108   0.0000       0.270762         7.3678 
 109   0.0000       0.287284         7.8174 
 110   0.0000       0.292382         7.9561 
 111   0.0000       0.294173         8.0049 
 112   0.0000       0.298501         8.1226 
 113   0.0000       0.302886         8.2419 
 114   0.0000       0.307840         8.3767 
 115   0.0000       0.313168         8.5217 
 116   0.0000       0.314639         8.5618 
 117   0.0000       0.324999         8.8437 
 118   0.0000       0.326434         8.8827 
 119   0.0000       0.327207         8.9038 
 120   0.0000       0.339289         9.2325 
 121   0.0000       0.348763         9.4903 
 122   0.0000       0.349729         9.5166 
 123   0.0000       0.353680         9.6241 
 124   0.0000       0.358790         9.7632 
 125   0.0000       0.364641         9.9224 
 126   0.0000       0.372270        10.1300 
 127   0.0000       0.375384        10.2147 
 128   0.0000       0.379055        10.3146 
 129   0.0000       0.382427        10.4064 
 130   0.0000       0.387767        10.5517 
 131   0.0000       0.390810        10.6345 
 132   0.0000       0.396685        10.7944 
 133   0.0000       0.403082        10.9684 
 134   0.0000       0.405273        11.0280 
 135   0.0000       0.410188        11.1618 
 136   0.0000       0.413937        11.2638 
 137   0.0000       0.416191        11.3251 
 138   0.0000       0.436729        11.8840 
 139   0.0000       0.441294        12.0082 
 140   0.0000       0.448306        12.1990 
 141   0.0000       0.449873        12.2417 
 142   0.0000       0.450895        12.2695 
 143   0.0000       0.457688        12.4543 
 144   0.0000       0.464199        12.6315 
 145   0.0000       0.467652        12.7255 
 146   0.0000       0.483282        13.1508 
 147   0.0000       0.483303        13.1514 
 148   0.0000       0.489928        13.3316 
 149   0.0000       0.494772        13.4634 
 150   0.0000       0.505651        13.7595 
 151   0.0000       0.509201        13.8561 
 152   0.0000       0.536053        14.5867 
 153   0.0000       0.540362        14.7040 
 154   0.0000       0.547007        14.8848 
 155   0.0000       0.548229        14.9181 
 156   0.0000       0.554166        15.0796 
 157   0.0000       0.559337        15.2203 
 158   0.0000       0.565935        15.3999 
 159   0.0000       0.604704        16.4548 
 160   0.0000       0.610882        16.6230 
 161   0.0000       0.612725        16.6731 
 162   0.0000       0.617833        16.8121 
 163   0.0000       0.623293        16.9607 
 164   0.0000       0.637753        17.3541 
 165   0.0000       0.644275        17.5316 
 166   0.0000       0.647067        17.6076 
 167   0.0000       0.659893        17.9566 
 168   0.0000       0.668043        18.1784 
 169   0.0000       0.669102        18.2072 
 170   0.0000       0.676615        18.4116 
 171   0.0000       0.681345        18.5403 
 172   0.0000       0.686119        18.6702 
 173   0.0000       0.686737        18.6871 
 174   0.0000       0.689305        18.7570 
 175   0.0000       0.710718        19.3396 
 176   0.0000       0.714036        19.4299 
 177   0.0000       0.723021        19.6744 
 178   0.0000       0.725578        19.7440 
 179   0.0000       0.736544        20.0424 
 180   0.0000       0.740717        20.1559 
 181   0.0000       0.742671        20.2091 
 182   0.0000       0.757080        20.6012 
 183   0.0000       0.771733        20.9999 
 184   0.0000       0.776495        21.1295 
 185   0.0000       0.779616        21.2144 
 186   0.0000       0.789392        21.4804 
 187   0.0000       0.799915        21.7668 
 188   0.0000       0.801406        21.8074 
 189   0.0000       0.806755        21.9529 
 190   0.0000       0.817782        22.2530 
 191   0.0000       0.825112        22.4524 
 192   0.0000       0.830770        22.6064 
 193   0.0000       0.860950        23.4276 
 194   0.0000       0.868183        23.6245 
 195   0.0000       0.877370        23.8745 
 196   0.0000       0.890846        24.2412 
 197   0.0000       0.894743        24.3472 
 198   0.0000       0.895937        24.3797 
 199   0.0000       0.909646        24.7527 
 200   0.0000       0.924358        25.1531 
 201   0.0000       0.929252        25.2862 
 202   0.0000       0.950609        25.8674 
 203   0.0000       0.978131        26.6163 
 204   0.0000       0.986688        26.8491 
 205   0.0000       0.988135        26.8885 
 206   0.0000       0.991459        26.9790 
 207   0.0000       0.996263        27.1097 
 208   0.0000       0.997945        27.1555 
 209   0.0000       1.013496        27.5786 
 210   0.0000       1.021281        27.7905 
 211   0.0000       1.050388        28.5825 
 212   0.0000       1.056730        28.7551 
 213   0.0000       1.068567        29.0772 
 214   0.0000       1.080716        29.4078 
 215   0.0000       1.088216        29.6119 
 216   0.0000       1.095024        29.7971 
 217   0.0000       1.104325        30.0502 
 218   0.0000       1.120257        30.4837 
 219   0.0000       1.122479        30.5442 
 220   0.0000       1.147590        31.2275 
 221   0.0000       1.150605        31.3096 
 222   0.0000       1.166028        31.7292 
 223   0.0000       1.174717        31.9657 
 224   0.0000       1.179169        32.0868 
 225   0.0000       1.182574        32.1795 
 226   0.0000       1.191768        32.4296 
 227   0.0000       1.202615        32.7248 
 228   0.0000       1.210563        32.9411 
 229   0.0000       1.216901        33.1136 
 230   0.0000       1.223148        33.2835 
 231   0.0000       1.226646        33.3787 
 232   0.0000       1.229477        33.4558 
 233   0.0000       1.235748        33.6264 
 234   0.0000       1.243489        33.8371 
 235   0.0000       1.258501        34.2455 
 236   0.0000       1.262581        34.3566 
 237   0.0000       1.267159        34.4812 
 238   0.0000       1.279056        34.8049 
 239   0.0000       1.288013        35.0486 
 240   0.0000       1.289419        35.0869 
 241   0.0000       1.327867        36.1331 
 242   0.0000       1.341468        36.5032 
 243   0.0000       1.353336        36.8261 
 244   0.0000       1.362794        37.0835 
 245   0.0000       1.375407        37.4267 
 246   0.0000       1.382759        37.6268 
 247   0.0000       1.400952        38.1218 
 248   0.0000       1.415038        38.5051 
 249   0.0000       1.417921        38.5836 
 250   0.0000       1.420781        38.6614 
 251   0.0000       1.428347        38.8673 
 252   0.0000       1.443375        39.2762 
 253   0.0000       1.443571        39.2816 
 254   0.0000       1.456354        39.6294 
 255   0.0000       1.460831        39.7512 
 256   0.0000       1.476194        40.1693 
 257   0.0000       1.490186        40.5500 
 258   0.0000       1.498981        40.7893 
 259   0.0000       1.499332        40.7989 
 260   0.0000       1.505617        40.9699 
 261   0.0000       1.514623        41.2150 
 262   0.0000       1.530947        41.6592 
 263   0.0000       1.535202        41.7750 
 264   0.0000       1.542584        41.9758 
 265   0.0000       1.543964        42.0134 
 266   0.0000       1.559862        42.4460 
 267   0.0000       1.574823        42.8531 
 268   0.0000       1.590749        43.2865 
 269   0.0000       1.593001        43.3478 
 270   0.0000       1.598790        43.5053 
 271   0.0000       1.613152        43.8961 
 272   0.0000       1.613465        43.9046 
 273   0.0000       1.619868        44.0789 
 274   0.0000       1.622046        44.1381 
 275   0.0000       1.640410        44.6378 
 276   0.0000       1.654811        45.0297 
 277   0.0000       1.671887        45.4944 
 278   0.0000       1.674535        45.5664 
 279   0.0000       1.679886        45.7120 
 280   0.0000       1.683610        45.8134 
 281   0.0000       1.684558        45.8392 
 282   0.0000       1.686458        45.8909 
 283   0.0000       1.698487        46.2182 
 284   0.0000       1.711647        46.5763 
 285   0.0000       1.714275        46.6478 
 286   0.0000       1.715967        46.6938 
 287   0.0000       1.732220        47.1361 
 288   0.0000       1.738254        47.3003 
 289   0.0000       1.768640        48.1272 
 290   0.0000       1.771847        48.2144 
 291   0.0000       1.788376        48.6642 
 292   0.0000       1.790183        48.7134 
 293   0.0000       1.809380        49.2357 
 294   0.0000       1.817487        49.4563 
 295   0.0000       1.837964        50.0136 
 296   0.0000       1.844484        50.1910 
 297   0.0000       1.848961        50.3128 
 298   0.0000       1.866224        50.7825 
 299   0.0000       1.871277        50.9200 
 300   0.0000       1.893951        51.5370 
 301   0.0000       1.895633        51.5828 
 302   0.0000       1.935808        52.6760 
 303   0.0000       1.945707        52.9454 
 304   0.0000       1.963150        53.4200 
 305   0.0000       1.967330        53.5338 
 306   0.0000       1.988629        54.1133 
 307   0.0000       1.999419        54.4070 
 308   0.0000       2.012956        54.7753 
 309   0.0000       2.028915        55.2096 
 310   0.0000       2.046806        55.6964 
 311   0.0000       2.058075        56.0031 
 312   0.0000       2.061905        56.1073 
 313   0.0000       2.062490        56.1232 
 314   0.0000       2.075755        56.4842 
 315   0.0000       2.078689        56.5640 
 316   0.0000       2.106297        57.3152 
 317   0.0000       2.130354        57.9699 
 318   0.0000       2.136611        58.1401 
 319   0.0000       2.143190        58.3192 
 320   0.0000       2.162131        58.8346 
 321   0.0000       2.168271        59.0017 
 322   0.0000       2.170595        59.0649 
 323   0.0000       2.185832        59.4795 
 324   0.0000       2.204916        59.9988 
 325   0.0000       2.207400        60.0664 
 326   0.0000       2.219298        60.3902 
 327   0.0000       2.235800        60.8392 
 328   0.0000       2.236087        60.8470 
 329   0.0000       2.244285        61.0701 
 330   0.0000       2.261427        61.5365 
 331   0.0000       2.271410        61.8082 
 332   0.0000       2.297514        62.5185 
 333   0.0000       2.322443        63.1969 
 334   0.0000       2.327574        63.3365 
 335   0.0000       2.338087        63.6226 
 336   0.0000       2.373543        64.5874 
 337   0.0000       2.389884        65.0320 
 338   0.0000       2.410268        65.5867 
 339   0.0000       2.427666        66.0601 
 340   0.0000       2.444323        66.5134 
 341   0.0000       2.444683        66.5232 
 342   0.0000       2.484626        67.6101 
 343   0.0000       2.487566        67.6901 
 344   0.0000       2.492619        67.8276 
 345   0.0000       2.498291        67.9820 
 346   0.0000       2.509272        68.2808 
 347   0.0000       2.516319        68.4725 
 348   0.0000       2.534181        68.9586 
 349   0.0000       2.538822        69.0849 
 350   0.0000       2.561545        69.7032 
 351   0.0000       2.573177        70.0197 
 352   0.0000       2.578395        70.1617 
 353   0.0000       2.580626        70.2224 
 354   0.0000       2.584289        70.3221 
 355   0.0000       2.591129        70.5082 
 356   0.0000       2.604641        70.8759 
 357   0.0000       2.611337        71.0581 
 358   0.0000       2.618399        71.2503 
 359   0.0000       2.625860        71.4533 
 360   0.0000       2.630353        71.5755 
 361   0.0000       2.638006        71.7838 
 362   0.0000       2.644502        71.9605 
 363   0.0000       2.645522        71.9883 
 364   0.0000       2.646116        72.0045 
 365   0.0000       2.652090        72.1670 
 366   0.0000       2.656712        72.2928 
 367   0.0000       2.663724        72.4836 
 368   0.0000       2.670891        72.6786 
 369   0.0000       2.671671        72.6999 
 370   0.0000       2.681724        72.9734 
 371   0.0000       2.691792        73.2474 
 372   0.0000       2.695737        73.3547 
 373   0.0000       2.711551        73.7850 
 374   0.0000       2.723512        74.1105 
 375   0.0000       2.729646        74.2774 
 376   0.0000       2.733799        74.3905 
 377   0.0000       2.739638        74.5493 
 378   0.0000       2.745468        74.7080 
 379   0.0000       2.749174        74.8088 
 380   0.0000       2.754552        74.9552 
 381   0.0000       2.755214        74.9732 
 382   0.0000       2.772429        75.4416 
 383   0.0000       2.776977        75.5654 
 384   0.0000       2.786966        75.8372 
 385   0.0000       2.799614        76.1814 
 386   0.0000       2.806083        76.3574 
 387   0.0000       2.808986        76.4364 
 388   0.0000       2.824170        76.8496 
 389   0.0000       2.824922        76.8700 
 390   0.0000       2.826611        76.9160 
 391   0.0000       2.834326        77.1259 
 392   0.0000       2.846517        77.4577 
 393   0.0000       2.847213        77.4766 
 394   0.0000       2.861052        77.8532 
 395   0.0000       2.867664        78.0331 
 396   0.0000       2.886624        78.5490 
 397   0.0000       2.892163        78.6998 
 398   0.0000       2.901017        78.9407 
 399   0.0000       2.924049        79.5674 
 400   0.0000       2.944691        80.1291 
 401   0.0000       2.946772        80.1857 
 402   0.0000       2.953556        80.3703 
 403   0.0000       2.979181        81.0676 
 404   0.0000       2.988382        81.3180 
 405   0.0000       2.991666        81.4074 
 406   0.0000       3.002214        81.6944 
 407   0.0000       3.012119        81.9639 
 408   0.0000       3.026530        82.3561 
 409   0.0000       3.034567        82.5748 
 410   0.0000       3.051083        83.0242 
 411   0.0000       3.061081        83.2962 
 412   0.0000       3.067657        83.4752 
 413   0.0000       3.075095        83.6776 
 414   0.0000       3.086547        83.9892 
 415   0.0000       3.091076        84.1124 
 416   0.0000       3.091487        84.1236 
 417   0.0000       3.097357        84.2834 
 418   0.0000       3.109793        84.6218 
 419   0.0000       3.115998        84.7906 
 420   0.0000       3.116295        84.7987 
 421   0.0000       3.127205        85.0956 
 422   0.0000       3.132871        85.2497 
 423   0.0000       3.134616        85.2973 
 424   0.0000       3.148432        85.6732 
 425   0.0000       3.149609        85.7052 
 426   0.0000       3.158612        85.9502 
 427   0.0000       3.167597        86.1947 
 428   0.0000       3.179117        86.5082 
 429   0.0000       3.181475        86.5723 
 430   0.0000       3.193657        86.9038 
 431   0.0000       3.210135        87.3522 
 432   0.0000       3.225230        87.7630 
 433   0.0000       3.232405        87.9582 
 434   0.0000       3.236090        88.0585 
 435   0.0000       3.248605        88.3990 
 436   0.0000       3.254013        88.5462 
 437   0.0000       3.256283        88.6080 
 438   0.0000       3.263491        88.8041 
 439   0.0000       3.274888        89.1142 
 440   0.0000       3.279710        89.2454 
 441   0.0000       3.299583        89.7862 
 442   0.0000       3.301787        89.8462 
 443   0.0000       3.311739        90.1170 
 444   0.0000       3.316096        90.2356 
 445   0.0000       3.324278        90.4582 
 446   0.0000       3.327524        90.5465 
 447   0.0000       3.330975        90.6404 
 448   0.0000       3.336859        90.8006 
 449   0.0000       3.344170        90.9995 
 450   0.0000       3.356618        91.3382 
 451   0.0000       3.358143        91.3797 
 452   0.0000       3.367461        91.6333 
 453   0.0000       3.378571        91.9356 
 454   0.0000       3.385150        92.1146 
 455   0.0000       3.386885        92.1618 
 456   0.0000       3.392055        92.3025 
 457   0.0000       3.420416        93.0743 
 458   0.0000       3.424247        93.1785 
 459   0.0000       3.442465        93.6742 
 460   0.0000       3.443400        93.6997 
 461   0.0000       3.450736        93.8993 
 462   0.0000       3.458381        94.1073 
 463   0.0000       3.459064        94.1259 
 464   0.0000       3.480397        94.7064 
 465   0.0000       3.488764        94.9341 
 466   0.0000       3.491742        95.0151 
 467   0.0000       3.497559        95.1734 
 468   0.0000       3.501672        95.2854 
 469   0.0000       3.507855        95.4536 
 470   0.0000       3.524586        95.9089 
 471   0.0000       3.525450        95.9324 
 472   0.0000       3.538459        96.2864 
 473   0.0000       3.562577        96.9426 
 474   0.0000       3.576721        97.3275 
 475   0.0000       3.577626        97.3522 
 476   0.0000       3.598243        97.9132 
 477   0.0000       3.622734        98.5796 
 478   0.0000       3.658688        99.5580 
 479   0.0000       3.666146        99.7609 
 480   0.0000       3.671709        99.9123 
 481   0.0000       3.685828       100.2965 
 482   0.0000       3.689389       100.3934 
 483   0.0000       3.696079       100.5754 
 484   0.0000       3.715532       101.1048 
 485   0.0000       3.718242       101.1785 
 486   0.0000       3.730562       101.5137 
 487   0.0000       3.734936       101.6328 
 488   0.0000       3.799853       103.3992 
 489   0.0000       3.826034       104.1117 
 490   0.0000       3.834099       104.3311 
 491   0.0000       3.861324       105.0720 
 492   0.0000       3.865869       105.1956 
 493   0.0000       3.899969       106.1236 
 494   0.0000       3.901410       106.1628 
 495   0.0000       3.925859       106.8280 
 496   0.0000       3.950978       107.5116 
 497   0.0000       3.961914       107.8092 
 498   0.0000       3.962783       107.8328 
 499   0.0000       3.981244       108.3352 
 500   0.0000       4.008697       109.0822 
 501   0.0000       4.016757       109.3015 
 502   0.0000       4.039567       109.9222 
 503   0.0000       4.052158       110.2648 
 504   0.0000       4.068365       110.7058 
 505   0.0000       4.077203       110.9463 
 506   0.0000       4.080551       111.0374 
 507   0.0000       4.082061       111.0785 
 508   0.0000       4.110861       111.8622 
 509   0.0000       4.111434       111.8778 
 510   0.0000       4.137717       112.5930 
 511   0.0000       4.168041       113.4182 
 512   0.0000       4.174610       113.5969 
 513   0.0000       4.175270       113.6149 
 514   0.0000       4.181316       113.7794 
 515   0.0000       4.186489       113.9202 
 516   0.0000       4.193804       114.1192 
 517   0.0000       4.204769       114.4176 
 518   0.0000       4.207373       114.4884 
 519   0.0000       4.211286       114.5949 
 520   0.0000       4.217186       114.7555 
 521   0.0000       4.225683       114.9867 
 522   0.0000       4.237926       115.3198 
 523   0.0000       4.251411       115.6868 
 524   0.0000       4.259105       115.8961 
 525   0.0000       4.276774       116.3769 
 526   0.0000       4.282861       116.5426 
 527   0.0000       4.292604       116.8077 
 528   0.0000       4.293180       116.8234 
 529   0.0000       4.308566       117.2420 
 530   0.0000       4.391623       119.5021 
 531   0.0000       4.424416       120.3945 
 532   0.0000       4.506103       122.6173 
 533   0.0000       4.546103       123.7057 
 534   0.0000       4.576139       124.5231 
 535   0.0000       4.595910       125.0611 
 536   0.0000       4.614844       125.5763 
 537   0.0000       4.617614       125.6517 
 538   0.0000       4.637358       126.1889 
 539   0.0000       4.651172       126.5648 
 540   0.0000       4.657348       126.7329 
 541   0.0000       4.679895       127.3464 
 542   0.0000       4.720959       128.4638 
 543   0.0000       4.755658       129.4080 
 544   0.0000       4.765158       129.6665 
 545   0.0000       4.776865       129.9851 
 546   0.0000       4.804136       130.7272 
 547   0.0000       4.806820       130.8002 
 548   0.0000       4.825574       131.3105 
 549   0.0000       4.828667       131.3947 
 550   0.0000       4.833099       131.5153 
 551   0.0000       4.858889       132.2171 
 552   0.0000       4.860402       132.2583 
 553   0.0000       4.867865       132.4613 
 554   0.0000       4.916114       133.7743 
 555   0.0000       4.963792       135.0717 
 556   0.0000       5.005556       136.2081 
 557   0.0000       5.006192       136.2254 
 558   0.0000       5.039989       137.1451 
 559   0.0000       5.093205       138.5932 
 560   0.0000       5.103419       138.8711 
 561   0.0000       5.133403       139.6870 
 562   0.0000       5.157607       140.3456 
 563   0.0000       5.173368       140.7745 
 564   0.0000       5.190865       141.2506 
 565   0.0000       5.211522       141.8127 
 566   0.0000       5.221493       142.0841 
 567   0.0000       5.237670       142.5243 
 568   0.0000       5.246225       142.7570 
 569   0.0000       5.289317       143.9296 
 570   0.0000       5.326794       144.9494 
 571   0.0000       5.344992       145.4446 
 572   0.0000       5.351817       145.6303 
 573   0.0000       5.370123       146.1285 
 574   0.0000       5.389715       146.6616 
 575   0.0000       5.443529       148.1259 
 576   0.0000       5.468811       148.8139 
 577   0.0000       5.541206       150.7839 
 578   0.0000       5.548284       150.9765 
 579   0.0000       5.660255       154.0234 
 580   0.0000       5.699708       155.0970 
 581   0.0000       5.775449       157.1580 
 582   0.0000       5.806773       158.0103 
 583   0.0000       5.866302       159.6302 
 584   0.0000       5.870979       159.7575 
 585   0.0000       6.059573       164.8894 
[...]
     43      -0.019951   0.439007   0.420147   0.000236   0.000118   0.000242
     44      -0.004375   0.152649   0.146091   0.000086   0.000060   0.000067
     45      -0.001306  -0.000041   0.000039   0.000062   0.000034  -0.000026
     46      -0.000381  -0.000872   0.000924   0.000115   0.000193   0.000006
     47      -0.001012   0.000261  -0.000285   0.000398   0.000209  -0.000203
     48       0.009392  -0.005795   0.006083   0.000502   0.000003   0.000138
     49       0.010508  -0.006771   0.007092   0.000444  -0.000130   0.000221
     50       0.003897  -0.002308   0.002424   0.000198   0.000036   0.000017
     51       0.010467   0.006461  -0.006772  -0.000039   0.000352  -0.000305
     52      -0.006364  -0.004311   0.004504   0.000213  -0.000157   0.000145
     53       0.010841   0.006826  -0.007151  -0.000085   0.000302  -0.000283
     54       0.028202  -0.021991   0.022971  -0.000012  -0.000012  -0.000028
     55      -0.013074   0.008177  -0.008548  -0.000010   0.000054  -0.000052
     56       0.028662  -0.021669   0.022633  -0.000037  -0.000038   0.000006
     57      -0.106639   0.064835  -0.068074  -0.005906  -0.000010  -0.001486
     58      -0.101983   0.062388  -0.065486  -0.005331   0.000116  -0.001407
     59      -0.050249   0.030487  -0.032024  -0.002984  -0.000057  -0.000793
     60       0.027767   0.022919  -0.023939   0.000016  -0.000001   0.000018
     61       0.027698   0.020715  -0.021645  -0.000090   0.000006   0.000013
     62       0.014164   0.012467  -0.013022   0.000023  -0.000018   0.000025
     63      -0.118778  -0.072520   0.076046   0.000375  -0.003990   0.003532
     64       0.055130   0.034084  -0.035723  -0.000267   0.001563  -0.001328
     65      -0.117053  -0.071698   0.075181   0.000383  -0.003924   0.003396
     66      -0.002589   0.000087  -0.000090  -0.000037  -0.000021   0.000021
     67      -0.002419   0.038336  -0.040057   0.000007  -0.000008   0.000016
     68      -0.001416  -0.013357   0.013954  -0.000022  -0.000007   0.000002
     69      -0.319967   0.236192  -0.246704   0.000266   0.000395  -0.000076
     70       0.141025  -0.101703   0.106219  -0.000121  -0.000245   0.000095
     71      -0.322176   0.236986  -0.247536   0.000157   0.000447  -0.000126
     72      -0.316097  -0.246922   0.257922   0.000391   0.000022  -0.000217
     73      -0.305282  -0.235896   0.246393   0.000459  -0.000051  -0.000139
     74      -0.164417  -0.129349   0.135116   0.000154  -0.000037  -0.000050
     75       0.003004  -0.001193   0.001247  -0.000054  -0.000025   0.000038
     76       0.020184  -0.420183   0.438969  -0.000236   0.000118  -0.000242
     77      -0.004426   0.146104  -0.152636   0.000086  -0.000060   0.000067
     78       0.000000  -0.000000  -0.000008  -0.000000  -0.000004  -0.000000
     79       0.000000   0.000001   0.000035  -0.000000  -0.001987  -0.000000
     80      -0.000141   0.000124  -0.000003   0.092053  -0.000000   0.012075
     81       0.000001  -0.000000  -0.000004   0.000001   0.000074   0.000000
     82      -0.000001  -0.000000  -0.000014   0.000000  -0.000371  -0.000000
     83       0.001373  -0.001993   0.000043  -0.988986   0.000002  -0.112890
     84      -0.000085  -0.000003  -0.000008   0.000062  -0.000032  -0.000028
     85      -0.000049  -0.000108  -0.000160   0.003109   0.000061   0.000877
     86       0.000111  -0.000046  -0.000015  -0.002748   0.000630   0.002410
     87       0.000086   0.000003  -0.000008  -0.000062  -0.000032   0.000028
     88       0.000050   0.000101  -0.000164  -0.003109   0.000061  -0.000877
     89       0.000112  -0.000046   0.000017  -0.002748  -0.000630   0.002410


-----------
IR SPECTRUM
-----------

 Mode   freq       eps      Int      T**2         TX        TY        TZ
       cm**-1   L/(mol*cm) km/mol    a.u.
----------------------------------------------------------------------------
  6:     27.90   0.000001    0.00  0.000010  ( 0.000001  0.000000 -0.003093)
  7:     35.94   0.000014    0.07  0.000124  ( 0.011088 -0.000860  0.000000)
  8:     61.18   0.000018    0.09  0.000091  (-0.000000  0.000000  0.009556)
  9:     84.26   0.000063    0.32  0.000233  ( 0.011258 -0.010323 -0.000001)
 10:    126.75   0.000070    0.35  0.000173  ( 0.000001 -0.000000  0.013148)
 11:    140.98   0.000097    0.49  0.000216  (-0.014644  0.001137  0.000000)
 12:    250.20   0.000057    0.29  0.000071  (-0.000000  0.000000 -0.008437)
 13:    305.63   0.000184    0.93  0.000188  ( 0.000000 -0.000000  0.013721)
 14:    316.17   0.000020    0.10  0.000019  ( 0.004080  0.001615 -0.000000)
 15:    406.18   0.000146    0.74  0.000113  ( 0.006180 -0.008623 -0.000000)
 16:    422.17   0.000005    0.02  0.000004  (-0.000002  0.000003  0.001875)
 17:    422.48   0.000023    0.12  0.000017  ( 0.001838 -0.003722  0.000001)
 18:    431.67   0.000003    0.01  0.000002  (-0.000000 -0.000000  0.001370)
 19:    441.93   0.000338    1.71  0.000239  (-0.012895 -0.008506 -0.000000)
 20:    533.22   0.002855   14.43  0.001671  (-0.000000  0.000000  0.040874)
 21:    568.47   0.001908    9.64  0.001047  ( 0.028246 -0.015795  0.000000)
 22:    628.59   0.000170    0.86  0.000085  ( 0.008734  0.002873  0.000000)
 23:    628.93   0.000004    0.02  0.000002  ( 0.000001  0.000000 -0.001354)
 24:    679.23   0.000798    4.03  0.000367  ( 0.000000 -0.000000 -0.019152)
 25:    684.52   0.002315   11.70  0.001055  ( 0.031956  0.005836 -0.000000)
 26:    694.87   0.000082    0.42  0.000037  ( 0.000000  0.000000  0.006086)
 27:    720.98   0.003488   17.63  0.001510  ( 0.014622 -0.036001 -0.000077)
 28:    721.23   0.006766   34.19  0.002928  ( 0.000082  0.000044 -0.054107)
 29:    721.64   0.006046   30.55  0.002614  (-0.050976  0.003995 -0.000110)
 30:    788.51   0.008245   41.67  0.003263  ( 0.057088 -0.002042  0.000001)
 31:    800.63   0.009007   45.52  0.003511  ( 0.000022 -0.000011 -0.059252)
 32:    802.80   0.008423   42.57  0.003274  (-0.051382  0.025182 -0.000023)
 33:    872.33   0.000129    0.65  0.000046  (-0.003016 -0.006094  0.000009)
 34:    872.69   0.000054    0.27  0.000019  ( 0.000007  0.000013  0.004408)
 35:    898.81   0.003358   16.97  0.001166  (-0.034146  0.000172 -0.000000)
 36:    924.36   0.000000    0.00  0.000000  ( 0.000000 -0.000000 -0.000355)
 37:    966.86   0.000412    2.08  0.000133  (-0.000006  0.000012  0.011526)
 38:    968.01   0.000351    1.78  0.000113  ( 0.004840 -0.009479  0.000016)
 39:    985.07   0.000730    3.69  0.000231  ( 0.001691  0.015114  0.000000)
 40:    994.87   0.000018    0.09  0.000006  ( 0.000000  0.000000 -0.002402)
 41:   1023.34   0.000320    1.62  0.000098  (-0.000498  0.009866 -0.000025)
 42:   1023.46   0.000012    0.06  0.000004  (-0.000007  0.000133  0.001899)
 43:   1032.54   0.002450   12.38  0.000741  ( 0.000343  0.027212 -0.000001)
 44:   1033.73   0.000131    0.66  0.000039  (-0.000000  0.000003  0.006282)
 45:   1056.36   0.000001    0.01  0.000000  (-0.000004 -0.000019  0.000564)
 46:   1056.39   0.000000    0.00  0.000000  ( 0.000069  0.000313  0.000037)
 47:   1064.69   0.000081    0.41  0.000024  (-0.000000 -0.000002  0.004884)
 48:   1065.19   0.000232    1.17  0.000068  ( 0.000453  0.008235  0.000001)
 49:   1097.45   0.011703   59.14  0.003328  (-0.003897 -0.057556 -0.000000)
 50:   1120.76   0.000133    0.67  0.000037  (-0.000001  0.000001 -0.006083)
 51:   1122.74   0.001504    7.60  0.000418  (-0.020232  0.002963  0.000000)
 52:   1129.00   0.003590   18.14  0.000992  (-0.000000 -0.000000  0.031502)
 53:   1144.82   0.000380    1.92  0.000104  (-0.000000 -0.000000 -0.010178)
 54:   1191.23   0.000033    0.17  0.000009  ( 0.000006  0.000000  0.002949)
 55:   1191.34   0.000080    0.40  0.000021  ( 0.004556  0.000282 -0.000004)
 56:   1209.90   0.000015    0.08  0.000004  (-0.000998  0.001702  0.000000)
 57:   1210.79   0.000010    0.05  0.000003  ( 0.000000 -0.000000  0.001594)
 58:   1267.84   0.007660   38.71  0.001885  ( 0.001398  0.043399  0.000000)
 59:   1286.12   0.003919   19.80  0.000951  (-0.001470  0.030801  0.000000)
 60:   1318.60   0.000016    0.08  0.000004  (-0.000000  0.000000 -0.001922)
 61:   1327.61   0.000843    4.26  0.000198  ( 0.013692  0.003257 -0.000000)
 62:   1357.39   0.000707    3.57  0.000163  ( 0.000000  0.000001  0.012750)
 63:   1362.17   0.000579    2.93  0.000133  ( 0.007561  0.008686 -0.000001)
 64:   1392.45   0.000531    2.68  0.000119  ( 0.000000 -0.000000 -0.010908)
 65:   1417.07   0.002009   10.15  0.000443  ( 0.005082  0.020413  0.000000)
 66:   1456.26   0.000021    0.10  0.000004  (-0.000000 -0.000000 -0.002098)
 67:   1517.85   0.001978   10.00  0.000407  (-0.019377 -0.005586 -0.000004)
 68:   1518.40   0.001288    6.51  0.000265  ( 0.000005  0.000001 -0.016268)
 69:   1549.31   0.008696   43.94  0.001751  (-0.000548  0.041847 -0.000000)
 70:   1557.91   0.001910    9.65  0.000383  (-0.000000  0.000000  0.019562)
 71:   1628.10   0.041962  212.06  0.008043  ( 0.000939 -0.089678 -0.000000)
 72:   1630.12   0.000437    2.21  0.000084  (-0.000000  0.000000  0.009150)
 73:   1686.16   0.002455   12.41  0.000454  ( 0.002926  0.021116  0.000000)
 74:   1687.09   0.000068    0.34  0.000012  (-0.000002  0.000002 -0.003535)
 75:   1687.70   0.001195    6.04  0.000221  ( 0.014568  0.002951 -0.000001)
 76:   1690.24   0.001031    5.21  0.000190  ( 0.000000 -0.000001 -0.013799)
 77:   3214.90   0.001073    5.42  0.000104  (-0.000393 -0.010197  0.000013)
 78:   3214.95   0.000075    0.38  0.000007  (-0.000002 -0.000049 -0.002707)
 79:   3217.53   0.000182    0.92  0.000018  ( 0.000797  0.004130  0.000003)
 80:   3217.56   0.000002    0.01  0.000000  (-0.000006 -0.000034  0.000401)
 81:   3227.67   0.000298    1.50  0.000029  (-0.000468 -0.005345 -0.000025)
 82:   3227.67   0.000025    0.12  0.000002  ( 0.000008  0.000087 -0.001541)
 83:   3237.14   0.000085    0.43  0.000008  (-0.002767 -0.000706  0.000013)
 84:   3237.15   0.000051    0.26  0.000005  ( 0.000016  0.000004  0.002209)
 85:   3245.46   0.000004    0.02  0.000000  ( 0.000004 -0.000049 -0.000608)
 86:   3245.46   0.000053    0.27  0.000005  ( 0.000171 -0.002254  0.000013)
 87:   3304.54   0.005662   28.61  0.000535  (-0.000000  0.000000 -0.023124)
 88:   3306.65   0.003535   17.86  0.000334  ( 0.000523 -0.018258 -0.000000)
 89:   3324.33   0.002529   12.78  0.000237  ( 0.000000 -0.000000  0.015407)

* The epsilon (eps) is given for a Dirac delta lineshape.
** The dipole moment derivative (T) already includes vibrational overlap.

The first frequency considered to be a vibration is 6
The total number of vibrations considered is 84


--------------------------
THERMOCHEMISTRY AT 298.15K
--------------------------

Temperature         ... 298.15 K
Pressure            ... 1.00 atm
Total Mass          ... 221.28 AMU

Throughout the following assumptions are being made:
  (1) The electronic state is orbitally nondegenerate
  (2) There are no thermally accessible electronically excited states
  (3) Hindered rotations indicated by low frequency modes are not
      treated as such but are treated as vibrations and this may
      cause some error
  (4) All equations used are the standard statistical mechanics
      equations for an ideal gas
  (5) All vibrations are strictly harmonic

freq.      27.90  E(vib)   ...       0.55 
freq.      35.94  E(vib)   ...       0.54 
freq.      61.18  E(vib)   ...       0.51 
freq.      84.26  E(vib)   ...       0.48 
freq.     126.75  E(vib)   ...       0.43 
freq.     140.98  E(vib)   ...       0.41 
freq.     250.20  E(vib)   ...       0.31 
freq.     305.63  E(vib)   ...       0.26 
freq.     316.17  E(vib)   ...       0.25 
freq.     406.18  E(vib)   ...       0.19 
freq.     422.17  E(vib)   ...       0.18 
freq.     422.48  E(vib)   ...       0.18 
freq.     431.67  E(vib)   ...       0.18 
freq.     441.93  E(vib)   ...       0.17 
freq.     533.22  E(vib)   ...       0.13 
freq.     568.47  E(vib)   ...       0.11 
freq.     628.59  E(vib)   ...       0.09 
freq.     628.93  E(vib)   ...       0.09 
freq.     679.23  E(vib)   ...       0.08 
freq.     684.52  E(vib)   ...       0.07 
freq.     694.87  E(vib)   ...       0.07 
freq.     720.98  E(vib)   ...       0.07 
freq.     721.23  E(vib)   ...       0.07 
freq.     721.64  E(vib)   ...       0.07 
freq.     788.51  E(vib)   ...       0.05 
freq.     800.63  E(vib)   ...       0.05 
freq.     802.80  E(vib)   ...       0.05 
freq.     872.33  E(vib)   ...       0.04 
freq.     872.69  E(vib)   ...       0.04 
freq.     898.81  E(vib)   ...       0.03 
freq.     924.36  E(vib)   ...       0.03 
freq.     966.86  E(vib)   ...       0.03 
freq.     968.01  E(vib)   ...       0.03 
freq.     985.07  E(vib)   ...       0.02 
freq.     994.87  E(vib)   ...       0.02 
freq.    1023.34  E(vib)   ...       0.02 
freq.    1023.46  E(vib)   ...       0.02 
freq.    1032.54  E(vib)   ...       0.02 
freq.    1033.73  E(vib)   ...       0.02 
freq.    1056.36  E(vib)   ...       0.02 
freq.    1056.39  E(vib)   ...       0.02 
freq.    1064.69  E(vib)   ...       0.02 
freq.    1065.19  E(vib)   ...       0.02 
freq.    1097.45  E(vib)   ...       0.02 
freq.    1120.76  E(vib)   ...       0.01 
freq.    1122.74  E(vib)   ...       0.01 
freq.    1129.00  E(vib)   ...       0.01 
freq.    1144.82  E(vib)   ...       0.01 
freq.    1191.23  E(vib)   ...       0.01 
freq.    1191.34  E(vib)   ...       0.01 
freq.    1209.90  E(vib)   ...       0.01 
freq.    1210.79  E(vib)   ...       0.01 
freq.    1267.84  E(vib)   ...       0.01 
freq.    1286.12  E(vib)   ...       0.01 
freq.    1318.60  E(vib)   ...       0.01 
freq.    1327.61  E(vib)   ...       0.01 
freq.    1357.39  E(vib)   ...       0.01 
freq.    1362.17  E(vib)   ...       0.01 
freq.    1392.45  E(vib)   ...       0.00 
freq.    1417.07  E(vib)   ...       0.00 
freq.    1456.26  E(vib)   ...       0.00 
freq.    1517.85  E(vib)   ...       0.00 
freq.    1518.40  E(vib)   ...       0.00 
freq.    1549.31  E(vib)   ...       0.00 
freq.    1557.91  E(vib)   ...       0.00 
freq.    1628.10  E(vib)   ...       0.00 
freq.    1630.12  E(vib)   ...       0.00 
freq.    1686.16  E(vib)   ...       0.00 
freq.    1687.09  E(vib)   ...       0.00 
freq.    1687.70  E(vib)   ...       0.00 
freq.    1690.24  E(vib)   ...       0.00 
freq.    3214.90  E(vib)   ...       0.00 
freq.    3214.95  E(vib)   ...       0.00 
freq.    3217.53  E(vib)   ...       0.00 
freq.    3217.56  E(vib)   ...       0.00 
freq.    3227.67  E(vib)   ...       0.00 
freq.    3227.67  E(vib)   ...       0.00 
freq.    3237.14  E(vib)   ...       0.00 
freq.    3237.15  E(vib)   ...       0.00 
freq.    3245.46  E(vib)   ...       0.00 
freq.    3245.46  E(vib)   ...       0.00 
freq.    3304.54  E(vib)   ...       0.00 
freq.    3306.65  E(vib)   ...       0.00 
freq.    3324.33  E(vib)   ...       0.00 

------------
INNER ENERGY
------------

The inner energy is: U= E(el) + E(ZPE) + E(vib) + E(rot) + E(trans)
    E(el)   - is the total energy from the electronic structure calculation
              = E(kin-el) + E(nuc-el) + E(el-el) + E(nuc-nuc)
    E(ZPE)  - the the zero temperature vibrational energy from the frequency calculation
    E(vib)  - the the finite temperature correction to E(ZPE) due to population
              of excited vibrational states
    E(rot)  - is the rotational thermal energy
    E(trans)- is the translational thermal energy

Summary of contributions to the inner energy U:
Electronic energy                ...   -688.76642655 Eh
Zero point energy                ...      0.24891995 Eh     156.20 kcal/mol
Thermal vibrational correction   ...      0.00989985 Eh       6.21 kcal/mol
Thermal rotational correction    ...      0.00141627 Eh       0.89 kcal/mol
Thermal translational correction ...      0.00141627 Eh       0.89 kcal/mol
-----------------------------------------------------------------------
Total thermal energy                   -688.50477420 Eh


Summary of corrections to the electronic energy:
(perhaps to be used in another calculation)
Total thermal correction                  0.01273239 Eh       7.99 kcal/mol
Non-thermal (ZPE) correction              0.24891995 Eh     156.20 kcal/mol
-----------------------------------------------------------------------
Total correction                          0.26165235 Eh     164.19 kcal/mol


--------
ENTHALPY
--------

The enthalpy is H = U + kB*T
                kB is Boltzmann's constant
Total free energy                 ...   -688.50477420 Eh 
Thermal Enthalpy correction       ...      0.00094421 Eh       0.59 kcal/mol
-----------------------------------------------------------------------
Total Enthalpy                    ...   -688.50382999 Eh


Note: Rotational entropy computed according to Herzberg 
Infrared and Raman Spectra, Chapter V,1, Van Nostrand Reinhold, 1945 
Point Group:  C2, Symmetry Number:   2  
Rotational constants in cm-1:     0.053122     0.006776     0.006502 

Vibrational entropy computed according to the QRRHO of S. Grimme
Chem.Eur.J. 2012 18 9955


-------
ENTROPY
-------

The entropy contributions are T*S = T*(S(el)+S(vib)+S(rot)+S(trans))
     S(el)   - electronic entropy
     S(vib)  - vibrational entropy
     S(rot)  - rotational entropy
     S(trans)- translational entropy
The entropies will be listed as multiplied by the temperature to get
units of energy

Electronic entropy                ...      0.00000000 Eh      0.00 kcal/mol
Vibrational entropy               ...      0.01707838 Eh     10.72 kcal/mol
Rotational entropy                ...      0.01497713 Eh      9.40 kcal/mol
Translational entropy             ...      0.01999615 Eh     12.55 kcal/mol
-----------------------------------------------------------------------
Final entropy term                ...      0.05205165 Eh     32.66 kcal/mol

In case the symmetry of your molecule has not been determined correctly
or in case you have a reason to use a different symmetry number we print 
out the resulting rotational entropy values for sn=1,12 :
 --------------------------------------------------------
|  sn= 1 | S(rot)=       0.01563158 Eh      9.81 kcal/mol|
|  sn= 2 | S(rot)=       0.01497713 Eh      9.40 kcal/mol|
|  sn= 3 | S(rot)=       0.01459429 Eh      9.16 kcal/mol|
|  sn= 4 | S(rot)=       0.01432267 Eh      8.99 kcal/mol|
|  sn= 5 | S(rot)=       0.01411198 Eh      8.86 kcal/mol|
|  sn= 6 | S(rot)=       0.01393984 Eh      8.75 kcal/mol|
|  sn= 7 | S(rot)=       0.01379429 Eh      8.66 kcal/mol|
|  sn= 8 | S(rot)=       0.01366821 Eh      8.58 kcal/mol|
|  sn= 9 | S(rot)=       0.01355700 Eh      8.51 kcal/mol|
|  sn=10 | S(rot)=       0.01345753 Eh      8.44 kcal/mol|
|  sn=11 | S(rot)=       0.01336754 Eh      8.39 kcal/mol|
|  sn=12 | S(rot)=       0.01328538 Eh      8.34 kcal/mol|
 --------------------------------------------------------


-------------------
GIBBS FREE ENERGY
-------------------

The Gibbs free energy is G = H - T*S

Total enthalpy                    ...   -688.50382999 Eh 
Total entropy correction          ...     -0.05205165 Eh    -32.66 kcal/mol
-----------------------------------------------------------------------
Final Gibbs free energy         ...   -688.55588164 Eh

For completeness - the Gibbs free energy minus the electronic energy
G-E(el)                           ...      0.21054490 Eh    132.12 kcal/mol


Timings for individual modules:

Sum of individual times         ...     5290.681 sec (=  88.178 min)
GTO integral calculation        ...        4.871 sec (=   0.081 min)   0.1 %
SCF iterations                  ...     1273.414 sec (=  21.224 min)  24.1 %
SCF Gradient evaluation         ...      287.789 sec (=   4.796 min)   5.4 %
Geometry relaxation             ...        0.246 sec (=   0.004 min)   0.0 %
Analytical frequency calculation...     3724.361 sec (=  62.073 min)  70.4 %
                             ****ORCA TERMINATED NORMALLY****
TOTAL RUN TIME: 0 days 1 hours 28 minutes 12 seconds 530 msec
