34
Properties=species:S:1:pos:R:3 energy=-8360.907063802084 free_energy=-8360.907063802084 pbc="F F F"
C       -0.00000000       2.51452600       0.20946700
C        0.00000000      -2.51452600       0.20946700
N        0.00000100       1.08759400      -0.24269300
N        0.00000200      -1.08759500      -0.24269400
C        0.00000300       0.67951700      -1.56006300
C        0.00000400      -0.67951700      -1.56006400
C        0.00000100      -0.00000000       0.52697700
H        0.00000300       1.37978000      -2.39270000
H        0.00000500      -1.37978000      -2.39270100
H       -0.00000000      -0.00000000       1.61368500
C        1.26343900       3.17884900      -0.33950100
C        1.26343700      -3.17885000      -0.33950500
C       -1.26344100      -3.17884600      -0.33950000
C       -1.26343900       3.17884700      -0.33950400
H        1.28314700       3.16993300      -1.43964000
H        1.28314200      -3.16993600      -1.43964400
H       -1.28314900      -3.16993300      -1.43963900
H       -1.28314500       3.16993300      -1.43964300
H        1.29055200       4.22751100      -0.00916700
H        1.29055100      -4.22751100      -0.00917000
H       -1.29055900      -4.22750700      -0.00916300
H       -1.29055500       4.22750800      -0.00916800
H        2.16486200       2.67155500       0.03653000
H        2.16486200      -2.67155600       0.03652200
H       -2.16486200      -2.67154700       0.03652900
H       -2.16486200       2.67155100       0.03652500
C       -0.00000300       2.56108600       1.73419000
C        0.00000300      -2.56108600       1.73418900
H       -0.00000400       3.61542600       2.04423400
H        0.00000300      -3.61542600       2.04423400
H       -0.89832400       2.08679500       2.15838800
H       -0.89831800      -2.08679600       2.15839000
H        0.89832500      -2.08679700       2.15838800
H        0.89831900       2.08679700       2.15839100
