18
Properties=species:S:1:pos:R:3 energy=-8360.907063802084 free_energy=-8360.907063802084 pbc="F F F"
C        0.02863700       0.77026700      -1.26535700
C       -0.02864000      -0.77026800      -1.26535700
N        0.01426900       1.09833300       0.16537000
N       -0.01427100      -1.09833300       0.16536900
C        0.00000000      -0.00000100       0.88287000
H       -0.83729300       1.23186300      -1.76233400
H       -0.94840000      -1.16480300      -1.72311000
H        0.83728900      -1.23186400      -1.76233500
H        0.94839600       1.16480300      -1.72311100
C        0.04514500       2.45885000       0.65794300
C       -0.04514300      -2.45884900       0.65794200
H       -0.84533000       3.00344500       0.31087600
H       -0.94648600      -2.96848200       0.28657900
H        0.84533500      -3.00344100       0.31088000
H        0.94649200       2.96848000       0.28658600
H        0.06003300       2.44884300       1.75519800
H       -0.06003800      -2.44884100       1.75519700
H        0.00000100      -0.00000100       1.97748400
