33
	Energy:      56.3871406
N         -1.94028       -0.34693        0.36224
C         -0.95983       -1.34621        0.02080
N          0.22425       -0.59848       -0.34001
C         -0.08821        0.80197       -0.23199
C         -1.35908        0.93422        0.17771
C         -3.32238       -0.63410        0.74775
C          1.44291       -1.33738       -0.69897
C         -3.67582       -2.11539        0.52523
H         -4.00526       -0.04179        0.10046
C         -3.56805       -0.28770        2.22342
H          1.69179       -2.00172        0.15848
C          2.69303       -0.49884       -0.96020
C          1.17267       -2.22227       -1.92645
C          0.78619        2.00534       -0.52196
C         -2.09510        2.24105        0.37662
H         -3.39972        0.77917        2.43908
H         -2.89569       -0.88551        2.87557
H         -4.62127       -0.51152        2.49740
H         -3.53334       -2.38378       -0.54336
H         -4.74000       -2.30114        0.78542
H         -3.03853       -2.77610        1.15188
H          0.91820       -1.59345       -2.80657
H          0.33083       -2.91969       -1.73284
H          2.06666       -2.83616       -2.16880
H          2.57261        0.12058       -1.87322
H          3.55966       -1.16994       -1.14383
H          2.94401        0.10805       -0.06503
H         -1.47843        3.12428        0.12012
H         -2.39461        2.37008        1.43098
H         -2.99478        2.25892       -0.27228
H          1.80628        1.81447       -0.85561
H          0.87110        2.62138        0.39794
H          0.31338        2.61406       -1.32109
