      -----------------------------------------------------------      
     |                   =====================                   |     
     |                           x T B                           |     
     |                   =====================                   |     
     |                         S. Grimme                         |     
     |          Mulliken Center for Theoretical Chemistry        |     
     |                    University of Bonn                     |     
      -----------------------------------------------------------      

   * xtb version 6.6.1 (8d0f1dd) compiled by 'conda@1efc2f54142f' on 2023-08-01

   xtb is free software: you can redistribute it and/or modify it under
   the terms of the GNU Lesser General Public License as published by
   the Free Software Foundation, either version 3 of the License, or
   (at your option) any later version.
   
   xtb is distributed in the hope that it will be useful,
   but WITHOUT ANY WARRANTY; without even the implied warranty of
   MERCHANTABILITY or FITNESS FOR A PARTICULAR PURPOSE.  See the
   GNU Lesser General Public License for more details.
   
   Cite this work as:
   * C. Bannwarth, E. Caldeweyher, S. Ehlert, A. Hansen, P. Pracht,
     J. Seibert, S. Spicher, S. Grimme, WIREs Comput. Mol. Sci., 2020, 11,
     e01493. DOI: 10.1002/wcms.1493
   
   for GFN2-xTB:
   * C. Bannwarth, S. Ehlert and S. Grimme., J. Chem. Theory Comput., 2019,
     15, 1652-1671. DOI: 10.1021/acs.jctc.8b01176
   for GFN1-xTB:
   * S. Grimme, C. Bannwarth, P. Shushkov, J. Chem. Theory Comput., 2017,
     13, 1989-2009. DOI: 10.1021/acs.jctc.7b00118
   for GFN0-xTB:
   * P. Pracht, E. Caldeweyher, S. Ehlert, S. Grimme, ChemRxiv, 2019, preprint.
     DOI: 10.26434/chemrxiv.8326202.v1
   for GFN-FF:
   * S. Spicher and S. Grimme, Angew. Chem. Int. Ed., 2020, 59, 15665-15673.
     DOI: 10.1002/anie.202004239
   
   for ALPB and GBSA implicit solvation:
   * S. Ehlert, M. Stahn, S. Spicher, S. Grimme, J. Chem. Theory Comput.,
     2021, 17, 4250-4261. DOI: 10.1021/acs.jctc.1c00471
   
   for DFT-D4:
   * E. Caldeweyher, C. Bannwarth and S. Grimme, J. Chem. Phys., 2017,
     147, 034112. DOI: 10.1063/1.4993215
   * E. Caldeweyher, S. Ehlert, A. Hansen, H. Neugebauer, S. Spicher,
     C. Bannwarth and S. Grimme, J. Chem. Phys., 2019, 150, 154122.
     DOI: 10.1063/1.5090222
   * E. Caldeweyher, J.-M. Mewes, S. Ehlert and S. Grimme, Phys. Chem. Chem. Phys.
     2020, 22, 8499-8512. DOI: 10.1039/D0CP00502A
   
   for sTDA-xTB:
   * S. Grimme and C. Bannwarth, J. Chem. Phys., 2016, 145, 054103.
     DOI: 10.1063/1.4959605
   
   in the mass-spec context:
   * V. Asgeirsson, C. Bauer and S. Grimme, Chem. Sci., 2017, 8, 4879.
     DOI: 10.1039/c7sc00601b
   * J. Koopman and S. Grimme, ACS Omega 2019, 4, 12, 15120-15133.
     DOI: 10.1021/acsomega.9b02011
   
   for metadynamics refer to:
   * S. Grimme, J. Chem. Theory Comput., 2019, 155, 2847-2862
     DOI: 10.1021/acs.jctc.9b00143
   
   for SPH calculations refer to:
   * S. Spicher and S. Grimme, J. Chem. Theory Comput., 2021, 17, 1701-1714
     DOI: 10.1021/acs.jctc.0c01306
   
   with help from (in alphabetical order)
   P. Atkinson, C. Bannwarth, F. Bohle, G. Brandenburg, E. Caldeweyher
   M. Checinski, S. Dohm, S. Ehlert, S. Ehrlich, I. Gerasimov, C. Hölzer
   A. Katbashev, J. Koopman, C. Lavigne, S. Lehtola, F. März, M. Müller,
   F. Musil, H. Neugebauer, J. Pisarek, C. Plett, P. Pracht, F. Pultar,
   J. Seibert, P. Shushkov, S. Spicher, M. Stahn, M. Steiner, T. Strunk,
   J. Stückrath, T. Rose, and J. Unsleber
   
 * started run on 2024/02/12 at 14:13:51.602     

           -------------------------------------------------
          |                Calculation Setup                |
           -------------------------------------------------

          program call               : xtb struc.xyz --gfn2 --ceasefiles --opt
          hostname                   : node021
          coordinate file            : struc.xyz
          omp threads                :                     1

   ID    Z sym.   atoms
    1    6 C      1, 2, 5-7, 11-14, 27, 28
    2    7 N      3, 4
    3    1 H      8-10, 15-26, 29-34

           -------------------------------------------------
          |                 G F N 2 - x T B                 |
           -------------------------------------------------

        Reference                      10.1021/acs.jctc.8b01176
      * Hamiltonian:
        H0-scaling (s, p, d)           1.850000    2.230000    2.230000
        zeta-weighting                 0.500000
      * Dispersion:
        s8                             2.700000
        a1                             0.520000
        a2                             5.000000
        s9                             5.000000
      * Repulsion:
        kExp                           1.500000    1.000000
        rExp                           1.000000
      * Coulomb:
        alpha                          2.000000
        third order                    shell-resolved
        anisotropic                    true
        a3                             3.000000
        a5                             4.000000
        cn-shift                       1.200000
        cn-exp                         4.000000
        max-rad                        5.000000


          ...................................................
          :                      SETUP                      :
          :.................................................:
          :  # basis functions                  73          :
          :  # atomic orbitals                  73          :
          :  # shells                           47          :
          :  # electrons                        74          :
          :  max. iterations                   250          :
          :  Hamiltonian                  GFN2-xTB          :
          :  restarted?                      false          :
          :  GBSA solvation                  false          :
          :  PC potential                    false          :
          :  electronic temp.          300.0000000     K    :
          :  accuracy                    1.0000000          :
          :  -> integral cutoff          0.2500000E+02      :
          :  -> integral neglect         0.1000000E-07      :
          :  -> SCF convergence          0.1000000E-05 Eh   :
          :  -> wf. convergence          0.1000000E-03 e    :
          :  Broyden damping             0.4000000          :
          ...................................................

 iter      E             dE          RMSdq      gap      omega  full diag
   1    -40.2468676 -0.402469E+02  0.260E+00    5.59       0.0  T
   2    -40.3515366 -0.104669E+00  0.182E+00    4.67       1.0  T
   3    -40.3583494 -0.681283E-02  0.103E+00    4.87       1.0  T
   4    -40.3582235  0.125886E-03  0.283E-01    4.62       1.0  T
   5    -40.3592881 -0.106451E-02  0.827E-02    4.70       1.0  T
   6    -40.3593765 -0.884376E-04  0.401E-02    4.68       1.0  T
   7    -40.3593821 -0.564794E-05  0.186E-02    4.70       1.0  T
   8    -40.3593865 -0.431800E-05  0.170E-03    4.69      10.1  T
   9    -40.3593865 -0.621984E-08  0.812E-04    4.69      21.1  T
  10    -40.3593865 -0.112627E-08  0.103E-04    4.69     166.5  T

   *** convergence criteria satisfied after 10 iterations ***

         #    Occupation            Energy/Eh            Energy/eV
      -------------------------------------------------------------
         1        2.0000           -0.8802905             -23.9539
       ...           ...                  ...                  ...
        31        2.0000           -0.5849399             -15.9170
        32        2.0000           -0.5833375             -15.8734
        33        2.0000           -0.5790203             -15.7559
        34        2.0000           -0.5744577             -15.6318
        35        2.0000           -0.5726895             -15.5837
        36        2.0000           -0.5696556             -15.5011
        37        2.0000           -0.5676068             -15.4454 (HOMO)
        38                         -0.3951839             -10.7535 (LUMO)
        39                         -0.3589955              -9.7688
        40                         -0.1998530              -5.4383
        41                         -0.1492474              -4.0612
        42                         -0.0858647              -2.3365
       ...                                ...                  ...
        73                          0.4612875              12.5523
      -------------------------------------------------------------
                  HL-Gap            0.1724229 Eh            4.6919 eV
             Fermi-level           -0.4813954 Eh          -13.0994 eV

 SCC (total)                   0 d,  0 h,  0 min,  0.295 sec
 SCC setup                      ...        0 min,  0.001 sec (  0.188%)
 Dispersion                     ...        0 min,  0.000 sec (  0.159%)
 classical contributions        ...        0 min,  0.000 sec (  0.042%)
 integral evaluation            ...        0 min,  0.006 sec (  2.011%)
 iterations                     ...        0 min,  0.271 sec ( 91.668%)
 molecular gradient             ...        0 min,  0.017 sec (  5.834%)
 printout                       ...        0 min,  0.000 sec (  0.092%)

         :::::::::::::::::::::::::::::::::::::::::::::::::::::
         ::                     SUMMARY                     ::
         :::::::::::::::::::::::::::::::::::::::::::::::::::::
         :: total energy             -39.747595025111 Eh    ::
         :: gradient norm              0.080727553293 Eh/a0 ::
         :: HOMO-LUMO gap              4.691865445073 eV    ::
         ::.................................................::
         :: SCC energy               -40.359386463055 Eh    ::
         :: -> isotropic ES            0.077001371158 Eh    ::
         :: -> anisotropic ES         -0.006316723487 Eh    ::
         :: -> anisotropic XC          0.026854981437 Eh    ::
         :: -> dispersion             -0.028097637422 Eh    ::
         :: repulsion energy           0.611510423710 Eh    ::
         :: add. restraining           0.000000000000 Eh    ::
         :: total charge               1.000000000000 e     ::
         :::::::::::::::::::::::::::::::::::::::::::::::::::::

      ----------------------------------------------------------- 
     |                   =====================                   |
     |                        A N C O P T                        |
     |                   =====================                   |
     |               Approximate Normal Coordinate               |
     |                Rational Function Optimizer                |
      ----------------------------------------------------------- 

Optimization log is written to '/dev/null'

          ...................................................
          :                      SETUP                      :
          :.................................................:
          :   optimization level             crude          :
          :   max. optcycles                   200          :
          :   ANC micro-cycles                  20          :
          :   degrees of freedom                96          :
          :.................................................:
          :   RF solver                   davidson          :
          :   write xtbopt.log                true          :
          :   linear?                        false          :
          :   energy convergence         0.5000000E-03 Eh   :
          :   grad. convergence          0.1000000E-01 Eh/α :
          :   maxmium RF displ.          1.0000000          :
          :   Hlow (freq-cutoff)         0.5000000E-02      :
          :   Hmax (freq-cutoff)         5.0000000          :
          :   S6 in model hess.         20.0000000          :
          ...................................................

generating ANC from model Hessian ...
Using Lindh-Hessian (1995)
 Shifting diagonal of input Hessian by    4.2427191080698463E-003
 Lowest  eigenvalues of input Hessian
    0.000000    0.000000    0.000000    0.000000    0.000000    0.000000
    0.005000    0.005211    0.006729    0.008574    0.009300    0.009731
    0.011181    0.013860    0.014076    0.014189    0.014205    0.014413
 Highest eigenvalues
    1.321278    1.694222    1.993252    2.036240    2.153726    2.214488


........................................................................
.............................. CYCLE    1 ..............................
........................................................................

 iter      E             dE          RMSdq      gap      omega  full diag
   1    -40.3593865 -0.403594E+02  0.375E-05    4.69       0.0  T
   2    -40.3593865 -0.117737E-10  0.176E-05    4.69     972.1  T
   3    -40.3593865 -0.214584E-11  0.109E-05    4.69    1570.7  T
     SCC iter.                  ...        0 min,  0.006 sec
     gradient                   ...        0 min,  0.017 sec
 * total energy  :   -39.7475950 Eh     change       -0.3233680E-10 Eh
   gradient norm :     0.0807276 Eh/α   predicted     0.0000000E+00 (-100.00%)
   displ. norm   :     0.4798846 α      lambda       -0.2678941E-01
   maximum displ.:     0.1724739 α      in ANC's #34, #39, #21, ...

........................................................................
.............................. CYCLE    2 ..............................
........................................................................

 iter      E             dE          RMSdq      gap      omega  full diag
   1    -40.3708830 -0.403709E+02  0.410E-01    4.77       0.0  T
   2    -40.3709513 -0.682912E-04  0.238E-01    4.79       1.0  T
   3    -40.3709368  0.145566E-04  0.349E-02    4.77       1.0  T
   4    -40.3709659 -0.291299E-04  0.114E-02    4.79       1.5  T
   5    -40.3709679 -0.203227E-05  0.525E-03    4.78       3.3  T
   6    -40.3709680 -0.910688E-07  0.783E-04    4.78      21.9  T
   7    -40.3709680 -0.785450E-08  0.359E-04    4.78      47.7  T
     SCC iter.                  ...        0 min,  0.013 sec
     gradient                   ...        0 min,  0.017 sec
 * total energy  :   -39.7655804 Eh     change       -0.1798539E-01 Eh
   gradient norm :     0.0315757 Eh/α   predicted    -0.1648080E-01 (  -8.37%)
   displ. norm   :     0.4220241 α      lambda       -0.7051517E-02
   maximum displ.:     0.1892493 α      in ANC's #11, #10, #18, ...

........................................................................
.............................. CYCLE    3 ..............................
........................................................................

 iter      E             dE          RMSdq      gap      omega  full diag
   1    -40.3742561 -0.403743E+02  0.211E-01    4.80       0.0  T
   2    -40.3742727 -0.166418E-04  0.121E-01    4.80       1.0  T
   3    -40.3742750 -0.223254E-05  0.109E-02    4.80       1.6  T
   4    -40.3742763 -0.137389E-05  0.510E-03    4.80       3.4  T
   5    -40.3742765 -0.200135E-06  0.249E-03    4.80       6.9  T
   6    -40.3742766 -0.614345E-07  0.429E-04    4.80      39.9  T
   7    -40.3742766 -0.194502E-08  0.192E-04    4.80      89.2  T
     SCC iter.                  ...        0 min,  0.012 sec
     gradient                   ...        0 min,  0.018 sec
 * total energy  :   -39.7702072 Eh     change       -0.4626816E-02 Eh
   gradient norm :     0.0154330 Eh/α   predicted    -0.4153713E-02 ( -10.23%)
   displ. norm   :     0.3961833 α      lambda       -0.2377209E-02
   maximum displ.:     0.2183092 α      in ANC's #11, #10, #14, ...

........................................................................
.............................. CYCLE    4 ..............................
........................................................................

 iter      E             dE          RMSdq      gap      omega  full diag
   1    -40.3749648 -0.403750E+02  0.101E-01    4.81       0.0  T
   2    -40.3749710 -0.615711E-05  0.583E-02    4.81       1.0  T
   3    -40.3749695  0.144105E-05  0.115E-02    4.82       1.5  T
   4    -40.3749719 -0.233961E-05  0.315E-03    4.81       5.4  T
   5    -40.3749720 -0.171388E-06  0.138E-03    4.81      12.4  T
   6    -40.3749720 -0.494740E-08  0.398E-04    4.81      43.1  T
   7    -40.3749720 -0.275667E-08  0.120E-04    4.81     143.4  T
     SCC iter.                  ...        0 min,  0.012 sec
     gradient                   ...        0 min,  0.017 sec
 * total energy  :   -39.7719878 Eh     change       -0.1780540E-02 Eh
   gradient norm :     0.0142504 Eh/α   predicted    -0.1375209E-02 ( -22.76%)
   displ. norm   :     0.4528323 α      lambda       -0.1901462E-02
   maximum displ.:     0.2571630 α      in ANC's #11, #10, #14, ...

........................................................................
.............................. CYCLE    5 ..............................
........................................................................

 iter      E             dE          RMSdq      gap      omega  full diag
   1    -40.3760910 -0.403761E+02  0.101E-01    4.82       0.0  T
   2    -40.3760956 -0.452467E-05  0.587E-02    4.82       1.0  T
   3    -40.3760929  0.264554E-05  0.128E-02    4.83       1.3  T
   4    -40.3760965 -0.358966E-05  0.277E-03    4.82       6.2  T
   5    -40.3760966 -0.127352E-06  0.123E-03    4.82      13.9  T
   6    -40.3760966 -0.495953E-08  0.348E-04    4.82      49.3  T
   7    -40.3760966 -0.201517E-08  0.104E-04    4.82     164.8  T
     SCC iter.                  ...        0 min,  0.012 sec
     gradient                   ...        0 min,  0.017 sec
 * total energy  :   -39.7733972 Eh     change       -0.1409457E-02 Eh
   gradient norm :     0.0136840 Eh/α   predicted    -0.1145699E-02 ( -18.71%)
   displ. norm   :     0.4136389 α      lambda       -0.1340429E-02
   maximum displ.:     0.2226979 α      in ANC's #11, #10, #8, ...

........................................................................
.............................. CYCLE    6 ..............................
........................................................................

 iter      E             dE          RMSdq      gap      omega  full diag
   1    -40.3787763 -0.403788E+02  0.920E-02    4.82       0.0  T
   2    -40.3787795 -0.321473E-05  0.538E-02    4.82       1.0  T
   3    -40.3787783  0.115059E-05  0.898E-03    4.82       1.9  T
   4    -40.3787801 -0.171873E-05  0.252E-03    4.82       6.8  T
   5    -40.3787801 -0.939730E-07  0.115E-03    4.82      14.9  T
   6    -40.3787801 -0.259919E-08  0.250E-04    4.82      68.5  T
   7    -40.3787802 -0.147184E-08  0.843E-05    4.82     203.5  T
     SCC iter.                  ...        0 min,  0.012 sec
     gradient                   ...        0 min,  0.016 sec
 * total energy  :   -39.7743803 Eh     change       -0.9830562E-03 Eh
   gradient norm :     0.0122568 Eh/α   predicted    -0.7848915E-03 ( -20.16%)
   displ. norm   :     0.3717242 α      lambda       -0.9215832E-03
   maximum displ.:     0.1812652 α      in ANC's #11, #8, #4, ...

........................................................................
.............................. CYCLE    7 ..............................
........................................................................

 iter      E             dE          RMSdq      gap      omega  full diag
   1    -40.3809636 -0.403810E+02  0.795E-02    4.82       0.0  T
   2    -40.3809653 -0.170384E-05  0.468E-02    4.82       1.0  T
   3    -40.3809651  0.174128E-06  0.528E-03    4.83       3.3  T
   4    -40.3809657 -0.568246E-06  0.214E-03    4.82       8.0  T
   5    -40.3809657 -0.475115E-07  0.984E-04    4.82      17.4  T
   6    -40.3809658 -0.423009E-08  0.117E-04    4.82     146.6  T
     SCC iter.                  ...        0 min,  0.010 sec
     gradient                   ...        0 min,  0.016 sec
 * total energy  :   -39.7750397 Eh     change       -0.6594300E-03 Eh
   gradient norm :     0.0123046 Eh/α   predicted    -0.5244690E-03 ( -20.47%)
   displ. norm   :     0.3173006 α      lambda       -0.8225262E-03
   maximum displ.:     0.1540451 α      in ANC's #4, #8, #11, ...

........................................................................
.............................. CYCLE    8 ..............................
........................................................................

 iter      E             dE          RMSdq      gap      omega  full diag
   1    -40.3877534 -0.403878E+02  0.785E-02    4.82       0.0  T
   2    -40.3877613 -0.782839E-05  0.450E-02    4.83       1.0  T
   3    -40.3877618 -0.538218E-06  0.827E-03    4.82       2.1  T
   4    -40.3877620 -0.181917E-06  0.249E-03    4.83       6.9  T
   5    -40.3877620 -0.162264E-07  0.143E-03    4.83      12.0  T
   6    -40.3877620 -0.162538E-07  0.376E-04    4.83      45.6  T
   7    -40.3877620 -0.239370E-08  0.960E-05    4.83     178.7  T
     SCC iter.                  ...        0 min,  0.012 sec
     gradient                   ...        0 min,  0.017 sec
 * total energy  :   -39.7754187 Eh     change       -0.3789560E-03 Eh
   gradient norm :     0.0129997 Eh/α   predicted    -0.4526697E-03 (  19.45%)
   displ. norm   :     0.3705878 α      lambda       -0.7871642E-03
   maximum displ.:     0.1653347 α      in ANC's #4, #11, #8, ...

........................................................................
.............................. CYCLE    9 ..............................
........................................................................

 iter      E             dE          RMSdq      gap      omega  full diag
   1    -40.3828310 -0.403828E+02  0.875E-02    4.83       0.0  T
   2    -40.3828392 -0.818149E-05  0.507E-02    4.83       1.0  T
   3    -40.3828398 -0.558137E-06  0.809E-03    4.83       2.1  T
   4    -40.3828399 -0.145986E-06  0.230E-03    4.83       7.4  T
   5    -40.3828399 -0.108513E-08  0.107E-03    4.83      16.1  T
   6    -40.3828399 -0.937004E-08  0.226E-04    4.83      75.8  T
   7    -40.3828399 -0.986638E-09  0.808E-05    4.83     212.2  T
     SCC iter.                  ...        0 min,  0.012 sec
     gradient                   ...        0 min,  0.017 sec
 * total energy  :   -39.7758236 Eh     change       -0.4048856E-03 Eh
   gradient norm :     0.0116840 Eh/α   predicted    -0.4476352E-03 (  10.56%)
   displ. norm   :     0.1161083 α      lambda       -0.3848557E-03
   maximum displ.:     0.0630647 α      in ANC's #5, #4, #13, ...

........................................................................
.............................. CYCLE   10 ..............................
........................................................................

 iter      E             dE          RMSdq      gap      omega  full diag
   1    -40.3868899 -0.403869E+02  0.419E-02    4.83       0.0  T
   2    -40.3868915 -0.167965E-05  0.238E-02    4.83       1.0  T
   3    -40.3868913  0.263543E-06  0.560E-03    4.83       3.1  T
   4    -40.3868917 -0.425113E-06  0.164E-03    4.83      10.4  T
   5    -40.3868918 -0.581463E-07  0.690E-04    4.83      24.9  T
   6    -40.3868918 -0.371294E-09  0.222E-04    4.83      77.2  T
     SCC iter.                  ...        0 min,  0.011 sec
     gradient                   ...        0 min,  0.017 sec
 * total energy  :   -39.7761066 Eh     change       -0.2830643E-03 Eh
   gradient norm :     0.0069331 Eh/α   predicted    -0.1950225E-03 ( -31.10%)
   displ. norm   :     0.5049196 α      lambda       -0.1015001E-02
   maximum displ.:     0.2899709 α      in ANC's #8, #4, #5, ...

   *** GEOMETRY OPTIMIZATION CONVERGED AFTER 10 ITERATIONS ***

------------------------------------------------------------------------
 total energy gain   :        -0.0285116 Eh      -17.8913 kcal/mol
 total RMSD          :         0.4563966 a0        0.2415 Å
 total power (kW/mol):        -7.4857185 (step) -192.3369 (real)
------------------------------------------------------------------------

 ANCopt (total)                0 d,  0 h,  0 min,  0.389 sec
 optimizer setup                ...        0 min,  0.000 sec (  0.033%)
 model hessian                  ...        0 min,  0.039 sec (  9.921%)
 ANC generation                 ...        0 min,  0.001 sec (  0.384%)
 coordinate transformation      ...        0 min,  0.000 sec (  0.063%)
 single point calculation       ...        0 min,  0.344 sec ( 88.320%)
 optimization log               ...        0 min,  0.002 sec (  0.485%)
 hessian update                 ...        0 min,  0.000 sec (  0.060%)
 rational function              ...        0 min,  0.002 sec (  0.476%)

================
 final structure:
================
34
 xtb: 6.6.1 (8d0f1dd)
C           -2.17843534211648        0.74319596890373        1.01862760646016
C            2.29813573700396       -0.36627083786104       -0.86117378619099
N           -1.08157855330442        0.04868346006699        0.32151128082194
N            0.86180620846161       -0.44949052528080       -0.52612946234630
C           -1.20985660610874       -1.14394572782635       -0.32520342502399
C            0.00458301126527       -1.45656597047503       -0.85141185035438
C            0.17878354649416        0.44519815419706        0.18427140477349
H           -2.13349883526878       -1.68126633840927       -0.37132173569126
H            0.28751795775766       -2.32053942953073       -1.41312790011081
H            0.58774432200315        1.34967284967197        0.58496201650291
C           -1.60974819306670        1.88432260772882        1.85926384581965
C            3.09014080242995       -0.68146191470352        0.40766399822659
C            2.59644655022685        1.05131938007582       -1.35542540112548
C           -3.12434220323740        1.29878842601578       -0.04842200132442
H           -1.13182510533638        2.64020259411533        1.23664508780547
H            2.86471472199548       -1.68267032158274        0.76588554617887
H            2.47171305878014        1.79041931429887       -0.57000103980680
H           -2.60642042344273        1.98542151799248       -0.71434233185340
H           -2.42856400369882        2.37045736071613        2.38990815968870
H            2.86368820499096        0.03079375394027        1.19835350204017
H            3.62585345842457        1.10575897171081       -1.69349146315686
H           -3.92817205437147        1.84174298191114        0.43594664157047
H           -0.90236843580918        1.51066960733620        2.59883944845390
H            4.15197345289056       -0.62595370530358        0.19594286388031
H            1.95124279930454        1.30881788422996       -2.19146250004423
H           -3.56087898604945        0.50290666146441       -0.64200443218772
C           -2.89976840397067       -0.27533393282397        1.91319561134441
C            2.62921671258271       -1.36998694227850       -1.96033923182597
H           -3.22226238272288        0.19846990987347        2.83548185753624
H            2.02136967777507       -1.19862655810435       -2.84323694112374
H           -3.78275503620476       -0.67661341561406        1.42386507032868
H            2.50556629073598       -2.39467694064646       -1.62456207687595
H            3.66970371593249       -1.24802179021718       -2.24391878624920
H           -2.24765036234621       -1.10319120309157        2.18214079245951

 Bond Distances (Angstroems)
 ---------------------------
C1-N3=1.4736         C1-C11=1.5272        C1-C14=1.5304        C1-C27=1.5356        C2-N4=1.4772         C2-C12=1.5286        
C2-C13=1.5306        C2-C28=1.5249        N3-C1=1.4736         N3-C5=1.3627         N3-C7=1.3284         N4-C2=1.4772         
N4-C6=1.3619         N4-C7=1.3310         C5-N3=1.3627         C5-C6=1.3600         C5-H8=1.0696         C6-N4=1.3619         
C6-C5=1.3600         C6-H9=1.0687         C7-N3=1.3284         C7-N4=1.3310         C7-H10=1.0705        H8-C5=1.0696         
H9-C6=1.0687         H10-C7=1.0705        C11-C1=1.5272        C11-H15=1.0897       C11-H19=1.0901       C11-H23=1.0895       
C12-C2=1.5286        C12-H16=1.0870       C12-H20=1.0880       C12-H24=1.0842       C13-C2=1.5306        C13-H17=1.0857       
C13-H21=1.0849       C13-H25=1.0870       C14-C1=1.5304        C14-H18=1.0877       C14-H22=1.0842       C14-H26=1.0846       
H15-C11=1.0897       H16-C12=1.0870       H17-C13=1.0857       H18-C14=1.0877       H19-C11=1.0901       H20-C12=1.0880       
H21-C13=1.0849       H22-C14=1.0842       H23-C11=1.0895       H24-C12=1.0842       H25-C13=1.0870       H26-C14=1.0846       
C27-C1=1.5356        C27-H29=1.0859       C27-H31=1.0863       C27-H34=1.0876       C28-C2=1.5249        C28-H30=1.0855       
C28-H32=1.0854       C28-H33=1.0853       H29-C27=1.0859       H30-C28=1.0855       H31-C27=1.0863       H32-C28=1.0854       
H33-C28=1.0853       H34-C27=1.0876       
 C  H  Rav=1.0842 sigma=0.0062  Rmin=1.0687  Rmax=1.0901    21
 C  C  Rav=1.5053 sigma=0.0594  Rmin=1.3600  Rmax=1.5356     7
 N  C  Rav=1.3891 sigma=0.0624  Rmin=1.3284  Rmax=1.4772     6

 selected bond angles (degree)
 --------------------
C11-C1-N3=109.60               C14-C1-N3=107.54               C14-C1-C11=110.04              C27-C1-N3=108.22               
C27-C1-C11=110.48              C27-C1-C14=110.89              C12-C2-N4=107.69               C13-C2-N4=108.36               
C13-C2-C12=110.98              C28-C2-N4=109.73               C28-C2-C12=110.49              C28-C2-C13=109.54              
C5-N3-C1=124.54                C7-N3-C1=127.91                C7-N3-C5=107.55                C6-N4-C2=126.83                
C7-N4-C2=125.60                C7-N4-C6=107.55                C6-C5-N3=107.50                H8-C5-N3=122.78                
H8-C5-C6=129.72                C5-C6-N4=107.44                H9-C6-N4=123.83                H9-C6-C5=128.73                
N4-C7-N3=109.96                H10-C7-N3=125.17               H10-C7-N4=124.87               

 selected dihedral angles (degree)
 ---------------------------------
C5-N3-C1-C11=168.35           C5-N3-C1-C14=287.96           C5-N3-C1-C27= 47.81           C7-N3-C1-C11=347.47           
C7-N3-C1-C14=107.08           C7-N3-C1-C27=226.93           C6-N4-C2-C12=255.59           C6-N4-C2-C13=135.48           
C6-N4-C2-C28= 15.91           C7-N4-C2-C12= 73.85           C7-N4-C2-C13=313.73           C7-N4-C2-C28=194.17           
C6-C5-N3-C1=179.43            C6-C5-N3-C7=  0.16            H8-C5-N3-C1=359.55            H8-C5-N3-C7=180.28            
C5-C6-N4-C2=178.76            C5-C6-N4-C7=  0.25            H9-C6-N4-C2=359.30            H9-C6-N4-C7=180.78            
N4-C6-C5-N3=359.75            N4-C6-C5-H8=179.62            H9-C6-C5-N3=179.18            H9-C6-C5-H8=359.05            
N4-C7-N3-C1=180.76            N4-C7-N3-C5=  0.00            H10-C7-N3-C1=  0.78           H10-C7-N3-C5=180.02           
N3-C7-N4-C2=181.31            N3-C7-N4-C6=359.85            H10-C7-N4-C2=  1.28           H10-C7-N4-C6=179.82           
           -------------------------------------------------
          |                Final Singlepoint                |
           -------------------------------------------------

          ...................................................
          :                      SETUP                      :
          :.................................................:
          :  # basis functions                  73          :
          :  # atomic orbitals                  73          :
          :  # shells                           47          :
          :  # electrons                        74          :
          :  max. iterations                   250          :
          :  Hamiltonian                  GFN2-xTB          :
          :  restarted?                      false          :
          :  GBSA solvation                  false          :
          :  PC potential                    false          :
          :  electronic temp.          300.0000000     K    :
          :  accuracy                    1.0000000          :
          :  -> integral cutoff          0.2500000E+02      :
          :  -> integral neglect         0.1000000E-07      :
          :  -> SCF convergence          0.1000000E-05 Eh   :
          :  -> wf. convergence          0.1000000E-03 e    :
          :  Broyden damping             0.4000000          :
          ...................................................

 iter      E             dE          RMSdq      gap      omega  full diag
   1    -40.3868918 -0.403869E+02  0.536E-05    4.83       0.0  T
   2    -40.3868918 -0.322729E-10  0.334E-05    4.83     512.7  T
   3    -40.3868918 -0.228795E-10  0.152E-05    4.83    1128.3  T

   *** convergence criteria satisfied after 3 iterations ***

         #    Occupation            Energy/Eh            Energy/eV
      -------------------------------------------------------------
         1        2.0000           -0.8781310             -23.8952
       ...           ...                  ...                  ...
        31        2.0000           -0.5897136             -16.0469
        32        2.0000           -0.5882800             -16.0079
        33        2.0000           -0.5815193             -15.8239
        34        2.0000           -0.5781686             -15.7328
        35        2.0000           -0.5773224             -15.7097
        36        2.0000           -0.5727028             -15.5840
        37        2.0000           -0.5700604             -15.5121 (HOMO)
        38                         -0.3925568             -10.6820 (LUMO)
        39                         -0.3563046              -9.6955
        40                         -0.1977834              -5.3820
        41                         -0.1464968              -3.9864
        42                         -0.0745946              -2.0298
       ...                                ...                  ...
        73                          0.4752829              12.9331
      -------------------------------------------------------------
                  HL-Gap            0.1775036 Eh            4.8301 eV
             Fermi-level           -0.4813086 Eh          -13.0971 eV

 SCC (total)                   0 d,  0 h,  0 min,  0.030 sec
 SCC setup                      ...        0 min,  0.000 sec (  1.111%)
 Dispersion                     ...        0 min,  0.000 sec (  1.083%)
 classical contributions        ...        0 min,  0.000 sec (  0.424%)
 integral evaluation            ...        0 min,  0.006 sec ( 20.836%)
 iterations                     ...        0 min,  0.006 sec ( 20.546%)
 molecular gradient             ...        0 min,  0.016 sec ( 55.233%)
 printout                       ...        0 min,  0.000 sec (  0.704%)

         :::::::::::::::::::::::::::::::::::::::::::::::::::::
         ::                     SUMMARY                     ::
         :::::::::::::::::::::::::::::::::::::::::::::::::::::
         :: total energy             -39.776106621710 Eh    ::
         :: gradient norm              0.006933839401 Eh/a0 ::
         :: HOMO-LUMO gap              4.830119512162 eV    ::
         ::.................................................::
         :: SCC energy               -40.386891767248 Eh    ::
         :: -> isotropic ES            0.076368545086 Eh    ::
         :: -> anisotropic ES         -0.006223860809 Eh    ::
         :: -> anisotropic XC          0.025775181664 Eh    ::
         :: -> dispersion             -0.027863618636 Eh    ::
         :: repulsion energy           0.610512443713 Eh    ::
         :: add. restraining           0.000000000000 Eh    ::
         :: total charge               1.000000000000 e     ::
         :::::::::::::::::::::::::::::::::::::::::::::::::::::

           -------------------------------------------------
          |                Property Printout                |
           -------------------------------------------------

    * Orbital Energies and Occupations

         #    Occupation            Energy/Eh            Energy/eV
      -------------------------------------------------------------
         1        2.0000           -0.8781310             -23.8952
       ...           ...                  ...                  ...
        25        2.0000           -0.6009446             -16.3525
        26        2.0000           -0.6003497             -16.3363
        27        2.0000           -0.6000020             -16.3269
        28        2.0000           -0.5961821             -16.2229
        29        2.0000           -0.5931147             -16.1395
        30        2.0000           -0.5917641             -16.1027
        31        2.0000           -0.5897136             -16.0469
        32        2.0000           -0.5882800             -16.0079
        33        2.0000           -0.5815193             -15.8239
        34        2.0000           -0.5781686             -15.7328
        35        2.0000           -0.5773224             -15.7097
        36        2.0000           -0.5727028             -15.5840
        37        2.0000           -0.5700604             -15.5121 (HOMO)
        38                         -0.3925568             -10.6820 (LUMO)
        39                         -0.3563046              -9.6955
        40                         -0.1977834              -5.3820
        41                         -0.1464968              -3.9864
        42                         -0.0745946              -2.0298
        43                         -0.0624304              -1.6988
        44                         -0.0583133              -1.5868
        45                         -0.0567277              -1.5436
        46                         -0.0454230              -1.2360
        47                         -0.0382775              -1.0416
        48                         -0.0311367              -0.8473
       ...                                ...                  ...
        73                          0.4752829              12.9331
      -------------------------------------------------------------
                  HL-Gap            0.1775036 Eh            4.8301 eV
             Fermi-level           -0.4813086 Eh          -13.0971 eV

     #   Z          covCN         q      C6AA      α(0)
     1   6 C        3.836     0.075    19.309     6.252
     2   6 C        3.836     0.075    19.307     6.251
     3   7 N        2.870     0.047    20.415     6.711
     4   7 N        2.871     0.046    20.443     6.715
     5   6 C        3.080    -0.007    28.110     8.692
     6   6 C        3.075    -0.007    28.109     8.693
     7   6 C        3.109     0.052    26.684     8.463
     8   1 H        0.927     0.101     1.773     2.082
     9   1 H        0.927     0.104     1.751     2.069
    10   1 H        0.926     0.108     1.715     2.048
    11   6 C        3.758    -0.131    23.078     6.849
    12   6 C        3.760    -0.128    23.000     6.837
    13   6 C        3.760    -0.131    23.058     6.846
    14   6 C        3.760    -0.127    22.992     6.836
    15   1 H        0.925     0.056     2.248     2.345
    16   1 H        0.925     0.060     2.202     2.320
    17   1 H        0.925     0.055     2.264     2.353
    18   1 H        0.925     0.056     2.242     2.342
    19   1 H        0.925     0.081     1.972     2.196
    20   1 H        0.925     0.054     2.272     2.357
    21   1 H        0.925     0.081     1.973     2.196
    22   1 H        0.925     0.081     1.970     2.195
    23   1 H        0.925     0.059     2.216     2.328
    24   1 H        0.925     0.081     1.970     2.195
    25   1 H        0.925     0.059     2.213     2.326
    26   1 H        0.925     0.060     2.196     2.317
    27   6 C        3.758    -0.132    23.091     6.851
    28   6 C        3.760    -0.131    23.068     6.847
    29   1 H        0.925     0.078     2.000     2.212
    30   1 H        0.925     0.062     2.178     2.308
    31   1 H        0.925     0.068     2.103     2.268
    32   1 H        0.925     0.062     2.177     2.308
    33   1 H        0.925     0.079     1.985     2.203
    34   1 H        0.925     0.056     2.245     2.343

 Mol. C6AA /au·bohr⁶  :       8557.939965
 Mol. C8AA /au·bohr⁸  :     188324.209198
 Mol. α(0) /au        :        140.152700


molecular dipole:
                 x           y           z       tot (Debye)
 q only:       -0.088      -0.081      -0.044
   full:       -0.079      -0.065      -0.038       0.277
molecular quadrupole (traceless):
                xx          xy          yy          xz          yz          zz
 q only:       13.513      -3.913      -6.149      -9.818       5.096      -7.364
  q+dip:       13.169      -3.340      -5.371      -9.432       5.605      -7.799
   full:       12.490      -3.459      -5.441      -9.000       4.883      -7.049

           -------------------------------------------------
          |                Geometry Summary                 |
           -------------------------------------------------

      molecular mass/u    :      181.2982571
   center of mass at/Å    :       -0.0260000      -0.0018108      -0.0084994
  moments of inertia/u·Å² :        0.3015059E+03   0.1126762E+04   0.1204993E+04
rotational constants/cm⁻¹ :        0.5591145E-01   0.1496113E-01   0.1398982E-01

 * 34 selected distances

     #   Z          #   Z                                           value/Å
     1   6 C        3   7 N                                       1.4735719
     2   6 C        4   7 N                                       1.4772350
     3   7 N        5   6 C                                       1.3627398
     4   7 N        6   6 C                                       1.3619257
     5   6 C        6   6 C                                       1.3599598
     3   7 N        7   6 C                                       1.3283718
     4   7 N        7   6 C                                       1.3310363
     5   6 C        8   1 H                                       1.0695586
     6   6 C        9   1 H                                       1.0686568 (min)
     7   6 C       10   1 H                                       1.0704562
     1   6 C       11   6 C                                       1.5271689
     2   6 C       12   6 C                                       1.5285834
     2   6 C       13   6 C                                       1.5306327
     1   6 C       14   6 C                                       1.5303653
    11   6 C       15   1 H                                       1.0896877
    12   6 C       16   1 H                                       1.0869950
    13   6 C       17   1 H                                       1.0856882
    14   6 C       18   1 H                                       1.0877307
    11   6 C       19   1 H                                       1.0901238
    12   6 C       20   1 H                                       1.0880161
    13   6 C       21   1 H                                       1.0848646
    14   6 C       22   1 H                                       1.0842303
    11   6 C       23   1 H                                       1.0894838
    12   6 C       24   1 H                                       1.0841567
    13   6 C       25   1 H                                       1.0869920
    14   6 C       26   1 H                                       1.0845886
     1   6 C       27   6 C                                       1.5355705 (max)
     2   6 C       28   6 C                                       1.5248691
    27   6 C       29   1 H                                       1.0858658
    28   6 C       30   1 H                                       1.0855188
    27   6 C       31   1 H                                       1.0863403
    28   6 C       32   1 H                                       1.0853688
    28   6 C       33   1 H                                       1.0853139
    27   6 C       34   1 H                                       1.0876292

 * 3 distinct bonds (by element types)

   Z      Z             #   av. dist./Å        max./Å        min./Å
   1 H    6 C          21     1.0841555     1.0901238     1.0686568
   6 C    6 C           7     1.5053071     1.5355705     1.3599598
   6 C    7 N           6     1.3891467     1.4772350     1.3283718


optimized geometry written to: xtbopt.xyz


           -------------------------------------------------
          | TOTAL ENERGY              -39.776106621710 Eh   |
          | GRADIENT NORM               0.006933839401 Eh/α |
          | HOMO-LUMO GAP               4.830119512162 eV   |
           -------------------------------------------------

------------------------------------------------------------------------
 * finished run on 2024/02/12 at 14:13:52.345     
------------------------------------------------------------------------
 total:
 * wall-time:     0 d,  0 h,  0 min,  0.742 sec
 *  cpu-time:     0 d,  0 h,  0 min,  0.487 sec
 * ratio c/w:     0.657 speedup
 SCF:
 * wall-time:     0 d,  0 h,  0 min,  0.295 sec
 *  cpu-time:     0 d,  0 h,  0 min,  0.045 sec
 * ratio c/w:     0.153 speedup
 ANC optimizer:
 * wall-time:     0 d,  0 h,  0 min,  0.421 sec
 *  cpu-time:     0 d,  0 h,  0 min,  0.417 sec
 * ratio c/w:     0.991 speedup

