
                                 *****************
                                 * O   R   C   A *
                                 *****************

                                            #,                                       
                                            ###                                      
                                            ####                                     
                                            #####                                    
                                            ######                                   
                                           ########,                                 
                                     ,,################,,,,,                         
                               ,,#################################,,                 
                          ,,##########################################,,             
                       ,#########################################, ''#####,          
                    ,#############################################,,   '####,        
                  ,##################################################,,,,####,       
                ,###########''''           ''''###############################       
              ,#####''   ,,,,##########,,,,          '''####'''          '####       
            ,##' ,,,,###########################,,,                        '##       
           ' ,,###''''                  '''############,,,                           
         ,,##''                                '''############,,,,        ,,,,,,###''
      ,#''                                            '''#######################'''  
     '                                                          ''''####''''         
             ,#######,   #######,   ,#######,      ##                                
            ,#'     '#,  ##    ##  ,#'     '#,    #''#        ######   ,####,        
            ##       ##  ##   ,#'  ##            #'  '#       #        #'  '#        
            ##       ##  #######   ##           ,######,      #####,   #    #        
            '#,     ,#'  ##    ##  '#,     ,#' ,#      #,         ##   #,  ,#        
             '#######'   ##     ##  '#######'  #'      '#     #####' # '####'        



                  #######################################################
                  #                        -***-                        #
                  #          Department of theory and spectroscopy      #
                  #    Directorship and core code : Frank Neese         #
                  #        Max Planck Institute fuer Kohlenforschung    #
                  #                Kaiser Wilhelm Platz 1               #
                  #                 D-45470 Muelheim/Ruhr               #
                  #                      Germany                        #
                  #                                                     #
                  #                  All rights reserved                #
                  #                        -***-                        #
                  #######################################################


                         Program Version 5.0.4 -  RELEASE  -


 With contributions from (in alphabetic order):
   Daniel Aravena         : Magnetic Suceptibility
   Michael Atanasov       : Ab Initio Ligand Field Theory (pilot matlab implementation)
   Alexander A. Auer      : GIAO ZORA, VPT2 properties, NMR spectrum
   Ute Becker             : Parallelization
   Giovanni Bistoni       : ED, misc. LED, open-shell LED, HFLD
   Martin Brehm           : Molecular dynamics
   Dmytro Bykov           : SCF Hessian
   Vijay G. Chilkuri      : MRCI spin determinant printing, contributions to CSF-ICE
   Dipayan Datta          : RHF DLPNO-CCSD density
   Achintya Kumar Dutta   : EOM-CC, STEOM-CC
   Dmitry Ganyushin       : Spin-Orbit,Spin-Spin,Magnetic field MRCI
   Miquel Garcia          : C-PCM and meta-GGA Hessian, CC/C-PCM, Gaussian charge scheme
   Yang Guo               : DLPNO-NEVPT2, F12-NEVPT2, CIM, IAO-localization
   Andreas Hansen         : Spin unrestricted coupled pair/coupled cluster methods
   Benjamin Helmich-Paris : MC-RPA, TRAH-SCF, COSX integrals
   Lee Huntington         : MR-EOM, pCC
   Robert Izsak           : Overlap fitted RIJCOSX, COSX-SCS-MP3, EOM
   Marcus Kettner         : VPT2
   Christian Kollmar      : KDIIS, OOCD, Brueckner-CCSD(T), CCSD density, CASPT2, CASPT2-K
   Simone Kossmann        : Meta GGA functionals, TD-DFT gradient, OOMP2, MP2 Hessian
   Martin Krupicka        : Initial AUTO-CI
   Lucas Lang             : DCDCAS
   Marvin Lechner         : AUTO-CI (C++ implementation), FIC-MRCC
   Dagmar Lenk            : GEPOL surface, SMD
   Dimitrios Liakos       : Extrapolation schemes; Compound Job, initial MDCI parallelization
   Dimitrios Manganas     : Further ROCIS development; embedding schemes
   Dimitrios Pantazis     : SARC Basis sets
   Anastasios Papadopoulos: AUTO-CI, single reference methods and gradients
   Taras Petrenko         : DFT Hessian,TD-DFT gradient, ASA, ECA, R-Raman, ABS, FL, XAS/XES, NRVS
   Peter Pinski           : DLPNO-MP2, DLPNO-MP2 Gradient
   Christoph Reimann      : Effective Core Potentials
   Marius Retegan         : Local ZFS, SOC
   Christoph Riplinger    : Optimizer, TS searches, QM/MM, DLPNO-CCSD(T), (RO)-DLPNO pert. Triples
   Tobias Risthaus        : Range-separated hybrids, TD-DFT gradient, RPA, STAB
   Michael Roemelt        : Original ROCIS implementation
   Masaaki Saitow         : Open-shell DLPNO-CCSD energy and density
   Barbara Sandhoefer     : DKH picture change effects
   Avijit Sen             : IP-ROCIS
   Kantharuban Sivalingam : CASSCF convergence, NEVPT2, FIC-MRCI
   Bernardo de Souza      : ESD, SOC TD-DFT
   Georgi Stoychev        : AutoAux, RI-MP2 NMR, DLPNO-MP2 response
   Willem Van den Heuvel  : Paramagnetic NMR
   Boris Wezisla          : Elementary symmetry handling
   Frank Wennmohs         : Technical directorship


 We gratefully acknowledge several colleagues who have allowed us to
 interface, adapt or use parts of their codes:
   Stefan Grimme, W. Hujo, H. Kruse, P. Pracht,  : VdW corrections, initial TS optimization,
                  C. Bannwarth, S. Ehlert          DFT functionals, gCP, sTDA/sTD-DF
   Ed Valeev, F. Pavosevic, A. Kumar             : LibInt (2-el integral package), F12 methods
   Garnet Chan, S. Sharma, J. Yang, R. Olivares  : DMRG
   Ulf Ekstrom                                   : XCFun DFT Library
   Mihaly Kallay                                 : mrcc  (arbitrary order and MRCC methods)
   Jiri Pittner, Ondrej Demel                    : Mk-CCSD
   Frank Weinhold                                : gennbo (NPA and NBO analysis)
   Christopher J. Cramer and Donald G. Truhlar   : smd solvation model
   Lars Goerigk                                  : TD-DFT with DH, B97 family of functionals
   V. Asgeirsson, H. Jonsson                     : NEB implementation
   FAccTs GmbH                                   : IRC, NEB, NEB-TS, DLPNO-Multilevel, CI-OPT
                                                   MM, QMMM, 2- and 3-layer-ONIOM, Crystal-QMMM,
                                                   LR-CPCM, SF, NACMEs, symmetry and pop. for TD-DFT,
                                                   nearIR, NL-DFT gradient (VV10), updates on ESD,
                                                   ML-optimized integration grids
   S Lehtola, MJT Oliveira, MAL Marques          : LibXC Library
   Liviu Ungur et al                             : ANISO software


 Your calculation uses the libint2 library for the computation of 2-el integrals
 For citations please refer to: http://libint.valeyev.net

 Your ORCA version has been built with support for libXC version: 5.1.0
 For citations please refer to: https://tddft.org/programs/libxc/

 This ORCA versions uses:
   CBLAS   interface :  Fast vector & matrix operations
   LAPACKE interface :  Fast linear algebra routines
   SCALAPACK package :  Parallel linear algebra routines
   Shared memory     :  Shared parallel matrices
   BLAS/LAPACK       :  OpenBLAS 0.3.15  USE64BITINT DYNAMIC_ARCH NO_AFFINITY SkylakeX SINGLE_THREADED
        Core in use  :  SkylakeX
   Copyright (c) 2011-2014, The OpenBLAS Project




***************************************
The coordinates will be read from file: 5_prot.xyz
***************************************


Your calculation utilizes the atom-pairwise dispersion correction
based on tight binding partial charges (D4)
Cite in your paper:
E.Caldeweyher, C.Bannwarth, S.Grimme, J.Chem.Phys., (2017), 147, 034112.
E.Caldeweyher, S.Ehlert, A.Hansen, H.Neugebauer, S.Grimme, J.Chem.Phys., (2018), in progress.
   

XCFun DFT library Copyright 2009-2010 Ulf Ekstrom and contributors.
See http://admol.org/xcfun for more information.
This is free software; see the source code for copying conditions.
There is ABSOLUTELY NO WARRANTY; not even for MERCHANTABILITY or FITNESS FOR A PARTICULAR PURPOSE.
For details see the documentation.
Scientific users of this library should cite U. Ekstrom, L. Visscher, R. Bast, A. J. Thorvaldsen and K. Ruud;
J.Chem.Theor.Comp. 2010, DOI: 10.1021/ct100117s
XCFun Version 0.99 

================================================================================

----- Orbital basis set information -----
Your calculation utilizes the basis: def2-TZVP
   F. Weigend and R. Ahlrichs, Phys. Chem. Chem. Phys. 7, 3297 (2005).

----- AuxJ basis set information -----
Your calculation utilizes the auxiliary basis: def2/J
   F. Weigend, Phys. Chem. Chem. Phys. 8, 1057 (2006).

================================================================================
                                        WARNINGS
                       Please study these warnings very carefully!
================================================================================


WARNING: Geometry Optimization
  ===> : Switching off AutoStart
         For restart on a previous wavefunction, please use MOREAD

INFO   : the flag for use of the SHARK integral package has been found!

================================================================================
                                       INPUT FILE
================================================================================
NAME = 5_prot.inp
|  1> # ORCA 5.0.4 - /users/bwb16179/postgrad/2024_06/pKa_Reviewer_Comments/Gas_Z=1/5_prot.inp # write input file
|  2> # Basic Mode
|  3> #
|  4> ! Opt Freq wB97X Def2-TZVP D4 SlowConv TightSCF Defgrid2 Def2/J RIJCOSX 
|  5> 
|  6> %PAL NPROCS 4 END
|  7> 
|  8> %maxcore 4500
|  9> 
| 10> %geom
| 11> Maxiter 150
| 12> END
| 13> 
| 14> * xyzfile 1 1 5_prot.xyz
| 15> 
| 16>                          ****END OF INPUT****
================================================================================

                       *****************************
                       * Geometry Optimization Run *
                       *****************************

Geometry optimization settings:
Update method            Update   .... BFGS
Choice of coordinates    CoordSys .... Z-matrix Internals
Initial Hessian          InHess   .... Almoef's Model

Convergence Tolerances:
Energy Change            TolE     ....  5.0000e-06 Eh
Max. Gradient            TolMAXG  ....  3.0000e-04 Eh/bohr
RMS Gradient             TolRMSG  ....  1.0000e-04 Eh/bohr
Max. Displacement        TolMAXD  ....  4.0000e-03 bohr
RMS Displacement         TolRMSD  ....  2.0000e-03 bohr
Strict Convergence                ....  False
------------------------------------------------------------------------------
                        ORCA OPTIMIZATION COORDINATE SETUP
------------------------------------------------------------------------------

The optimization will be done in new redundant internal coordinates
Making redundant internal coordinates   ...  (new redundants) done
Evaluating the initial hessian          ...  (Almloef) done
Evaluating the coordinates              ...  done
Calculating the B-matrix                .... done
Calculating the G-matrix                .... done
Diagonalizing the G-matrix              .... done
Small eigenvalue found = 9.588e-03
Small eigenvalue found = 2.452e-02
The first mode is                       ....   87
The number of degrees of freedom        ....   96

    -----------------------------------------------------------------
                    Redundant Internal Coordinates


    -----------------------------------------------------------------
         Definition                    Initial Value    Approx d2E/dq
    -----------------------------------------------------------------
      1. B(N   2,C   0)                  1.5025         0.370116   
      2. B(N   3,C   1)                  1.5025         0.370201   
      3. B(C   4,N   2)                  1.3776         0.585578   
      4. B(C   5,N   3)                  1.3774         0.586141   
      5. B(C   5,C   4)                  1.3599         0.697740   
      6. B(C   6,N   3)                  1.3330         0.689996   
      7. B(C   6,N   2)                  1.3333         0.689303   
      8. B(H   7,C   4)                  1.0874         0.363490   
      9. B(H   8,C   5)                  1.0874         0.363509   
     10. B(H   9,C   6)                  1.0857         0.365826   
     11. B(C  10,C   0)                  1.5297         0.374044   
     12. B(C  11,C   1)                  1.5295         0.374252   
     13. B(C  12,C   1)                  1.5295         0.374205   
     14. B(C  13,C   0)                  1.5294         0.374377   
     15. B(H  14,C  10)                  1.1003         0.346779   
     16. B(H  15,C  11)                  1.1003         0.346771   
     17. B(H  16,C  12)                  1.1002         0.346833   
     18. B(H  17,C  13)                  1.1002         0.346793   
     19. B(H  18,C  10)                  1.0994         0.347887   
     20. B(H  19,C  11)                  1.0994         0.347894   
     21. B(H  20,C  12)                  1.0994         0.347894   
     22. B(H  21,C  13)                  1.0994         0.347915   
     23. B(H  22,C  10)                  1.1004         0.346596   
     24. B(H  23,C  11)                  1.1005         0.346437   
     25. B(H  24,C  12)                  1.1004         0.346591   
     26. B(H  25,C  13)                  1.1004         0.346576   
     27. B(C  26,C   0)                  1.5259         0.379275   
     28. B(C  27,C   1)                  1.5259         0.379249   
     29. B(H  28,C  26)                  1.0986         0.348903   
     30. B(H  29,C  27)                  1.0986         0.348933   
     31. B(H  30,C  26)                  1.1011         0.345705   
     32. B(H  31,C  27)                  1.1011         0.345768   
     33. B(H  32,C  27)                  1.1010         0.345785   
     34. B(H  33,C  26)                  1.1011         0.345729   
     35. A(C  10,C   0,C  26)          110.3336         0.364372   
     36. A(N   2,C   0,C  26)          109.0910         0.361454   
     37. A(C  10,C   0,C  13)          111.4420         0.363563   
     38. A(C  13,C   0,C  26)          110.4267         0.364427   
     39. A(N   2,C   0,C  10)          107.7695         0.360599   
     40. A(N   2,C   0,C  13)          107.6758         0.360653   
     41. A(C  11,C   1,C  27)          110.3633         0.364402   
     42. A(C  12,C   1,C  27)          110.3220         0.364394   
     43. A(C  11,C   1,C  12)          111.5745         0.363569   
     44. A(N   3,C   1,C  11)          107.6121         0.360647   
     45. A(N   3,C   1,C  27)          109.0670         0.361464   
     46. A(N   3,C   1,C  12)          107.7976         0.360639   
     47. A(C   0,N   2,C   4)          124.9208         0.387125   
     48. A(C   4,N   2,C   6)          107.8761         0.432183   
     49. A(C   0,N   2,C   6)          127.2032         0.398335   
     50. A(C   1,N   3,C   6)          127.1935         0.398422   
     51. A(C   1,N   3,C   5)          124.9151         0.387206   
     52. A(C   5,N   3,C   6)          107.8874         0.432336   
     53. A(N   2,C   4,C   5)          107.2915         0.435985   
     54. A(C   5,C   4,H   7)          129.9754         0.360636   
     55. A(N   2,C   4,H   7)          122.7330         0.347924   
     56. A(N   3,C   5,H   8)          122.7141         0.347983   
     57. A(C   4,C   5,H   8)          129.9776         0.360639   
     58. A(N   3,C   5,C   4)          107.3077         0.436060   
     59. A(N   3,C   6,H   9)          125.1971         0.358111   
     60. A(N   2,C   6,H   9)          125.1652         0.358050   
     61. A(N   2,C   6,N   3)          109.6374         0.445169   
     62. A(H  14,C  10,H  18)          107.4442         0.287568   
     63. A(C   0,C  10,H  18)          109.3232         0.322555   
     64. A(C   0,C  10,H  14)          111.9901         0.322386   
     65. A(H  18,C  10,H  22)          108.0673         0.287544   
     66. A(H  14,C  10,H  22)          108.5873         0.287401   
     67. A(C   0,C  10,H  22)          111.2793         0.322358   
     68. A(H  15,C  11,H  19)          107.4800         0.287568   
     69. A(C   1,C  11,H  19)          109.3871         0.322585   
     70. A(C   1,C  11,H  15)          111.9958         0.322414   
     71. A(H  19,C  11,H  23)          108.1394         0.287525   
     72. A(H  15,C  11,H  23)          108.5351         0.287379   
     73. A(C   1,C  11,H  23)          111.1614         0.322363   
     74. A(C   1,C  12,H  20)          109.3202         0.322578   
     75. A(H  16,C  12,H  20)          107.4529         0.287576   
     76. A(C   1,C  12,H  16)          112.0404         0.322417   
     77. A(H  20,C  12,H  24)          107.9865         0.287544   
     78. A(H  16,C  12,H  24)          108.6326         0.287407   
     79. A(C   1,C  12,H  24)          111.2551         0.322380   
     80. A(C   0,C  13,H  17)          111.9425         0.322435   
     81. A(H  21,C  13,H  25)          108.1644         0.287545   
     82. A(H  17,C  13,H  25)          108.5629         0.287400   
     83. A(C   0,C  13,H  25)          111.2487         0.322402   
     84. A(H  17,C  13,H  21)          107.3937         0.287573   
     85. A(C   0,C  13,H  21)          109.3833         0.322606   
     86. A(H  28,C  26,H  33)          107.1367         0.287563   
     87. A(C   0,C  26,H  33)          112.0746         0.322960   
     88. A(H  30,C  26,H  33)          109.5507         0.287149   
     89. A(H  28,C  26,H  30)          107.1191         0.287560   
     90. A(C   0,C  26,H  30)          112.1621         0.322956   
     91. A(C   0,C  26,H  28)          108.5436         0.323445   
     92. A(H  31,C  27,H  32)          109.5527         0.287165   
     93. A(H  29,C  27,H  32)          107.1218         0.287574   
     94. A(C   1,C  27,H  32)          112.1065         0.322965   
     95. A(H  29,C  27,H  31)          107.1457         0.287572   
     96. A(C   1,C  27,H  31)          112.0994         0.322963   
     97. A(C   1,C  27,H  29)          108.5629         0.323446   
     98. D(C   6,N   2,C   0,C  10)    119.9322         0.011754   
     99. D(C   6,N   2,C   0,C  26)      0.1273         0.011754   
    100. D(C   4,N   2,C   0,C  26)   -179.8844         0.011754   
    101. D(C   4,N   2,C   0,C  10)    -60.0794         0.011754   
    102. D(C   6,N   2,C   0,C  13)   -119.7349         0.011754   
    103. D(C   4,N   2,C   0,C  13)     60.2534         0.011754   
    104. D(C   5,N   3,C   1,C  11)     59.9817         0.011759   
    105. D(C   6,N   3,C   1,C  12)    120.3310         0.011759   
    106. D(C   5,N   3,C   1,C  27)    179.7174         0.011759   
    107. D(C   5,N   3,C   1,C  12)    -60.4887         0.011759   
    108. D(C   6,N   3,C   1,C  11)   -119.1986         0.011759   
    109. D(C   6,N   3,C   1,C  27)      0.5371         0.011759   
    110. D(C   5,C   4,N   2,C   0)    179.9980         0.027537   
    111. D(C   5,C   4,N   2,C   6)     -0.0118         0.027537   
    112. D(H   7,C   4,N   2,C   0)      0.0690         0.027537   
    113. D(H   7,C   4,N   2,C   6)   -179.9408         0.027537   
    114. D(H   8,C   5,C   4,H   7)      0.2166         0.034270   
    115. D(N   3,C   5,C   4,H   7)    179.9192         0.034270   
    116. D(N   3,C   5,C   4,N   2)     -0.0029         0.034270   
    117. D(H   8,C   5,N   3,C   6)    179.7457         0.027594   
    118. D(C   4,C   5,N   3,C   6)      0.0166         0.027594   
    119. D(H   8,C   5,C   4,N   2)   -179.7055         0.034270   
    120. D(C   4,C   5,N   3,C   1)   -179.2973         0.027594   
    121. D(H   8,C   5,N   3,C   1)      0.4318         0.027594   
    122. D(N   2,C   6,N   3,C   5)     -0.0244         0.039286   
    123. D(H   9,C   6,N   2,C   4)    179.8354         0.039199   
    124. D(H   9,C   6,N   2,C   0)     -0.1746         0.039199   
    125. D(N   2,C   6,N   3,C   1)    179.2693         0.039286   
    126. D(N   3,C   6,N   2,C   4)      0.0226         0.039199   
    127. D(H   9,C   6,N   3,C   1)     -0.5435         0.039286   
    128. D(N   3,C   6,N   2,C   0)   -179.9875         0.039199   
    129. D(H   9,C   6,N   3,C   5)   -179.8372         0.039286   
    130. D(H  22,C  10,C   0,C  26)     58.9007         0.011170   
    131. D(H  22,C  10,C   0,C  13)   -178.0460         0.011170   
    132. D(H  22,C  10,C   0,N   2)    -60.1145         0.011170   
    133. D(H  18,C  10,C   0,C  13)     62.6620         0.011170   
    134. D(H  18,C  10,C   0,C  26)    -60.3913         0.011170   
    135. D(H  18,C  10,C   0,N   2)   -179.4065         0.011170   
    136. D(H  14,C  10,C   0,C  26)   -179.3512         0.011170   
    137. D(H  14,C  10,C   0,C  13)    -56.2979         0.011170   
    138. D(H  14,C  10,C   0,N   2)     61.6336         0.011170   
    139. D(H  23,C  11,C   1,C  27)    -59.6929         0.011182   
    140. D(H  23,C  11,C   1,C  12)    177.2742         0.011182   
    141. D(H  23,C  11,C   1,N   3)     59.2157         0.011182   
    142. D(H  19,C  11,C   1,C  27)     59.6563         0.011182   
    143. D(H  19,C  11,C   1,C  12)    -63.3766         0.011182   
    144. D(H  19,C  11,C   1,N   3)    178.5649         0.011182   
    145. D(H  15,C  11,C   1,C  27)    178.7063         0.011182   
    146. D(H  15,C  11,C   1,N   3)    -62.3851         0.011182   
    147. D(H  15,C  11,C   1,C  12)     55.6734         0.011182   
    148. D(H  24,C  12,C   1,C  11)   -178.7458         0.011179   
    149. D(H  24,C  12,C   1,N   3)    -60.7987         0.011179   
    150. D(H  20,C  12,C   1,C  27)    -60.9771         0.011179   
    151. D(H  20,C  12,C   1,C  11)     62.0793         0.011179   
    152. D(H  20,C  12,C   1,N   3)   -179.9736         0.011179   
    153. D(H  16,C  12,C   1,C  27)   -179.9773         0.011179   
    154. D(H  16,C  12,C   1,C  11)    -56.9209         0.011179   
    155. D(H  24,C  12,C   1,C  27)     58.1977         0.011179   
    156. D(H  16,C  12,C   1,N   3)     61.0262         0.011179   
    157. D(H  21,C  13,C   0,N   2)    179.5620         0.011189   
    158. D(H  17,C  13,C   0,C  26)    179.4567         0.011189   
    159. D(H  17,C  13,C   0,C  10)     56.4566         0.011189   
    160. D(H  17,C  13,C   0,N   2)    -61.5313         0.011189   
    161. D(H  25,C  13,C   0,C  26)    -58.8821         0.011189   
    162. D(H  25,C  13,C   0,C  10)    178.1179         0.011189   
    163. D(H  25,C  13,C   0,N   2)     60.1299         0.011189   
    164. D(H  21,C  13,C   0,C  26)     60.5501         0.011189   
    165. D(H  21,C  13,C   0,C  10)    -62.4500         0.011189   
    166. D(H  33,C  26,C   0,C  13)    179.5911         0.011467   
    167. D(H  33,C  26,C   0,C  10)    -56.7654         0.011467   
    168. D(H  33,C  26,C   0,N   2)     61.4425         0.011467   
    169. D(H  30,C  26,C   0,C  13)     55.8732         0.011467   
    170. D(H  30,C  26,C   0,C  10)    179.5167         0.011467   
    171. D(H  30,C  26,C   0,N   2)    -62.2754         0.011467   
    172. D(H  28,C  26,C   0,C  13)    -62.2831         0.011467   
    173. D(H  28,C  26,C   0,C  10)     61.3604         0.011467   
    174. D(H  28,C  26,C   0,N   2)    179.5683         0.011467   
    175. D(H  32,C  27,C   1,C  12)    179.7951         0.011466   
    176. D(H  32,C  27,C   1,C  11)     56.0349         0.011466   
    177. D(H  32,C  27,C   1,N   3)    -61.9841         0.011466   
    178. D(H  31,C  27,C   1,C  12)    -56.5077         0.011466   
    179. D(H  31,C  27,C   1,C  11)    179.7321         0.011466   
    180. D(H  31,C  27,C   1,N   3)     61.7130         0.011466   
    181. D(H  29,C  27,C   1,C  12)     61.6563         0.011466   
    182. D(H  29,C  27,C   1,C  11)    -62.1039         0.011466   
    183. D(H  29,C  27,C   1,N   3)    179.8771         0.011466   
    -----------------------------------------------------------------

Number of atoms                         .... 34
Number of degrees of freedom            .... 183

         *************************************************************
         *                GEOMETRY OPTIMIZATION CYCLE   1            *
         *************************************************************
---------------------------------
CARTESIAN COORDINATES (ANGSTROEM)
---------------------------------
  C     -0.177355    2.510033    0.072581
  C      0.137590   -2.512508    0.402120
  N     -0.079608    1.054599   -0.287642
  N      0.050014   -1.116086   -0.145375
  C     -0.018654    0.562684   -1.573027
  C      0.062189   -0.791932   -1.484018
  C     -0.036452    0.018015    0.549733
  H     -0.035860    1.205420   -2.450034
  H      0.131189   -1.540834   -2.269448
  H     -0.064196    0.087571    1.632853
  C      1.058293    3.214315   -0.490461
  C      1.460548   -3.114285   -0.074365
  C     -1.061796   -3.299060   -0.129205
  C     -1.463855    3.056655   -0.548093
  H      1.109522    3.142474   -1.587178
  H      1.507336   -3.190517   -1.170990
  H     -1.062034   -3.359480   -1.227763
  H     -1.456055    2.979178   -1.645584
  H      1.017993    4.282049   -0.231649
  H      1.566736   -4.130234    0.332111
  H     -1.022598   -4.327417    0.257573
  H     -1.567573    4.121343   -0.294524
  H      1.983965    2.795435   -0.067897
  H      2.316766   -2.515624    0.271555
  H     -2.010928   -2.848774    0.198346
  H     -2.348287    2.525191   -0.165665
  C     -0.219237    2.646435    1.591773
  C      0.099516   -2.453596    1.926403
  H     -0.282801    3.713528    1.845132
  H      0.161769   -3.478248    2.317657
  H     -1.103236    2.156373    2.028599
  H     -0.840642   -2.019735    2.300823
  H      0.953548   -1.895872    2.340972
  H      0.692663    2.253715    2.067798

----------------------------
CARTESIAN COORDINATES (A.U.)
----------------------------
  NO LB      ZA    FRAG     MASS         X           Y           Z
   0 C     6.0000    0    12.011   -0.335152    4.743275    0.137158
   1 C     6.0000    0    12.011    0.260007   -4.747952    0.759897
   2 N     7.0000    0    14.007   -0.150437    1.992903   -0.543565
   3 N     7.0000    0    14.007    0.094513   -2.109097   -0.274719
   4 C     6.0000    0    12.011   -0.035251    1.063319   -2.972590
   5 C     6.0000    0    12.011    0.117520   -1.496535   -2.804388
   6 C     6.0000    0    12.011   -0.068884    0.034043    1.038845
   7 H     1.0000    0     1.008   -0.067766    2.277914   -4.629893
   8 H     1.0000    0     1.008    0.247911   -2.911754   -4.288635
   9 H     1.0000    0     1.008   -0.121313    0.165485    3.085645
  10 C     6.0000    0    12.011    1.999884    6.074175   -0.926837
  11 C     6.0000    0    12.011    2.760036   -5.885146   -0.140529
  12 C     6.0000    0    12.011   -2.006504   -6.234320   -0.244162
  13 C     6.0000    0    12.011   -2.766285    5.776241   -1.035746
  14 H     1.0000    0     1.008    2.096693    5.938415   -2.999332
  15 H     1.0000    0     1.008    2.848452   -6.029203   -2.212850
  16 H     1.0000    0     1.008   -2.006953   -6.348497   -2.320136
  17 H     1.0000    0     1.008   -2.751545    5.629831   -3.109703
  18 H     1.0000    0     1.008    1.923728    8.091900   -0.437753
  19 H     1.0000    0     1.008    2.960702   -7.805011    0.627599
  20 H     1.0000    0     1.008   -1.932430   -8.177633    0.486742
  21 H     1.0000    0     1.008   -2.962284    7.788210   -0.556570
  22 H     1.0000    0     1.008    3.749151    5.282607   -0.128307
  23 H     1.0000    0     1.008    4.378053   -4.753840    0.513165
  24 H     1.0000    0     1.008   -3.800103   -5.383403    0.374820
  25 H     1.0000    0     1.008   -4.437619    4.771919   -0.313061
  26 C     6.0000    0    12.011   -0.414298    5.001037    3.008015
  27 C     6.0000    0    12.011    0.188058   -4.636624    3.640374
  28 H     1.0000    0     1.008   -0.534416    7.017551    3.486794
  29 H     1.0000    0     1.008    0.305699   -6.572936    4.379737
  30 H     1.0000    0     1.008   -2.084814    4.074954    3.833497
  31 H     1.0000    0     1.008   -1.588583   -3.816746    4.347925
  32 H     1.0000    0     1.008    1.801945   -3.582679    4.423796
  33 H     1.0000    0     1.008    1.308943    4.258904    3.907572

--------------------------------
INTERNAL COORDINATES (ANGSTROEM)
--------------------------------
 C      0   0   0     0.000000000000     0.00000000     0.00000000
 C      1   0   0     5.043183954827     0.00000000     0.00000000
 N      1   2   0     1.502532267239    17.61980411     0.00000000
 N      2   1   3     1.502469544745    17.62388875   359.18353432
 C      3   1   2     1.377646672978   124.92075409   180.57527149
 C      5   3   1     1.359942167956   107.29151471   179.99797900
 C      4   2   1     1.332980337072   127.19351482   359.17224565
 H      5   3   1     1.087449718461   122.73299037     0.06895361
 H      6   5   3     1.087435281065   129.97757755   180.29450045
 H      7   4   2     1.085705623579   125.19714122   359.45651899
 C      1   2   4     1.529658592364   115.60335859   292.18718292
 C      2   1   3     1.529506908359   115.18197101    67.11297991
 C      2   1   3     1.529541461133   116.13368526   294.01252051
 C      1   2   4     1.529416253072   115.78474917    65.16213651
 H     11   1   2     1.100260749918   111.99011587    78.64655607
 H     12   2   1     1.100266706482   111.99581627   280.49460965
 H     13   2   1     1.100218302160   112.04044406    77.79992932
 H     14   1   2     1.100249980963   111.94247463   281.59975929
 H     11   1   2     1.099392394052   109.32320563   197.60647379
 H     12   2   1     1.099386647418   109.38706338   161.44460016
 H     13   2   1     1.099387021907   109.32017392   196.80011235
 H     14   1   2     1.099370364631   109.38328720   162.69312268
 H     11   1   2     1.100404216677   111.27931654   316.89843396
 H     12   2   1     1.100529373913   111.16143428    42.09540190
 H     13   2   1     1.100408420915   111.25509248   315.97497334
 H     14   1   2     1.100420429247   111.24872871    43.26099564
 C      1   2   4     1.525878088312    91.47172042   178.74901889
 C      2   1   3     1.525896103052    91.44779076   180.47390038
 H     27   1   2     1.098598486994   108.54362688   179.42907787
 H     28   2   1     1.098574917622   108.56293972   180.29040666
 H     27   1   2     1.101104876985   112.16210121   297.58538908
 H     28   2   1     1.101055297742   112.09942437    62.12636046
 H     28   2   1     1.101042312067   112.10645177   298.42920504
 H     27   1   2     1.101086013454   112.07461830    61.30327727

---------------------------
INTERNAL COORDINATES (A.U.)
---------------------------
 C      0   0   0     0.000000000000     0.00000000     0.00000000
 C      1   0   0     9.530236517609     0.00000000     0.00000000
 N      1   2   0     2.839374492461    17.61980411     0.00000000
 N      2   1   3     2.839255964125    17.62388875   359.18353432
 C      3   1   2     2.603374921235   124.92075409   180.57527149
 C      5   3   1     2.569918255409   107.29151471   179.99797900
 C      4   2   1     2.518967778968   127.19351482   359.17224565
 H      5   3   1     2.054982152301   122.73299037     0.06895361
 H      6   5   3     2.054954869576   129.97757755   180.29450045
 H      7   4   2     2.051686290623   125.19714122   359.45651899
 C      1   2   4     2.890635817967   115.60335859   292.18718292
 C      2   1   3     2.890349176739   115.18197101    67.11297991
 C      2   1   3     2.890414472019   116.13368526   294.01252051
 C      1   2   4     2.890177863074   115.78474917    65.16213651
 H     11   1   2     2.079191493249   111.99011587    78.64655607
 H     12   2   1     2.079202749523   111.99581627   280.49460965
 H     13   2   1     2.079111278610   112.04044406    77.79992932
 H     14   1   2     2.079171142873   111.94247463   281.59975929
 H     11   1   2     2.077550538475   109.32320563   197.60647379
 H     12   2   1     2.077539678910   109.38706338   161.44460016
 H     13   2   1     2.077540386591   109.32017392   196.80011235
 H     14   1   2     2.077508908902   109.38328720   162.69312268
 H     11   1   2     2.079462606131   111.27931654   316.89843396
 H     12   2   1     2.079699119031   111.16143428    42.09540190
 H     13   2   1     2.079470550990   111.25509248   315.97497334
 H     14   1   2     2.079493243449   111.24872871    43.26099564
 C      1   2   4     2.883491700662    91.47172042   178.74901889
 C      2   1   3     2.883525743586    91.44779076   180.47390038
 H     27   1   2     2.076050271559   108.54362688   179.42907787
 H     28   2   1     2.076005731901   108.56293972   180.29040666
 H     27   1   2     2.080786662227   112.16210121   297.58538908
 H     28   2   1     2.080692971035   112.09942437    62.12636046
 H     28   2   1     2.080668431665   112.10645177   298.42920504
 H     27   1   2     2.080751015320   112.07461830    61.30327727

---------------------
BASIS SET INFORMATION
---------------------
There are 3 groups of distinct atoms

 Group   1 Type C   : 11s6p2d1f contracted to 5s3p2d1f pattern {62111/411/11/1}
 Group   2 Type N   : 11s6p2d1f contracted to 5s3p2d1f pattern {62111/411/11/1}
 Group   3 Type H   : 5s1p contracted to 3s1p pattern {311/1}

Atom   0C    basis set group =>   1
Atom   1C    basis set group =>   1
Atom   2N    basis set group =>   2
Atom   3N    basis set group =>   2
Atom   4C    basis set group =>   1
Atom   5C    basis set group =>   1
Atom   6C    basis set group =>   1
Atom   7H    basis set group =>   3
Atom   8H    basis set group =>   3
Atom   9H    basis set group =>   3
Atom  10C    basis set group =>   1
Atom  11C    basis set group =>   1
Atom  12C    basis set group =>   1
Atom  13C    basis set group =>   1
Atom  14H    basis set group =>   3
Atom  15H    basis set group =>   3
Atom  16H    basis set group =>   3
Atom  17H    basis set group =>   3
Atom  18H    basis set group =>   3
Atom  19H    basis set group =>   3
Atom  20H    basis set group =>   3
Atom  21H    basis set group =>   3
Atom  22H    basis set group =>   3
Atom  23H    basis set group =>   3
Atom  24H    basis set group =>   3
Atom  25H    basis set group =>   3
Atom  26C    basis set group =>   1
Atom  27C    basis set group =>   1
Atom  28H    basis set group =>   3
Atom  29H    basis set group =>   3
Atom  30H    basis set group =>   3
Atom  31H    basis set group =>   3
Atom  32H    basis set group =>   3
Atom  33H    basis set group =>   3
---------------------------------
AUXILIARY/J BASIS SET INFORMATION
---------------------------------
There are 3 groups of distinct atoms

 Group   1 Type C   : 12s5p4d2f1g contracted to 6s4p3d1f1g pattern {711111/2111/211/2/1}
 Group   2 Type N   : 12s5p4d2f1g contracted to 6s4p3d1f1g pattern {711111/2111/211/2/1}
 Group   3 Type H   : 5s2p1d contracted to 3s1p1d pattern {311/2/1}

Atom   0C    basis set group =>   1
Atom   1C    basis set group =>   1
Atom   2N    basis set group =>   2
Atom   3N    basis set group =>   2
Atom   4C    basis set group =>   1
Atom   5C    basis set group =>   1
Atom   6C    basis set group =>   1
Atom   7H    basis set group =>   3
Atom   8H    basis set group =>   3
Atom   9H    basis set group =>   3
Atom  10C    basis set group =>   1
Atom  11C    basis set group =>   1
Atom  12C    basis set group =>   1
Atom  13C    basis set group =>   1
Atom  14H    basis set group =>   3
Atom  15H    basis set group =>   3
Atom  16H    basis set group =>   3
Atom  17H    basis set group =>   3
Atom  18H    basis set group =>   3
Atom  19H    basis set group =>   3
Atom  20H    basis set group =>   3
Atom  21H    basis set group =>   3
Atom  22H    basis set group =>   3
Atom  23H    basis set group =>   3
Atom  24H    basis set group =>   3
Atom  25H    basis set group =>   3
Atom  26C    basis set group =>   1
Atom  27C    basis set group =>   1
Atom  28H    basis set group =>   3
Atom  29H    basis set group =>   3
Atom  30H    basis set group =>   3
Atom  31H    basis set group =>   3
Atom  32H    basis set group =>   3
Atom  33H    basis set group =>   3


           ************************************************************
           *        Program running with 4 parallel MPI-processes     *
           *              working on a common directory               *
           ************************************************************
------------------------------------------------------------------------------
                           ORCA GTO INTEGRAL CALCULATION
                           -- RI-GTO INTEGRALS CHOSEN --
------------------------------------------------------------------------------
------------------------------------------------------------------------------
                   ___                                                        
                  /   \      - P O W E R E D   B Y -                         
                 /     \                                                     
                 |  |  |   _    _      __       _____    __    __             
                 |  |  |  | |  | |    /  \     |  _  \  |  |  /  |          
                  \  \/   | |  | |   /    \    | | | |  |  | /  /          
                 / \  \   | |__| |  /  /\  \   | |_| |  |  |/  /          
                |  |  |   |  __  | /  /__\  \  |    /   |      \           
                |  |  |   | |  | | |   __   |  |    \   |  |\   \          
                \     /   | |  | | |  |  |  |  | |\  \  |  | \   \       
                 \___/    |_|  |_| |__|  |__|  |_| \__\ |__|  \__/        
                                                                              
                      - O R C A' S   B I G   F R I E N D -                    
                                      &                                       
                       - I N T E G R A L  F E E D E R -                       
                                                                              
 v1 FN, 2020, v2 2021                                                         
------------------------------------------------------------------------------


Reading SHARK input file 5_prot.SHARKINP.tmp ... ok
----------------------
SHARK INTEGRAL PACKAGE
----------------------

Number of atoms                             ...     34
Number of basis functions                   ...    529
Number of shells                            ...    227
Maximum angular momentum                    ...      3
Integral batch strategy                     ... SHARK/LIBINT Hybrid
RI-J (if used) integral strategy            ... SPLIT-RIJ (Revised 2003 algorithm where possible)
Printlevel                                  ...      1
Contraction scheme used                     ... SEGMENTED contraction
Coulomb Range Separation                    ... NOT USED
Exchange Range Separation                   ... Long Range
   Mu parameter                             ...  0.300000
   Scaling (regular/separated)              ...  0.157706  0.842294
Finite Nucleus Model                        ... NOT USED
Auxiliary Coulomb fitting basis             ... AVAILABLE
   # of basis functions in Aux-J            ...    868
   # of shells in Aux-J                     ...    300
   Maximum angular momentum in Aux-J        ...      4
Auxiliary J/K fitting basis                 ... NOT available
Auxiliary Correlation fitting basis         ... NOT available
Auxiliary 'external' fitting basis          ... NOT available
Integral threshold                          ...     2.500000e-11
Primitive cut-off                           ...     2.500000e-12
Primitive pair pre-selection threshold      ...     2.500000e-12

Calculating pre-screening integrals         ... done (  0.1 sec) Dimension = 227
Organizing shell pair data                  ... done (  0.2 sec)
Shell pair information
Total number of shell pairs                 ...     25878
Shell pairs after pre-screening             ...     21259
Total number of primitive shell pairs       ...     75040
Primitive shell pairs kept                  ...     43927
          la=0 lb=0:   6610 shell pairs
          la=1 lb=0:   6334 shell pairs
          la=1 lb=1:   1550 shell pairs
          la=2 lb=0:   2771 shell pairs
          la=2 lb=1:   1328 shell pairs
          la=2 lb=2:    307 shell pairs
          la=3 lb=0:   1338 shell pairs
          la=3 lb=1:    650 shell pairs
          la=3 lb=2:    294 shell pairs
          la=3 lb=3:     77 shell pairs

Calculating one electron integrals          ... done (  0.1 sec)
Calculating RI/J V-Matrix + Cholesky decomp.... done (  0.0 sec)
Calculating Nuclear repulsion               ... done (  0.0 sec) ENN=    871.471478262048 Eh

SHARK setup successfully completed in   0.8 seconds

Maximum memory used throughout the entire GTOINT-calculation: 32.6 MB


           ************************************************************
           *        Program running with 4 parallel MPI-processes     *
           *              working on a common directory               *
           ************************************************************
-------------------------------------------------------------------------------
                                 ORCA SCF
-------------------------------------------------------------------------------

------------
SCF SETTINGS
------------
Hamiltonian:
 Density Functional     Method          .... DFT(GTOs)
 Exchange Functional    Exchange        .... WB97X
 Correlation Functional Correlation     .... WB97X
 Gradients option       PostSCFGGA      .... off
 Hybrid DFT is turned on
   Fraction HF Exchange ScalHFX         ....  0.157706
   Scaling of DF-GGA-X  ScalDFX         ....  0.000000
   Scaling of DF-GGA-C  ScalDFC         ....  1.000000
   Scaling of DF-LDA-C  ScalLDAC        ....  1.000000
   Perturbative correction              ....  0.000000
   Density functional embedding theory  .... OFF
 Long-range corrected/Screened/Range-Separated Hybrid DFT is turned on
   Amount of maximum screened exact exchange              ....  0.842294
   Range separation parameter mu (erf(mu*r12)/r12)        ....  0.300000
 RI-approximation to the Coulomb term is turned on
   Number of AuxJ basis functions       .... 868
   RIJ-COSX (HFX calculated with COS-X)).... on


General Settings:
 Integral files         IntName         .... 5_prot
 Hartree-Fock type      HFTyp           .... RHF
 Total Charge           Charge          ....    1
 Multiplicity           Mult            ....    1
 Number of Electrons    NEL             ....  100
 Basis Dimension        Dim             ....  529
 Nuclear Repulsion      ENuc            ....    871.4714782620 Eh

Convergence Acceleration:
 DIIS                   CNVDIIS         .... on
   Start iteration      DIISMaxIt       ....     0
   Startup error        DIISStart       ....  0.200000
   # of expansion vecs  DIISMaxEq       ....     5
   Bias factor          DIISBfac        ....   1.050
   Max. coefficient     DIISMaxC        ....  10.000
 Trust-Rad. Augm. Hess. CNVTRAH         .... auto
   Auto Start mean grad. ratio tolernc. ....  1.125000
   Auto Start start iteration           ....    20
   Auto Start num. interpolation iter.  ....    10
   Max. Number of Micro iterations      ....    16
   Max. Number of Macro iterations      .... Maxiter - #DIIS iter
   Number of Davidson start vectors     ....     2
   Converg. threshold I  (grad. norm)   ....   1.000e-05
   Converg. threshold II (energy diff.) ....   1.000e-08
   Grad. Scal. Fac. for Micro threshold ....   0.100
   Minimum threshold for Micro iter.    ....   0.010
   NR start threshold (gradient norm)   ....   0.001
   Initial trust radius                 ....   0.400
   Minimum AH scaling param. (alpha)    ....   1.000
   Maximum AH scaling param. (alpha)    .... 1000.000
   Orbital update algorithm             .... Taylor
   White noise on init. David. guess    .... on
   Maximum white noise                  ....   0.010
   Quad. conv. algorithm                .... NR
 SOSCF                  CNVSOSCF        .... on
   Start iteration      SOSCFMaxIt      ....   150
   Startup grad/error   SOSCFStart      ....  0.001000
 Level Shifting         CNVShift        .... on
   Level shift para.    LevelShift      ....    0.2500
   Turn off err/grad.   ShiftErr        ....    0.0000
 Zerner damping         CNVZerner       .... off
 Static damping         CNVDamp         .... on
   Fraction old density DampFac         ....    0.8500
   Max. Damping (<1)    DampMax         ....    0.9800
   Min. Damping (>=0)   DampMin         ....    0.0000
   Turn off err/grad.   DampErr         ....    0.0300
 Fernandez-Rico         CNVRico         .... off

SCF Procedure:
 Maximum # iterations   MaxIter         ....   125
 SCF integral mode      SCFMode         .... Direct
   Integral package                     .... SHARK and LIBINT hybrid scheme
 Reset frequency        DirectResetFreq ....    20
 Integral Threshold     Thresh          ....  2.500e-11 Eh
 Primitive CutOff       TCut            ....  2.500e-12 Eh

Convergence Tolerance:
 Convergence Check Mode ConvCheckMode   .... Total+1el-Energy
 Convergence forced     ConvForced      .... 0
 Energy Change          TolE            ....  1.000e-08 Eh
 1-El. energy change                    ....  1.000e-05 Eh
 Orbital Gradient       TolG            ....  1.000e-05
 Orbital Rotation angle TolX            ....  1.000e-05
 DIIS Error             TolErr          ....  5.000e-07


Diagonalization of the overlap matrix:
Smallest eigenvalue                        ... 5.580e-05
Time for diagonalization                   ...    0.052 sec
Threshold for overlap eigenvalues          ... 1.000e-08
Number of eigenvalues below threshold      ... 0
Time for construction of square roots      ...    0.026 sec
Total time needed                          ...    0.080 sec

Time for model grid setup =    0.302 sec

------------------------------
INITIAL GUESS: MODEL POTENTIAL
------------------------------
Loading Hartree-Fock densities                     ... done
Calculating cut-offs                               ... done
Initializing the effective Hamiltonian             ... done
Setting up the integral package (SHARK)            ... done
Starting the Coulomb interaction                   ... done (   0.7 sec)
Reading the grid                                   ... done
Mapping shells                                     ... done
Starting the XC term evaluation                    ... done (   0.5 sec)
  promolecular density results
     # of electrons  =    100.990566628
     EX              =    -75.614748697
     EC              =     -3.351598331
     EX+EC           =    -78.966347028
Transforming the Hamiltonian                       ... done (   0.0 sec)
Diagonalizing the Hamiltonian                      ... done (   0.1 sec)
Back transforming the eigenvectors                 ... done (   0.0 sec)
Now organizing SCF variables                       ... done
                      ------------------
                      INITIAL GUESS DONE (   1.5 sec)
                      ------------------
-------------------
DFT GRID GENERATION
-------------------

General Integration Accuracy     IntAcc      ... 4.388
Radial Grid Type                 RadialGrid  ... OptM3 with GC (2021)
Angular Grid (max. ang.)         AngularGrid ... 4 (Lebedev-302)
Angular grid pruning method      GridPruning ... 4 (adaptive)
Weight generation scheme         WeightScheme... Becke
Basis function cutoff            BFCut       ... 1.0000e-11
Integration weight cutoff        WCut        ... 1.0000e-14
Angular grids for H and He will be reduced by one unit
Partially contracted basis set               ... off
Rotationally invariant grid construction     ... off

Total number of grid points                  ...   144154
Total number of batches                      ...     2273
Average number of points per batch           ...       63
Average number of grid points per atom       ...     4240
Time for grid setup =    1.300 sec

--------------------
COSX GRID GENERATION
--------------------

GRIDX 1
-------
General Integration Accuracy     IntAcc      ... 3.816
Radial Grid Type                 RadialGrid  ... OptM3 with GC (2021)
Angular Grid (max. ang.)         AngularGrid ... 1 (Lebedev-50)
Angular grid pruning method      GridPruning ... 4 (adaptive)
Weight generation scheme         WeightScheme... Becke
Basis function cutoff            BFCut       ... 1.0000e-11
Integration weight cutoff        WCut        ... 1.0000e-14
Angular grids for H and He will be reduced by one unit
Partially contracted basis set               ... on
Rotationally invariant grid construction     ... off

Total number of grid points                  ...    18417
Total number of batches                      ...      305
Average number of points per batch           ...       60
Average number of grid points per atom       ...      542
UseSFitting                                  ... on

GRIDX 2
-------
General Integration Accuracy     IntAcc      ... 4.020
Radial Grid Type                 RadialGrid  ... OptM3 with GC (2021)
Angular Grid (max. ang.)         AngularGrid ... 2 (Lebedev-110)
Angular grid pruning method      GridPruning ... 4 (adaptive)
Weight generation scheme         WeightScheme... Becke
Basis function cutoff            BFCut       ... 1.0000e-11
Integration weight cutoff        WCut        ... 1.0000e-14
Angular grids for H and He will be reduced by one unit
Partially contracted basis set               ... on
Rotationally invariant grid construction     ... off

Total number of grid points                  ...    38154
Total number of batches                      ...      610
Average number of points per batch           ...       62
Average number of grid points per atom       ...     1122
UseSFitting                                  ... on

GRIDX 3
-------
General Integration Accuracy     IntAcc      ... 4.338
Radial Grid Type                 RadialGrid  ... OptM3 with GC (2021)
Angular Grid (max. ang.)         AngularGrid ... 3 (Lebedev-194)
Angular grid pruning method      GridPruning ... 4 (adaptive)
Weight generation scheme         WeightScheme... Becke
Basis function cutoff            BFCut       ... 1.0000e-11
Integration weight cutoff        WCut        ... 1.0000e-14
Angular grids for H and He will be reduced by one unit
Partially contracted basis set               ... on
Rotationally invariant grid construction     ... off

Total number of grid points                  ...    82957
Total number of batches                      ...     1315
Average number of points per batch           ...       63
Average number of grid points per atom       ...     2440
UseSFitting                                  ... on

Time for X-Grid setup             =    1.982 sec

--------------
SCF ITERATIONS
--------------
ITER       Energy         Delta-E        Max-DP      RMS-DP      [F,P]     Damp
               ***  Starting incremental Fock matrix formation  ***
  0   -540.8593903843   0.000000000000 0.01689496  0.00030382  0.1657173 0.8500
  1   -540.9294704487  -0.070080064338 0.01885445  0.00030233  0.1328168 0.8500
                               ***Turning on DIIS***
  2   -540.9818809046  -0.052410455875 0.01559314  0.00024938  0.1013993 0.8500
  3   -541.0202131721  -0.038332267497 0.01151625  0.00018481  0.0764131 0.8500
  4   -541.0494509811  -0.029237809006 0.00885721  0.00014592  0.0606836 0.8500
  5   -541.0722932689  -0.022842287791 0.00722033  0.00012156  0.0501176 0.8500
  6   -541.0907688716  -0.018475602726 0.00605451  0.00010346  0.0421473 0.8500
  7   -541.1060100239  -0.015241152321 0.00515838  0.00008926  0.0357161 0.8500
  8   -541.1187323383  -0.012722314381 0.00439041  0.00007678  0.0302380 0.8500
  9   -541.1293818602  -0.010649521878 0.02476614  0.00043750  0.0255436 0.0000
 10   -541.1868109398  -0.057429079665 0.00067732  0.00001238  0.0011716 0.0000
                      *** Initiating the SOSCF procedure ***
                           *** Shutting down DIIS ***
                      *** Re-Reading the Fockian *** 
                      *** Removing any level shift *** 
ITER      Energy       Delta-E        Grad      Rot      Max-DP    RMS-DP
 11   -541.18683054  -0.0000196005  0.000128  0.000128  0.000440  0.000006
               *** Restarting incremental Fock matrix formation ***
 12   -541.18680813   0.0000224127  0.000039  0.000072  0.000402  0.000009
 13   -541.18680836  -0.0000002357  0.000061  0.000150  0.000187  0.000003
 14   -541.18680841  -0.0000000437  0.000016  0.000024  0.000077  0.000002
 15   -541.18680841  -0.0000000035  0.000005  0.000010  0.000015  0.000000
                 **** Energy Check signals convergence ****
              ***Rediagonalizing the Fockian in SOSCF/NRSCF***

               *****************************************************
               *                     SUCCESS                       *
               *           SCF CONVERGED AFTER  16 CYCLES          *
               *****************************************************

Old exchange energy                            =    -25.368080214 Eh
New exchange energy                            =    -25.368082419 Eh
Exchange energy change after final integration =     -0.000002205 Eh
Total energy after final integration           =   -541.186810626 Eh
Final COS-X integration done in                =    63.546 sec

----------------
TOTAL SCF ENERGY
----------------

Total Energy       :         -541.18681063 Eh          -14726.44179 eV

Components:
Nuclear Repulsion  :          871.47147826 Eh           23713.94452 eV
Electronic Energy  :        -1412.65828889 Eh          -38440.38631 eV
One Electron Energy:        -2443.03212147 Eh          -66478.28372 eV
Two Electron Energy:         1030.37383258 Eh           28037.89740 eV
Max COSX asymmetry :            0.00000070 Eh               0.00002 eV

Virial components:
Potential Energy   :        -1079.51269691 Eh          -29375.03388 eV
Kinetic Energy     :          538.32588628 Eh           14648.59209 eV
Virial Ratio       :            2.00531448


DFT components:
N(Alpha)           :       49.999974676661 electrons
N(Beta)            :       49.999974676661 electrons
N(Total)           :       99.999949353321 electrons
E(XC)              :      -55.740594053143 Eh       
DFET-embed. en.    :        0.000000000000 Eh       

---------------
SCF CONVERGENCE
---------------

  Last Energy change         ...   -9.9617e-09  Tolerance :   1.0000e-08
  Last MAX-Density change    ...    1.6653e-15  Tolerance :   1.0000e-07
  Last RMS-Density change    ...    1.2293e-17  Tolerance :   5.0000e-09
  Last Orbital Gradient      ...    1.6170e-06  Tolerance :   1.0000e-05
  Last Orbital Rotation      ...    5.4476e-06  Tolerance :   1.0000e-05

             **** THE GBW FILE WAS UPDATED (5_prot.gbw) ****
             **** DENSITY 5_prot.scfp WAS UPDATED ****
             **** ENERGY FILE WAS UPDATED (5_prot.en.tmp) ****
             **** THE GBW FILE WAS UPDATED (5_prot.gbw) ****
             **** DENSITY 5_prot.scfp WAS UPDATED ****
----------------
ORBITAL ENERGIES
----------------

  NO   OCC          E(Eh)            E(eV) 
   0   2.0000     -14.631329      -398.1387 
   1   2.0000     -14.631307      -398.1381 
   2   2.0000     -10.504593      -285.8445 
   3   2.0000     -10.466771      -284.8153 
   4   2.0000     -10.466763      -284.8151 
   5   2.0000     -10.455733      -284.5149 
   6   2.0000     -10.455032      -284.4959 
   7   2.0000     -10.391310      -282.7619 
   8   2.0000     -10.391308      -282.7619 
   9   2.0000     -10.384680      -282.5815 
  10   2.0000     -10.384631      -282.5802 
  11   2.0000     -10.384567      -282.5784 
  12   2.0000     -10.384554      -282.5781 
  13   2.0000      -1.353760       -36.8377 
  14   2.0000      -1.235894       -33.6304 
  15   2.0000      -1.116083       -30.3702 
  16   2.0000      -1.070570       -29.1317 
  17   2.0000      -1.062653       -28.9163 
  18   2.0000      -0.969467       -26.3805 
  19   2.0000      -0.963744       -26.2248 
  20   2.0000      -0.958341       -26.0778 
  21   2.0000      -0.957696       -26.0602 
  22   2.0000      -0.926430       -25.2094 
  23   2.0000      -0.902976       -24.5712 
  24   2.0000      -0.865297       -23.5459 
  25   2.0000      -0.835837       -22.7443 
  26   2.0000      -0.779706       -21.2169 
  27   2.0000      -0.761719       -20.7274 
  28   2.0000      -0.735994       -20.0274 
  29   2.0000      -0.722946       -19.6724 
  30   2.0000      -0.721308       -19.6278 
  31   2.0000      -0.710945       -19.3458 
  32   2.0000      -0.707180       -19.2433 
  33   2.0000      -0.686089       -18.6694 
  34   2.0000      -0.684996       -18.6397 
  35   2.0000      -0.676241       -18.4015 
  36   2.0000      -0.649168       -17.6648 
  37   2.0000      -0.630487       -17.1564 
  38   2.0000      -0.630053       -17.1446 
  39   2.0000      -0.627080       -17.0637 
  40   2.0000      -0.625378       -17.0174 
  41   2.0000      -0.614992       -16.7348 
  42   2.0000      -0.610759       -16.6196 
  43   2.0000      -0.610457       -16.6114 
  44   2.0000      -0.596977       -16.2446 
  45   2.0000      -0.584333       -15.9005 
  46   2.0000      -0.583654       -15.8820 
  47   2.0000      -0.581484       -15.8230 
  48   2.0000      -0.542256       -14.7555 
  49   2.0000      -0.510542       -13.8926 
  50   0.0000      -0.079559        -2.1649 
  51   0.0000      -0.047763        -1.2997 
  52   0.0000      -0.027192        -0.7399 
  53   0.0000      -0.004647        -0.1265 
  54   0.0000       0.003044         0.0828 
  55   0.0000       0.010804         0.2940 
  56   0.0000       0.023357         0.6356 
  57   0.0000       0.030899         0.8408 
  58   0.0000       0.031778         0.8647 
  59   0.0000       0.048931         1.3315 
  60   0.0000       0.052230         1.4212 
  61   0.0000       0.058033         1.5792 
  62   0.0000       0.058878         1.6022 
  63   0.0000       0.066508         1.8098 
  64   0.0000       0.069187         1.8827 
  65   0.0000       0.071541         1.9467 
  66   0.0000       0.082983         2.2581 
  67   0.0000       0.083417         2.2699 
  68   0.0000       0.092462         2.5160 
  69   0.0000       0.105928         2.8825 
  70   0.0000       0.108766         2.9597 
  71   0.0000       0.110541         3.0080 
  72   0.0000       0.113143         3.0788 
  73   0.0000       0.114135         3.1058 
  74   0.0000       0.119850         3.2613 
  75   0.0000       0.120250         3.2722 
  76   0.0000       0.121274         3.3000 
  77   0.0000       0.125915         3.4263 
  78   0.0000       0.128781         3.5043 
  79   0.0000       0.129156         3.5145 
  80   0.0000       0.134787         3.6677 
  81   0.0000       0.138741         3.7753 
  82   0.0000       0.142785         3.8854 
  83   0.0000       0.156644         4.2625 
  84   0.0000       0.166471         4.5299 
  85   0.0000       0.171190         4.6583 
  86   0.0000       0.182942         4.9781 
  87   0.0000       0.186747         5.0816 
  88   0.0000       0.189965         5.1692 
  89   0.0000       0.199037         5.4161 
  90   0.0000       0.212549         5.7838 
  91   0.0000       0.236274         6.4293 
  92   0.0000       0.243829         6.6349 
  93   0.0000       0.243983         6.6391 
  94   0.0000       0.249811         6.7977 
  95   0.0000       0.267139         7.2692 
  96   0.0000       0.273526         7.4430 
  97   0.0000       0.283761         7.7215 
  98   0.0000       0.292773         7.9668 
  99   0.0000       0.296969         8.0809 
 100   0.0000       0.302797         8.2395 
 101   0.0000       0.308129         8.3846 
 102   0.0000       0.324361         8.8263 
 103   0.0000       0.330846         9.0028 
 104   0.0000       0.332869         9.0578 
 105   0.0000       0.336714         9.1624 
 106   0.0000       0.342919         9.3313 
 107   0.0000       0.344633         9.3779 
 108   0.0000       0.349499         9.5103 
 109   0.0000       0.356306         9.6956 
 110   0.0000       0.363521         9.8919 
 111   0.0000       0.364059         9.9065 
 112   0.0000       0.380321        10.3491 
 113   0.0000       0.383435        10.4338 
 114   0.0000       0.386127        10.5070 
 115   0.0000       0.390026        10.6131 
 116   0.0000       0.397534        10.8174 
 117   0.0000       0.404418        11.0048 
 118   0.0000       0.408097        11.1049 
 119   0.0000       0.409796        11.1511 
 120   0.0000       0.414665        11.2836 
 121   0.0000       0.419226        11.4077 
 122   0.0000       0.421132        11.4596 
 123   0.0000       0.422758        11.5038 
 124   0.0000       0.426965        11.6183 
 125   0.0000       0.441102        12.0030 
 126   0.0000       0.442053        12.0289 
 127   0.0000       0.446425        12.1478 
 128   0.0000       0.449154        12.2221 
 129   0.0000       0.449331        12.2269 
 130   0.0000       0.462476        12.5846 
 131   0.0000       0.462827        12.5942 
 132   0.0000       0.463007        12.5991 
 133   0.0000       0.476452        12.9649 
 134   0.0000       0.479032        13.0351 
 135   0.0000       0.487109        13.2549 
 136   0.0000       0.491544        13.3756 
 137   0.0000       0.498106        13.5542 
 138   0.0000       0.509217        13.8565 
 139   0.0000       0.519722        14.1424 
 140   0.0000       0.522975        14.2309 
 141   0.0000       0.533007        14.5039 
 142   0.0000       0.546274        14.8649 
 143   0.0000       0.560922        15.2635 
 144   0.0000       0.569793        15.5049 
 145   0.0000       0.572854        15.5882 
 146   0.0000       0.584747        15.9118 
 147   0.0000       0.585785        15.9400 
 148   0.0000       0.644162        17.5285 
 149   0.0000       0.645000        17.5513 
 150   0.0000       0.645089        17.5538 
 151   0.0000       0.654273        17.8037 
 152   0.0000       0.664084        18.0706 
 153   0.0000       0.676091        18.3974 
 154   0.0000       0.683205        18.5910 
 155   0.0000       0.706963        19.2374 
 156   0.0000       0.725054        19.7297 
 157   0.0000       0.727595        19.7989 
 158   0.0000       0.735520        20.0145 
 159   0.0000       0.740523        20.1507 
 160   0.0000       0.754373        20.5275 
 161   0.0000       0.776257        21.1230 
 162   0.0000       0.778860        21.1939 
 163   0.0000       0.784268        21.3410 
 164   0.0000       0.802191        21.8287 
 165   0.0000       0.812220        22.1016 
 166   0.0000       0.820610        22.3299 
 167   0.0000       0.825080        22.4516 
 168   0.0000       0.825936        22.4749 
 169   0.0000       0.830063        22.5872 
 170   0.0000       0.857165        23.3247 
 171   0.0000       0.861672        23.4473 
 172   0.0000       0.863400        23.4943 
 173   0.0000       0.880311        23.9545 
 174   0.0000       0.925059        25.1721 
 175   0.0000       0.929388        25.2899 
 176   0.0000       0.937922        25.5222 
 177   0.0000       0.950795        25.8724 
 178   0.0000       0.952082        25.9075 
 179   0.0000       0.958069        26.0704 
 180   0.0000       0.979209        26.6456 
 181   0.0000       0.980982        26.6939 
 182   0.0000       0.992775        27.0148 
 183   0.0000       1.005265        27.3547 
 184   0.0000       1.012040        27.5390 
 185   0.0000       1.027565        27.9615 
 186   0.0000       1.042980        28.3809 
 187   0.0000       1.047288        28.4982 
 188   0.0000       1.065965        29.0064 
 189   0.0000       1.075405        29.2633 
 190   0.0000       1.080372        29.3984 
 191   0.0000       1.083664        29.4880 
 192   0.0000       1.089355        29.6428 
 193   0.0000       1.099901        29.9298 
 194   0.0000       1.103391        30.0248 
 195   0.0000       1.130133        30.7525 
 196   0.0000       1.143923        31.1277 
 197   0.0000       1.170219        31.8433 
 198   0.0000       1.182116        32.1670 
 199   0.0000       1.185948        32.2713 
 200   0.0000       1.198622        32.6162 
 201   0.0000       1.207916        32.8691 
 202   0.0000       1.211544        32.9678 
 203   0.0000       1.213663        33.0254 
 204   0.0000       1.231780        33.5184 
 205   0.0000       1.236349        33.6428 
 206   0.0000       1.246512        33.9193 
 207   0.0000       1.252340        34.0779 
 208   0.0000       1.275437        34.7064 
 209   0.0000       1.307190        35.5704 
 210   0.0000       1.314297        35.7638 
 211   0.0000       1.347594        36.6699 
 212   0.0000       1.356854        36.9219 
 213   0.0000       1.368204        37.2307 
 214   0.0000       1.397849        38.0374 
 215   0.0000       1.403066        38.1794 
 216   0.0000       1.425837        38.7990 
 217   0.0000       1.451436        39.4956 
 218   0.0000       1.463946        39.8360 
 219   0.0000       1.468657        39.9642 
 220   0.0000       1.479137        40.2494 
 221   0.0000       1.508886        41.0589 
 222   0.0000       1.510551        41.1042 
 223   0.0000       1.526501        41.5382 
 224   0.0000       1.531393        41.6713 
 225   0.0000       1.536495        41.8102 
 226   0.0000       1.541795        41.9544 
 227   0.0000       1.542563        41.9753 
 228   0.0000       1.546477        42.0818 
 229   0.0000       1.548172        42.1279 
 230   0.0000       1.558724        42.4150 
 231   0.0000       1.562315        42.5127 
 232   0.0000       1.569995        42.7217 
 233   0.0000       1.579103        42.9696 
 234   0.0000       1.579354        42.9764 
 235   0.0000       1.582907        43.0731 
 236   0.0000       1.588245        43.2184 
 237   0.0000       1.605591        43.6904 
 238   0.0000       1.608066        43.7577 
 239   0.0000       1.611831        43.8601 
 240   0.0000       1.613218        43.8979 
 241   0.0000       1.615194        43.9517 
 242   0.0000       1.624793        44.2129 
 243   0.0000       1.629421        44.3388 
 244   0.0000       1.654264        45.0148 
 245   0.0000       1.660804        45.1928 
 246   0.0000       1.665769        45.3279 
 247   0.0000       1.667333        45.3704 
 248   0.0000       1.672330        45.5064 
 249   0.0000       1.692734        46.0616 
 250   0.0000       1.702964        46.3400 
 251   0.0000       1.736061        47.2406 
 252   0.0000       1.742881        47.4262 
 253   0.0000       1.747652        47.5560 
 254   0.0000       1.755327        47.7649 
 255   0.0000       1.761323        47.9280 
 256   0.0000       1.769215        48.1428 
 257   0.0000       1.802464        49.0475 
 258   0.0000       1.844971        50.2042 
 259   0.0000       1.850605        50.3575 
 260   0.0000       1.862792        50.6891 
 261   0.0000       1.880618        51.1742 
 262   0.0000       1.882590        51.2279 
 263   0.0000       1.889586        51.4182 
 264   0.0000       1.895310        51.5740 
 265   0.0000       1.919854        52.2419 
 266   0.0000       1.928639        52.4809 
 267   0.0000       1.970365        53.6164 
 268   0.0000       1.979988        53.8782 
 269   0.0000       1.983714        53.9796 
 270   0.0000       1.984952        54.0133 
 271   0.0000       1.996151        54.3180 
 272   0.0000       2.001917        54.4749 
 273   0.0000       2.008461        54.6530 
 274   0.0000       2.045851        55.6704 
 275   0.0000       2.054886        55.9163 
 276   0.0000       2.062198        56.1153 
 277   0.0000       2.090887        56.8959 
 278   0.0000       2.095863        57.0313 
 279   0.0000       2.117215        57.6123 
 280   0.0000       2.139485        58.2184 
 281   0.0000       2.169129        59.0250 
 282   0.0000       2.172610        59.1197 
 283   0.0000       2.175678        59.2032 
 284   0.0000       2.212221        60.1976 
 285   0.0000       2.224792        60.5397 
 286   0.0000       2.233082        60.7653 
 287   0.0000       2.235079        60.8196 
 288   0.0000       2.243518        61.0492 
 289   0.0000       2.252153        61.2842 
 290   0.0000       2.256344        61.3983 
 291   0.0000       2.259557        61.4857 
 292   0.0000       2.272324        61.8331 
 293   0.0000       2.276433        61.9449 
 294   0.0000       2.277201        61.9658 
 295   0.0000       2.282545        62.1112 
 296   0.0000       2.289232        62.2932 
 297   0.0000       2.299421        62.5704 
 298   0.0000       2.315091        62.9968 
 299   0.0000       2.316059        63.0232 
 300   0.0000       2.335539        63.5532 
 301   0.0000       2.336318        63.5744 
 302   0.0000       2.352020        64.0017 
 303   0.0000       2.367374        64.4195 
 304   0.0000       2.371070        64.5201 
 305   0.0000       2.375997        64.6542 
 306   0.0000       2.381541        64.8050 
 307   0.0000       2.383678        64.8632 
 308   0.0000       2.395335        65.1804 
 309   0.0000       2.417969        65.7963 
 310   0.0000       2.418610        65.8137 
 311   0.0000       2.436668        66.3051 
 312   0.0000       2.446230        66.5653 
 313   0.0000       2.451458        66.7076 
 314   0.0000       2.463639        67.0390 
 315   0.0000       2.478229        67.4360 
 316   0.0000       2.486686        67.6662 
 317   0.0000       2.487130        67.6783 
 318   0.0000       2.492772        67.8318 
 319   0.0000       2.510662        68.3186 
 320   0.0000       2.526273        68.7434 
 321   0.0000       2.526914        68.7608 
 322   0.0000       2.560696        69.6801 
 323   0.0000       2.567438        69.8635 
 324   0.0000       2.568683        69.8974 
 325   0.0000       2.578265        70.1582 
 326   0.0000       2.584269        70.3215 
 327   0.0000       2.586251        70.3755 
 328   0.0000       2.592182        70.5369 
 329   0.0000       2.602692        70.8228 
 330   0.0000       2.609503        71.0082 
 331   0.0000       2.613537        71.1180 
 332   0.0000       2.635198        71.7074 
 333   0.0000       2.638272        71.7910 
 334   0.0000       2.645983        72.0009 
 335   0.0000       2.652131        72.1681 
 336   0.0000       2.652899        72.1890 
 337   0.0000       2.671590        72.6977 
 338   0.0000       2.679717        72.9188 
 339   0.0000       2.696811        73.3839 
 340   0.0000       2.700284        73.4785 
 341   0.0000       2.732342        74.3508 
 342   0.0000       2.741484        74.5996 
 343   0.0000       2.742026        74.6143 
 344   0.0000       2.771623        75.4197 
 345   0.0000       2.780636        75.6650 
 346   0.0000       2.785727        75.8035 
 347   0.0000       2.796378        76.0933 
 348   0.0000       2.806258        76.3622 
 349   0.0000       2.818127        76.6851 
 350   0.0000       2.824134        76.8486 
 351   0.0000       2.826500        76.9130 
 352   0.0000       2.836523        77.1857 
 353   0.0000       2.847257        77.4778 
 354   0.0000       2.852451        77.6191 
 355   0.0000       2.881266        78.4032 
 356   0.0000       2.883651        78.4681 
 357   0.0000       2.889079        78.6158 
 358   0.0000       2.894875        78.7736 
 359   0.0000       2.916612        79.3650 
 360   0.0000       2.936632        79.9098 
 361   0.0000       2.950732        80.2935 
 362   0.0000       2.952166        80.3325 
 363   0.0000       2.971394        80.8557 
 364   0.0000       2.985565        81.2414 
 365   0.0000       3.012839        81.9835 
 366   0.0000       3.038284        82.6759 
 367   0.0000       3.042438        82.7890 
 368   0.0000       3.047099        82.9158 
 369   0.0000       3.065589        83.4189 
 370   0.0000       3.095668        84.2374 
 371   0.0000       3.101680        84.4010 
 372   0.0000       3.116419        84.8021 
 373   0.0000       3.132015        85.2265 
 374   0.0000       3.144669        85.5708 
 375   0.0000       3.148461        85.6740 
 376   0.0000       3.156575        85.8948 
 377   0.0000       3.162192        86.0476 
 378   0.0000       3.168394        86.2164 
 379   0.0000       3.169108        86.2358 
 380   0.0000       3.186649        86.7131 
 381   0.0000       3.190545        86.8191 
 382   0.0000       3.198965        87.0483 
 383   0.0000       3.201420        87.1151 
 384   0.0000       3.205009        87.2127 
 385   0.0000       3.215077        87.4867 
 386   0.0000       3.224657        87.7474 
 387   0.0000       3.248357        88.3923 
 388   0.0000       3.252660        88.5094 
 389   0.0000       3.258612        88.6713 
 390   0.0000       3.270946        89.0070 
 391   0.0000       3.273434        89.0747 
 392   0.0000       3.286328        89.4255 
 393   0.0000       3.291000        89.5527 
 394   0.0000       3.291696        89.5716 
 395   0.0000       3.295235        89.6679 
 396   0.0000       3.321171        90.3736 
 397   0.0000       3.325714        90.4973 
 398   0.0000       3.326158        90.5094 
 399   0.0000       3.334369        90.7328 
 400   0.0000       3.335418        90.7613 
 401   0.0000       3.335854        90.7732 
 402   0.0000       3.336641        90.7946 
 403   0.0000       3.360221        91.4363 
 404   0.0000       3.380679        91.9930 
 405   0.0000       3.381657        92.0196 
 406   0.0000       3.390300        92.2548 
 407   0.0000       3.416308        92.9625 
 408   0.0000       3.418580        93.0243 
 409   0.0000       3.424040        93.1729 
 410   0.0000       3.439877        93.6038 
 411   0.0000       3.445871        93.7669 
 412   0.0000       3.453889        93.9851 
 413   0.0000       3.460869        94.1750 
 414   0.0000       3.491017        94.9954 
 415   0.0000       3.523311        95.8742 
 416   0.0000       3.541397        96.3663 
 417   0.0000       3.549722        96.5928 
 418   0.0000       3.565652        97.0263 
 419   0.0000       3.593496        97.7840 
 420   0.0000       3.619846        98.5010 
 421   0.0000       3.623697        98.6058 
 422   0.0000       3.626420        98.6799 
 423   0.0000       3.628804        98.7448 
 424   0.0000       3.630372        98.7875 
 425   0.0000       3.639162        99.0266 
 426   0.0000       3.642156        99.1081 
 427   0.0000       3.652742        99.3962 
 428   0.0000       3.674660        99.9926 
 429   0.0000       3.710005       100.9544 
 430   0.0000       3.715091       101.0928 
 431   0.0000       3.746785       101.9552 
 432   0.0000       3.760109       102.3178 
 433   0.0000       3.793990       103.2397 
 434   0.0000       3.822079       104.0041 
 435   0.0000       3.831574       104.2624 
 436   0.0000       3.857739       104.9744 
 437   0.0000       3.929926       106.9387 
 438   0.0000       3.942306       107.2756 
 439   0.0000       3.978832       108.2695 
 440   0.0000       3.981878       108.3524 
 441   0.0000       3.990283       108.5811 
 442   0.0000       4.014308       109.2349 
 443   0.0000       4.016519       109.2950 
 444   0.0000       4.026778       109.5742 
 445   0.0000       4.038716       109.8990 
 446   0.0000       4.048555       110.1668 
 447   0.0000       4.056189       110.3745 
 448   0.0000       4.065289       110.6221 
 449   0.0000       4.070345       110.7597 
 450   0.0000       4.075352       110.8960 
 451   0.0000       4.079068       110.9971 
 452   0.0000       4.094099       111.4061 
 453   0.0000       4.100931       111.5920 
 454   0.0000       4.116395       112.0128 
 455   0.0000       4.175911       113.6323 
 456   0.0000       4.211002       114.5872 
 457   0.0000       4.217916       114.7753 
 458   0.0000       4.232723       115.1782 
 459   0.0000       4.243740       115.4780 
 460   0.0000       4.254048       115.7585 
 461   0.0000       4.262263       115.9821 
 462   0.0000       4.299318       116.9904 
 463   0.0000       4.300534       117.0235 
 464   0.0000       4.341642       118.1421 
 465   0.0000       4.344262       118.2134 
 466   0.0000       4.355757       118.5262 
 467   0.0000       4.357085       118.5623 
 468   0.0000       4.372277       118.9757 
 469   0.0000       4.384665       119.3128 
 470   0.0000       4.386918       119.3741 
 471   0.0000       4.406284       119.9011 
 472   0.0000       4.425098       120.4130 
 473   0.0000       4.440469       120.8313 
 474   0.0000       4.448049       121.0376 
 475   0.0000       4.454112       121.2026 
 476   0.0000       4.468893       121.6048 
 477   0.0000       4.512942       122.8034 
 478   0.0000       4.544140       123.6523 
 479   0.0000       4.628315       125.9428 
 480   0.0000       4.677414       127.2789 
 481   0.0000       4.681600       127.3928 
 482   0.0000       4.737980       128.9270 
 483   0.0000       4.741527       129.0235 
 484   0.0000       4.747097       129.1751 
 485   0.0000       4.778691       130.0348 
 486   0.0000       4.801548       130.6568 
 487   0.0000       4.830114       131.4341 
 488   0.0000       4.868262       132.4721 
 489   0.0000       4.889539       133.0511 
 490   0.0000       4.910551       133.6229 
 491   0.0000       4.921055       133.9087 
 492   0.0000       4.923507       133.9754 
 493   0.0000       4.929433       134.1367 
 494   0.0000       4.964449       135.0895 
 495   0.0000       5.022730       136.6754 
 496   0.0000       5.039317       137.1268 
 497   0.0000       5.045937       137.3069 
 498   0.0000       5.142148       139.9250 
 499   0.0000       5.146572       140.0453 
 500   0.0000       5.146878       140.0537 
 501   0.0000       5.222083       142.1001 
 502   0.0000       5.289580       143.9368 
 503   0.0000       5.310893       144.5168 
 504   0.0000       5.370889       146.1493 
 505   0.0000       5.427566       147.6916 
 506   0.0000       5.500632       149.6798 
 507   0.0000       5.519995       150.2067 
 508   0.0000       5.551128       151.0539 
 509   0.0000       5.685776       154.7178 
 510   0.0000       5.780037       157.2828 
 511   0.0000       5.885518       160.1531 
 512   0.0000       5.901243       160.5810 
 513   0.0000       6.016944       163.7294 
 514   0.0000       6.099175       165.9670 
 515   0.0000       6.101256       166.0236 
 516   0.0000      22.300113       606.8169 
 517   0.0000      22.326356       607.5310 
 518   0.0000      22.331067       607.6592 
 519   0.0000      22.339667       607.8932 
[...]
     76       0.014844   0.076783  -0.028032   0.001076   0.000791  -0.000123
     77      -0.012116  -0.060285   0.022039  -0.000402  -0.000172   0.000160
     78      -0.000628   0.003232  -0.001199  -0.000002   0.000011  -0.000100
     79       0.011201  -0.063897   0.023595   0.000019   0.000128   0.000185
     80      -0.000260   0.001358  -0.000529  -0.000042   0.000035  -0.000433
     81       0.002911   0.001346   0.003736  -0.000002   0.000002   0.000049
     82      -0.059926  -0.023114  -0.063037   0.000019  -0.000122  -0.000247
     83       0.006774   0.002616   0.007057   0.000038   0.000050  -0.000408
     84       0.007038  -0.040660   0.015023  -0.000086  -0.000024   0.000123
     85      -0.107649   0.619690  -0.228935   0.001062   0.000257  -0.003004
     86      -0.024541   0.144077  -0.053198   0.000588   0.000291   0.000283
     87      -0.040951  -0.015865  -0.043276  -0.000072   0.000018  -0.000191
     88       0.559328   0.217177   0.592474   0.000980  -0.000238   0.002970
     89      -0.208387  -0.081826  -0.223140  -0.000715   0.000338  -0.000080
     90      -0.029438   0.166972  -0.062039   0.000002   0.000315  -0.004336
     91      -0.014320   0.082604  -0.030596  -0.000018   0.000404  -0.003797
     92       0.013000  -0.074459   0.027651  -0.000110  -0.000232   0.002110
     93      -0.152515  -0.059764  -0.164504   0.000044   0.000500  -0.005603
     94       0.061321   0.024589   0.067445  -0.000030  -0.000527   0.004365
     95       0.064352   0.025323   0.069719   0.000078  -0.000250   0.002233
     96       0.159042   0.059430   0.162845  -0.000007  -0.000339   0.004490
     97       0.093417   0.035279   0.096363  -0.000012  -0.000494   0.004516
     98       0.070399   0.026400   0.072327   0.000105  -0.000217   0.001967
     99       0.029810  -0.164808   0.061306   0.000063  -0.000551   0.005958
    100      -0.011270   0.063573  -0.023553  -0.000041   0.000539  -0.004418
    101       0.016073  -0.089371   0.033237  -0.000066  -0.000383   0.003387


-----------
IR SPECTRUM
-----------

 Mode   freq       eps      Int      T**2         TX        TY        TZ
       cm**-1   L/(mol*cm) km/mol    a.u.
----------------------------------------------------------------------------
  6:     20.11   0.000000    0.00  0.000001  (-0.000406 -0.000054 -0.000778)
  7:     41.43   0.000000    0.00  0.000000  ( 0.000276 -0.000353  0.000177)
  8:    122.80   0.000048    0.24  0.000122  ( 0.011053  0.000551 -0.000065)
  9:    142.30   0.000013    0.07  0.000029  ( 0.000868  0.000221  0.005278)
 10:    153.72   0.000000    0.00  0.000001  ( 0.000639  0.000513  0.000406)
 11:    224.49   0.000002    0.01  0.000003  ( 0.001480 -0.000197 -0.000538)
 12:    233.99   0.000001    0.00  0.000001  (-0.000965 -0.000304  0.000449)
 13:    263.97   0.000001    0.00  0.000001  (-0.000051  0.000092 -0.000916)
 14:    267.21   0.000001    0.00  0.000001  ( 0.000634  0.000314  0.000346)
 15:    277.56   0.000013    0.07  0.000015  (-0.000423 -0.000764 -0.003796)
 16:    285.00   0.000005    0.02  0.000005  ( 0.000877 -0.001287  0.001718)
 17:    315.85   0.000000    0.00  0.000000  ( 0.000318  0.000096 -0.000083)
 18:    328.92   0.000002    0.01  0.000002  ( 0.001161 -0.000801  0.000436)
 19:    342.37   0.000050    0.25  0.000045  (-0.006716  0.000067 -0.000093)
 20:    351.51   0.000001    0.00  0.000001  (-0.000065  0.000004  0.000829)
 21:    360.18   0.000000    0.00  0.000000  ( 0.000289 -0.000272  0.000131)
 22:    366.98   0.000000    0.00  0.000000  ( 0.000228 -0.000537  0.000000)
 23:    400.44   0.000063    0.32  0.000049  (-0.000121  0.007007 -0.000452)
 24:    444.13   0.000194    0.98  0.000136  (-0.011672 -0.000081 -0.000329)
 25:    466.83   0.000002    0.01  0.000001  (-0.000126 -0.000774 -0.000736)
 26:    468.49   0.000077    0.39  0.000051  (-0.000349  0.000333  0.007136)
 27:    519.45   0.000198    1.00  0.000119  ( 0.000585 -0.010861  0.000657)
 28:    570.33   0.000219    1.11  0.000120  ( 0.000093 -0.000816 -0.010926)
 29:    628.55   0.002463   12.45  0.001223  ( 0.002576 -0.034796  0.002304)
 30:    686.32   0.005349   27.03  0.002432  (-0.049220 -0.002913 -0.001026)
 31:    691.40   0.000017    0.08  0.000008  (-0.002662  0.000658 -0.000077)
 32:    787.24   0.005620   28.40  0.002228  ( 0.047082  0.003070  0.001217)
 33:    838.16   0.000031    0.16  0.000012  ( 0.000148 -0.000770 -0.003312)
 34:    842.04   0.000211    1.07  0.000078  (-0.000546  0.008789 -0.000792)
 35:    894.15   0.003562   18.00  0.001243  (-0.035141 -0.002758 -0.000861)
 36:    923.38   0.000013    0.07  0.000004  (-0.002075 -0.000217  0.000083)
 37:    950.85   0.000264    1.33  0.000087  (-0.009092 -0.000654 -0.001856)
 38:    951.49   0.000155    0.79  0.000051  ( 0.006528 -0.000325  0.002874)
 39:    958.91   0.000263    1.33  0.000086  (-0.001842  0.001255  0.008985)
 40:    960.58   0.000141    0.71  0.000046  ( 0.002072  0.000697 -0.006402)
 41:    978.46   0.000010    0.05  0.000003  ( 0.001646  0.000323  0.000682)
 42:    981.83   0.000010    0.05  0.000003  ( 0.001647  0.000461 -0.000446)
 43:   1025.42   0.000293    1.48  0.000089  ( 0.000543 -0.009397  0.000734)
 44:   1042.95   0.000048    0.24  0.000014  ( 0.000076 -0.000116 -0.003792)
 45:   1058.09   0.000004    0.02  0.000001  (-0.000717 -0.000724  0.000195)
 46:   1060.34   0.000005    0.03  0.000002  ( 0.001102 -0.000539  0.000037)
 47:   1064.33   0.000023    0.12  0.000007  (-0.002608  0.000142  0.000025)
 48:   1065.62   0.000130    0.66  0.000038  (-0.006135 -0.000280 -0.000642)
 49:   1142.06   0.003018   15.25  0.000825  (-0.000281 -0.002881  0.028569)
 50:   1153.44   0.015032   75.97  0.004067  ( 0.004421 -0.063587  0.002016)
 51:   1231.12   0.000601    3.04  0.000152  (-0.000262  0.003395  0.011865)
 52:   1240.74   0.047245  238.75  0.011883  ( 0.006746 -0.108561  0.007197)
 53:   1270.46   0.000004    0.02  0.000001  (-0.000179  0.000677  0.000672)
 54:   1273.52   0.001241    6.27  0.000304  (-0.001309  0.017357 -0.001068)
 55:   1284.63   0.000055    0.28  0.000013  (-0.003521  0.000964  0.000043)
 56:   1287.55   0.002250   11.37  0.000545  (-0.023337 -0.000123 -0.000829)
 57:   1315.76   0.000000    0.00  0.000000  ( 0.000155  0.000212  0.000157)
 58:   1343.56   0.002601   13.15  0.000604  ( 0.000757 -0.001480 -0.024523)
 59:   1420.50   0.000476    2.41  0.000105  (-0.005311 -0.000464  0.008726)
 60:   1421.89   0.007190   36.34  0.001578  (-0.006653 -0.003379 -0.039017)
 61:   1424.78   0.002896   14.63  0.000634  ( 0.025055 -0.000099  0.002542)
 62:   1426.32   0.004988   25.21  0.001091  ( 0.031622  0.003436 -0.008926)
 63:   1441.60   0.001106    5.59  0.000239  (-0.000857  0.015443 -0.000472)
 64:   1450.53   0.000848    4.28  0.000182  ( 0.000221  0.013287 -0.002411)
 65:   1451.73   0.002192   11.08  0.000471  (-0.004747  0.021156  0.001072)
 66:   1457.62   0.001601    8.09  0.000343  ( 0.000748  0.000129  0.018496)
 67:   1482.33   0.000015    0.07  0.000003  (-0.001645 -0.000479 -0.000426)
 68:   1484.03   0.000016    0.08  0.000003  (-0.001632 -0.000812  0.000336)
 69:   1485.37   0.000003    0.02  0.000001  (-0.000648 -0.000412  0.000347)
 70:   1486.08   0.000008    0.04  0.000002  ( 0.000107 -0.000950  0.000927)
 71:   1488.51   0.000222    1.12  0.000046  ( 0.000264  0.005797 -0.003574)
 72:   1491.16   0.000218    1.10  0.000046  ( 0.000743 -0.006208 -0.002549)
 73:   1510.97   0.001602    8.09  0.000331  (-0.001002  0.007119 -0.016707)
 74:   1511.46   0.002822   14.26  0.000583  (-0.006028  0.005850  0.022631)
 75:   1512.38   0.001348    6.81  0.000278  ( 0.016217 -0.001442 -0.003616)
 76:   1513.87   0.003265   16.50  0.000673  (-0.024913 -0.003007 -0.006587)
 77:   1522.22   0.002571   12.99  0.000527  (-0.000020  0.022510  0.004505)
 78:   1524.96   0.001296    6.55  0.000265  (-0.000585  0.010585 -0.012359)
 79:   1617.45   0.021468  108.49  0.004142  (-0.003826  0.064102 -0.004272)
 80:   1635.95   0.002180   11.02  0.000416  ( 0.000577 -0.001161 -0.020353)
 81:   3072.56   0.001377    6.96  0.000140  ( 0.000212 -0.011544  0.002556)
 82:   3072.71   0.001879    9.50  0.000191  ( 0.000610 -0.002287 -0.013611)
 83:   3078.00   0.001118    5.65  0.000113  ( 0.010646  0.000044  0.000160)
 84:   3078.18   0.001542    7.79  0.000156  (-0.012475 -0.000816 -0.000068)
 85:   3081.86   0.000102    0.51  0.000010  (-0.000876 -0.000947  0.002936)
 86:   3081.89   0.000454    2.29  0.000046  ( 0.001100  0.000792  0.006642)
 87:   3151.08   0.002571   12.99  0.000255  ( 0.015935  0.000802  0.000036)
 88:   3151.31   0.000482    2.43  0.000048  (-0.006891 -0.000239 -0.000384)
 89:   3159.14   0.001461    7.38  0.000144  ( 0.010445 -0.000351  0.005924)
 90:   3159.27   0.001634    8.26  0.000161  (-0.012681 -0.000744 -0.000049)
 91:   3161.55   0.002679   13.54  0.000264  (-0.000378 -0.005192 -0.015405)
 92:   3162.08   0.003452   17.44  0.000341  ( 0.004026  0.002294 -0.017866)
 93:   3167.99   0.000498    2.52  0.000049  (-0.006986  0.000409  0.000367)
 94:   3168.45   0.000551    2.79  0.000054  (-0.007335 -0.000335  0.000627)
 95:   3169.35   0.000510    2.58  0.000050  (-0.000227  0.004270  0.005653)
 96:   3169.74   0.000805    4.07  0.000079  (-0.000835  0.002012 -0.008631)
 97:   3175.79   0.005033   25.43  0.000495  ( 0.001365 -0.022181 -0.000796)
 98:   3176.12   0.001265    6.39  0.000124  ( 0.000630 -0.009787  0.005304)
 99:   3310.12   0.001893    9.57  0.000178  (-0.000967  0.013268 -0.001216)
100:   3327.38   0.002558   12.93  0.000240  ( 0.000477 -0.001090 -0.015442)
101:   3342.60   0.002725   13.77  0.000254  (-0.000381  0.000741  0.015928)

* The epsilon (eps) is given for a Dirac delta lineshape.
** The dipole moment derivative (T) already includes vibrational overlap.

The first frequency considered to be a vibration is 6
The total number of vibrations considered is 96


--------------------------
THERMOCHEMISTRY AT 298.15K
--------------------------

Temperature         ... 298.15 K
Pressure            ... 1.00 atm
Total Mass          ... 181.30 AMU

Throughout the following assumptions are being made:
  (1) The electronic state is orbitally nondegenerate
  (2) There are no thermally accessible electronically excited states
  (3) Hindered rotations indicated by low frequency modes are not
      treated as such but are treated as vibrations and this may
      cause some error
  (4) All equations used are the standard statistical mechanics
      equations for an ideal gas
  (5) All vibrations are strictly harmonic

freq.      20.11  E(vib)   ...       0.56 
freq.      41.43  E(vib)   ...       0.54 
freq.     122.80  E(vib)   ...       0.43 
freq.     142.30  E(vib)   ...       0.41 
freq.     153.72  E(vib)   ...       0.40 
freq.     224.49  E(vib)   ...       0.33 
freq.     233.99  E(vib)   ...       0.32 
freq.     263.97  E(vib)   ...       0.29 
freq.     267.21  E(vib)   ...       0.29 
freq.     277.56  E(vib)   ...       0.28 
freq.     285.00  E(vib)   ...       0.28 
freq.     315.85  E(vib)   ...       0.25 
freq.     328.92  E(vib)   ...       0.24 
freq.     342.37  E(vib)   ...       0.23 
freq.     351.51  E(vib)   ...       0.23 
freq.     360.18  E(vib)   ...       0.22 
freq.     366.98  E(vib)   ...       0.22 
freq.     400.44  E(vib)   ...       0.19 
freq.     444.13  E(vib)   ...       0.17 
freq.     466.83  E(vib)   ...       0.16 
freq.     468.49  E(vib)   ...       0.16 
freq.     519.45  E(vib)   ...       0.13 
freq.     570.33  E(vib)   ...       0.11 
freq.     628.55  E(vib)   ...       0.09 
freq.     686.32  E(vib)   ...       0.07 
freq.     691.40  E(vib)   ...       0.07 
freq.     787.24  E(vib)   ...       0.05 
freq.     838.16  E(vib)   ...       0.04 
freq.     842.04  E(vib)   ...       0.04 
freq.     894.15  E(vib)   ...       0.03 
freq.     923.38  E(vib)   ...       0.03 
freq.     950.85  E(vib)   ...       0.03 
freq.     951.49  E(vib)   ...       0.03 
freq.     958.91  E(vib)   ...       0.03 
freq.     960.58  E(vib)   ...       0.03 
freq.     978.46  E(vib)   ...       0.03 
freq.     981.83  E(vib)   ...       0.02 
freq.    1025.42  E(vib)   ...       0.02 
freq.    1042.95  E(vib)   ...       0.02 
freq.    1058.09  E(vib)   ...       0.02 
freq.    1060.34  E(vib)   ...       0.02 
freq.    1064.33  E(vib)   ...       0.02 
freq.    1065.62  E(vib)   ...       0.02 
freq.    1142.06  E(vib)   ...       0.01 
freq.    1153.44  E(vib)   ...       0.01 
freq.    1231.12  E(vib)   ...       0.01 
freq.    1240.74  E(vib)   ...       0.01 
freq.    1270.46  E(vib)   ...       0.01 
freq.    1273.52  E(vib)   ...       0.01 
freq.    1284.63  E(vib)   ...       0.01 
freq.    1287.55  E(vib)   ...       0.01 
freq.    1315.76  E(vib)   ...       0.01 
freq.    1343.56  E(vib)   ...       0.01 
freq.    1420.50  E(vib)   ...       0.00 
freq.    1421.89  E(vib)   ...       0.00 
freq.    1424.78  E(vib)   ...       0.00 
freq.    1426.32  E(vib)   ...       0.00 
freq.    1441.60  E(vib)   ...       0.00 
freq.    1450.53  E(vib)   ...       0.00 
freq.    1451.73  E(vib)   ...       0.00 
freq.    1457.62  E(vib)   ...       0.00 
freq.    1482.33  E(vib)   ...       0.00 
freq.    1484.03  E(vib)   ...       0.00 
freq.    1485.37  E(vib)   ...       0.00 
freq.    1486.08  E(vib)   ...       0.00 
freq.    1488.51  E(vib)   ...       0.00 
freq.    1491.16  E(vib)   ...       0.00 
freq.    1510.97  E(vib)   ...       0.00 
freq.    1511.46  E(vib)   ...       0.00 
freq.    1512.38  E(vib)   ...       0.00 
freq.    1513.87  E(vib)   ...       0.00 
freq.    1522.22  E(vib)   ...       0.00 
freq.    1524.96  E(vib)   ...       0.00 
freq.    1617.45  E(vib)   ...       0.00 
freq.    1635.95  E(vib)   ...       0.00 
freq.    3072.56  E(vib)   ...       0.00 
freq.    3072.71  E(vib)   ...       0.00 
freq.    3078.00  E(vib)   ...       0.00 
freq.    3078.18  E(vib)   ...       0.00 
freq.    3081.86  E(vib)   ...       0.00 
freq.    3081.89  E(vib)   ...       0.00 
freq.    3151.08  E(vib)   ...       0.00 
freq.    3151.31  E(vib)   ...       0.00 
freq.    3159.14  E(vib)   ...       0.00 
freq.    3159.27  E(vib)   ...       0.00 
freq.    3161.55  E(vib)   ...       0.00 
freq.    3162.08  E(vib)   ...       0.00 
freq.    3167.99  E(vib)   ...       0.00 
freq.    3168.45  E(vib)   ...       0.00 
freq.    3169.35  E(vib)   ...       0.00 
freq.    3169.74  E(vib)   ...       0.00 
freq.    3175.79  E(vib)   ...       0.00 
freq.    3176.12  E(vib)   ...       0.00 
freq.    3310.12  E(vib)   ...       0.00 
freq.    3327.38  E(vib)   ...       0.00 
freq.    3342.60  E(vib)   ...       0.00 

------------
INNER ENERGY
------------

The inner energy is: U= E(el) + E(ZPE) + E(vib) + E(rot) + E(trans)
    E(el)   - is the total energy from the electronic structure calculation
              = E(kin-el) + E(nuc-el) + E(el-el) + E(nuc-nuc)
    E(ZPE)  - the the zero temperature vibrational energy from the frequency calculation
    E(vib)  - the the finite temperature correction to E(ZPE) due to population
              of excited vibrational states
    E(rot)  - is the rotational thermal energy
    E(trans)- is the translational thermal energy

Summary of contributions to the inner energy U:
Electronic energy                ...   -541.19384721 Eh
Zero point energy                ...      0.31229097 Eh     195.97 kcal/mol
Thermal vibrational correction   ...      0.01165168 Eh       7.31 kcal/mol
Thermal rotational correction    ...      0.00141627 Eh       0.89 kcal/mol
Thermal translational correction ...      0.00141627 Eh       0.89 kcal/mol
-----------------------------------------------------------------------
Total thermal energy                   -540.86707201 Eh


Summary of corrections to the electronic energy:
(perhaps to be used in another calculation)
Total thermal correction                  0.01448423 Eh       9.09 kcal/mol
Non-thermal (ZPE) correction              0.31229097 Eh     195.97 kcal/mol
-----------------------------------------------------------------------
Total correction                          0.32677520 Eh     205.05 kcal/mol


--------
ENTHALPY
--------

The enthalpy is H = U + kB*T
                kB is Boltzmann's constant
Total free energy                 ...   -540.86707201 Eh 
Thermal Enthalpy correction       ...      0.00094421 Eh       0.59 kcal/mol
-----------------------------------------------------------------------
Total Enthalpy                    ...   -540.86612780 Eh


Note: Only C1 symmetry has been detected, increase convergence thresholds 
      if your molecule has a higher symmetry. Symmetry factor of 1.0 is   
      used for the rotational entropy correction. 
 

Note: Rotational entropy computed according to Herzberg 
Infrared and Raman Spectra, Chapter V,1, Van Nostrand Reinhold, 1945 
Point Group:  C1, Symmetry Number:   1  
Rotational constants in cm-1:     0.055676     0.014820     0.013854 

Vibrational entropy computed according to the QRRHO of S. Grimme
Chem.Eur.J. 2012 18 9955


-------
ENTROPY
-------

The entropy contributions are T*S = T*(S(el)+S(vib)+S(rot)+S(trans))
     S(el)   - electronic entropy
     S(vib)  - vibrational entropy
     S(rot)  - rotational entropy
     S(trans)- translational entropy
The entropies will be listed as multiplied by the temperature to get
units of energy

Electronic entropy                ...      0.00000000 Eh      0.00 kcal/mol
Vibrational entropy               ...      0.01984211 Eh     12.45 kcal/mol
Rotational entropy                ...      0.01488280 Eh      9.34 kcal/mol
Translational entropy             ...      0.01971392 Eh     12.37 kcal/mol
-----------------------------------------------------------------------
Final entropy term                ...      0.05443883 Eh     34.16 kcal/mol

In case the symmetry of your molecule has not been determined correctly
or in case you have a reason to use a different symmetry number we print 
out the resulting rotational entropy values for sn=1,12 :
 --------------------------------------------------------
|  sn= 1 | S(rot)=       0.01488280 Eh      9.34 kcal/mol|
|  sn= 2 | S(rot)=       0.01422834 Eh      8.93 kcal/mol|
|  sn= 3 | S(rot)=       0.01384551 Eh      8.69 kcal/mol|
|  sn= 4 | S(rot)=       0.01357388 Eh      8.52 kcal/mol|
|  sn= 5 | S(rot)=       0.01336319 Eh      8.39 kcal/mol|
|  sn= 6 | S(rot)=       0.01319105 Eh      8.28 kcal/mol|
|  sn= 7 | S(rot)=       0.01304550 Eh      8.19 kcal/mol|
|  sn= 8 | S(rot)=       0.01291943 Eh      8.11 kcal/mol|
|  sn= 9 | S(rot)=       0.01280822 Eh      8.04 kcal/mol|
|  sn=10 | S(rot)=       0.01270874 Eh      7.97 kcal/mol|
|  sn=11 | S(rot)=       0.01261875 Eh      7.92 kcal/mol|
|  sn=12 | S(rot)=       0.01253659 Eh      7.87 kcal/mol|
 --------------------------------------------------------


-------------------
GIBBS FREE ENERGY
-------------------

The Gibbs free energy is G = H - T*S

Total enthalpy                    ...   -540.86612780 Eh 
Total entropy correction          ...     -0.05443883 Eh    -34.16 kcal/mol
-----------------------------------------------------------------------
Final Gibbs free energy         ...   -540.92056663 Eh

For completeness - the Gibbs free energy minus the electronic energy
G-E(el)                           ...      0.27328058 Eh    171.49 kcal/mol


Timings for individual modules:

Sum of individual times         ...     5591.180 sec (=  93.186 min)
GTO integral calculation        ...        7.812 sec (=   0.130 min)   0.1 %
SCF iterations                  ...     1869.060 sec (=  31.151 min)  33.4 %
SCF Gradient evaluation         ...      522.658 sec (=   8.711 min)   9.3 %
Geometry relaxation             ...        0.549 sec (=   0.009 min)   0.0 %
Analytical frequency calculation...     3191.100 sec (=  53.185 min)  57.1 %
                             ****ORCA TERMINATED NORMALLY****
TOTAL RUN TIME: 0 days 1 hours 33 minutes 14 seconds 491 msec
