28
	Energy:      51.1047432
N         -2.00051       -0.42034        0.29129
C         -1.02160       -1.40831       -0.09944
N          0.18654       -0.68949       -0.41878
H         -1.16016       -2.50767       -0.16100
C         -0.08002        0.68753       -0.22802
C         -1.38100        0.84470        0.19431
C         -3.38375       -0.64205        0.69413
C          1.42560       -1.30984       -0.87250
C         -3.78040       -2.12322        0.61075
H         -4.04665       -0.07611        0.00334
C         -3.60532       -0.12631        2.12118
C          1.95231       -2.27173        0.19897
C          2.50693       -0.27452       -1.21674
H          1.20924       -1.89020       -1.79616
H          0.61917        1.49694       -0.38753
H         -1.85829        1.79051        0.41438
H         -3.65639       -2.49346       -0.42910
H         -4.84711       -2.25059        0.89404
H         -3.15725       -2.73846        1.29488
H         -3.37457        0.95759        2.18431
H         -2.95265       -0.67199        2.83609
H         -4.66565       -0.26719        2.42144
H          2.87931       -2.77197       -0.15419
H          1.20178       -3.05982        0.41766
H          2.17506       -1.72115        1.13814
H          2.14523        0.40297       -2.01918
H          3.42137       -0.78510       -1.58749
H          2.77716        0.32756       -0.32270
