18
	Energy:      35.1949312
N         -1.72538       -0.58937        0.85244
C         -0.90793       -1.52334        0.05445
N          0.04000       -0.73236       -0.73962
H         -1.50741       -2.16925       -0.62369
C          0.03259        0.57316       -0.09008
C         -1.40912        0.72425        0.30030
C         -3.16167       -0.88723        0.79399
C          1.36877       -1.34943       -0.73795
H         -3.35342       -1.89348        1.22300
H         -3.53799       -0.86525       -0.25300
H         -3.72633       -0.14412        1.39675
H          1.75255       -1.48775        0.29752
H          2.07991       -0.71352       -1.30807
H          1.32197       -2.34055       -1.23784
H          0.39279        1.38711       -0.75544
H          0.64557        0.55055        0.84279
H         -1.99924        0.90892       -0.62880
H         -1.58233        1.54918        1.02429
