41
8.out	Energy:    -844.7495574
C          0.19771       -1.19506        0.16318
N         -0.99601       -0.37041        0.24931
C         -0.53721        0.95908        0.46060
C          0.82559        0.99104        0.49987
N          1.32657       -0.30764        0.32615
C         -2.37925       -0.83867        0.14229
C         -3.08790       -0.97691       -1.11253
C         -4.41802       -1.43616       -1.12950
C         -5.08433       -1.76436        0.03262
C         -4.44576       -1.64573        1.24873
C         -3.09468       -1.26108        1.33090
C         -2.52061       -0.66627       -2.47179
H         -1.65091       -1.32419       -2.67641
H         -2.27644        0.41371       -2.53803
H         -3.24165       -0.85710       -3.29562
C         -2.52093       -1.26100        2.73114
H         -1.64990       -1.94612        2.78960
H         -3.24513       -1.62007        3.49360
H         -2.24429       -0.22901        3.03103
C          2.70238       -0.73259        0.30522
C          3.44779       -0.79182       -0.91925
C          4.76442       -1.28432       -0.91161
C          5.36365       -1.71089        0.26324
C          4.66493       -1.65606        1.45849
C          3.34821       -1.17439        1.50723
C          2.88020       -0.40864       -2.26424
H          3.58373       -0.63865       -3.09286
H          2.70967        0.67886       -2.33050
H          1.94497       -0.97490       -2.45723
C          2.73455       -1.12408        2.88759
H          1.75365       -0.62990        2.94923
H          3.39577       -0.52957        3.55359
H          2.64927       -2.15191        3.29949
H         -4.96101       -1.54539       -2.06101
H         -6.10802       -2.11468       -0.00997
H         -5.00648       -1.91402        2.13636
H          6.37906       -2.08607        0.24736
H          5.16173       -1.98646        2.36351
H          5.33860       -1.34813       -1.82812
H         -1.09643        1.85839        0.59227
H          1.39596        1.88496        0.67780
16
1+.xyz
C          0.98815       -0.09113       -1.35814
C         -0.16301       -0.80857       -1.46810
N          1.05198        0.36951       -0.06124
N         -0.77903       -0.77142       -0.23633
C         -0.02533       -0.05489        0.59323
H          1.76428        0.13346       -2.08712
H         -0.59918       -1.33690       -2.31352
C          2.12465        1.18289        0.49968
C         -2.04473       -1.41469        0.09812
H          3.06533        0.61872        0.47015
H          1.87314        1.42833        1.53783
H          2.22248        2.10649       -0.08454
H         -0.25465        0.15164        1.63883
H         -1.93995       -2.50214       -0.00482
H         -2.82697       -1.04835       -0.57835
H         -2.30413       -1.16401        1.13333
16
1+_gasSP.xyz
C          0.98815       -0.09113       -1.35814
C         -0.16301       -0.80857       -1.46810
N          1.05198        0.36951       -0.06124
N         -0.77903       -0.77142       -0.23633
C         -0.02533       -0.05489        0.59323
H          1.76428        0.13346       -2.08712
H         -0.59918       -1.33690       -2.31352
C          2.12465        1.18289        0.49968
C         -2.04473       -1.41469        0.09812
H          3.06533        0.61872        0.47015
H          1.87314        1.42833        1.53783
H          2.22248        2.10649       -0.08454
H         -0.25465        0.15164        1.63883
H         -1.93995       -2.50214       -0.00482
H         -2.82697       -1.04835       -0.57835
H         -2.30413       -1.16401        1.13333
15
1-gasSP.xyz
C         -0.00000        0.67780       -1.19360
C         -0.00000       -0.67780       -1.19360
N         -0.00000        1.06160        0.13700
N         -0.00000       -1.06160        0.13700
C         -0.00000        0.00000        0.98720
H          0.00000        1.39330       -2.01470
H         -0.00000       -1.39330       -2.01470
C          0.00000        2.44700        0.56580
C          0.00000       -2.44700        0.56580
H         -0.89460        2.96830        0.19400
H         -0.89460       -2.96830        0.19400
H          0.89460       -2.96830        0.19400
H          0.89460        2.96830        0.19400
H         -0.00000        2.46870        1.66210
H          0.00000       -2.46870        1.66210
15
1.xyz
C         -0.00000        0.67784       -1.19365
C         -0.00000       -0.67784       -1.19365
N         -0.00000        1.06159        0.13705
N         -0.00000       -1.06159        0.13705
C         -0.00000        0.00000        0.98723
H          0.00000        1.39329       -2.01472
H         -0.00000       -1.39329       -2.01472
C          0.00000        2.44699        0.56580
C          0.00000       -2.44699        0.56580
H         -0.89458        2.96833        0.19403
H         -0.89458       -2.96833        0.19403
H          0.89458       -2.96833        0.19403
H          0.89458        2.96833        0.19403
H         -0.00000        2.46875        1.66210
H          0.00000       -2.46875        1.66210
21
10+-gasSP.xyz
C         -0.06770        1.11240        1.24850
C         -0.06890       -0.95960        0.00000
C         -0.06770        1.11240       -1.24850
C          0.56190        1.70610       -0.00000
H         -1.10580        1.46020        1.38310
H         -0.07170       -2.05440       -0.00000
H          0.50110        1.39250       -2.14640
H          1.64450        1.50170       -0.00000
N         -0.06860       -0.34900        1.16410
N         -0.06860       -0.34900       -1.16410
H         -1.10580        1.46020       -1.38310
H          0.42880        2.79640        0.00000
H          0.50110        1.39250        2.14640
C         -0.10920       -1.09930        2.41040
H         -0.14430       -2.17500        2.19670
H          0.78580       -0.87550        3.00910
H         -1.00420       -0.81600        2.98380
C         -0.10920       -1.09930       -2.41040
H          0.78580       -0.87550       -3.00910
H         -0.14430       -2.17500       -2.19670
H         -1.00420       -0.81600       -2.98380
21
10+.xyz
C         -0.06768        1.11236        1.24847
C         -0.06895       -0.95956        0.00000
C         -0.06768        1.11236       -1.24847
C          0.56190        1.70609       -0.00000
H         -1.10575        1.46016        1.38312
H         -0.07168       -2.05443       -0.00000
H          0.50111        1.39250       -2.14643
H          1.64447        1.50168       -0.00000
N         -0.06860       -0.34902        1.16409
N         -0.06860       -0.34902       -1.16409
H         -1.10575        1.46016       -1.38312
H          0.42882        2.79643        0.00000
H          0.50111        1.39250        2.14643
C         -0.10922       -1.09934        2.41039
H         -0.14431       -2.17503        2.19672
H          0.78578       -0.87549        3.00911
H         -1.00418       -0.81603        2.98385
C         -0.10922       -1.09934       -2.41039
H          0.78578       -0.87550       -3.00911
H         -0.14431       -2.17503       -2.19672
H         -1.00418       -0.81603       -2.98385
21
10+_gasSP.xyz
C         -0.06768        1.11236        1.24847
C         -0.06895       -0.95956        0.00000
C         -0.06768        1.11236       -1.24847
C          0.56190        1.70609       -0.00000
H         -1.10575        1.46016        1.38312
H         -0.07168       -2.05443       -0.00000
H          0.50111        1.39250       -2.14643
H          1.64447        1.50168       -0.00000
N         -0.06860       -0.34902        1.16409
N         -0.06860       -0.34902       -1.16409
H         -1.10575        1.46016       -1.38312
H          0.42882        2.79643        0.00000
H          0.50111        1.39250        2.14643
C         -0.10922       -1.09934        2.41039
H         -0.14431       -2.17503        2.19672
H          0.78578       -0.87549        3.00911
H         -1.00418       -0.81603        2.98385
C         -0.10922       -1.09934       -2.41039
H          0.78578       -0.87550       -3.00911
H         -0.14431       -2.17503       -2.19672
H         -1.00418       -0.81603       -2.98385
20
10-gasSP.xyz
C         -0.19320        1.05130        1.23750
C          0.07750       -1.10040        0.00000
C         -0.19320        1.05130       -1.23750
C          0.35570        1.73520       -0.00000
H         -1.26680        1.28420        1.36880
H          0.32440        1.41240       -2.14080
H          1.45640        1.66990       -0.00000
N         -0.00510       -0.39450        1.14140
N         -0.00510       -0.39450       -1.14140
H         -1.26680        1.28420       -1.36880
H          0.08660        2.80160       -0.00000
H          0.32440        1.41240        2.14080
C          0.00370       -1.09170        2.41110
H          0.10130       -2.16830        2.22530
H          0.84320       -0.75700        3.04490
H         -0.93210       -0.90970        2.96820
C          0.00370       -1.09170       -2.41110
H          0.84320       -0.75700       -3.04490
H          0.10130       -2.16830       -2.22530
H         -0.93210       -0.90970       -2.96820
20
10.xyz
C         -0.19316        1.05126        1.23746
C          0.07746       -1.10037        0.00000
C         -0.19316        1.05126       -1.23746
C          0.35569        1.73523       -0.00000
H         -1.26678        1.28419        1.36881
H          0.32436        1.41243       -2.14080
H          1.45643        1.66994       -0.00000
N         -0.00507       -0.39455        1.14139
N         -0.00507       -0.39455       -1.14139
H         -1.26678        1.28419       -1.36880
H          0.08661        2.80156       -0.00000
H          0.32436        1.41243        2.14080
C          0.00370       -1.09171        2.41106
H          0.10129       -2.16827        2.22528
H          0.84321       -0.75699        3.04494
H         -0.93215       -0.90973        2.96824
C          0.00370       -1.09171       -2.41106
H          0.84321       -0.75699       -3.04494
H          0.10129       -2.16827       -2.22528
H         -0.93214       -0.90973       -2.96824
20
10_gasSP.xyz
C         -0.19316        1.05126        1.23746
C          0.07746       -1.10037        0.00000
C         -0.19316        1.05126       -1.23746
C          0.35569        1.73523       -0.00000
H         -1.26678        1.28419        1.36881
H          0.32436        1.41243       -2.14080
H          1.45643        1.66994       -0.00000
N         -0.00507       -0.39455        1.14139
N         -0.00507       -0.39455       -1.14139
H         -1.26678        1.28419       -1.36880
H          0.08661        2.80156       -0.00000
H          0.32436        1.41243        2.14080
C          0.00370       -1.09171        2.41106
H          0.10129       -2.16827        2.22528
H          0.84321       -0.75699        3.04494
H         -0.93215       -0.90973        2.96824
C          0.00370       -1.09171       -2.41106
H          0.84321       -0.75699       -3.04494
H          0.10129       -2.16827       -2.22528
H         -0.93214       -0.90973       -2.96824
20
11+-gasSP.xyz
C          0.00000       -0.00000        0.66300
N         -0.00870        1.19340        0.10620
N          0.00870       -1.19340        0.10620
C          0.22650        1.49080       -1.30470
C         -0.22650       -1.49080       -1.30470
H          0.72230        2.46880       -1.35720
H         -0.72230       -2.46880       -1.35720
H          0.89540        0.74900       -1.75320
H         -0.89540       -0.74900       -1.75320
H         -0.71560        1.54380       -1.87000
H          0.71560       -1.54380       -1.87000
C         -0.23870        2.36240        0.95330
C          0.23870       -2.36240        0.95330
H         -0.36720        2.05490        1.99810
H          0.36720       -2.05490        1.99810
H          0.61630        3.04960        0.87540
H         -0.61630       -3.04960        0.87540
H         -1.14860        2.88350        0.62090
H          1.14860       -2.88350        0.62090
H          0.00000        0.00000        1.75830
20
11+.xyz
C          0.00000       -0.00000        0.66303
N         -0.00867        1.19335        0.10616
N          0.00867       -1.19335        0.10616
C          0.22650        1.49079       -1.30470
C         -0.22650       -1.49079       -1.30470
H          0.72227        2.46884       -1.35723
H         -0.72227       -2.46884       -1.35723
H          0.89542        0.74904       -1.75317
H         -0.89542       -0.74904       -1.75317
H         -0.71560        1.54377       -1.87004
H          0.71560       -1.54377       -1.87004
C         -0.23870        2.36236        0.95332
C          0.23870       -2.36236        0.95332
H         -0.36719        2.05490        1.99806
H          0.36719       -2.05490        1.99806
H          0.61634        3.04963        0.87540
H         -0.61634       -3.04963        0.87540
H         -1.14864        2.88351        0.62089
H          1.14864       -2.88351        0.62089
H          0.00000        0.00000        1.75829
20
11+_gasSP.xyz
C          0.00000       -0.00000        0.66303
N         -0.00867        1.19335        0.10616
N          0.00867       -1.19335        0.10616
C          0.22650        1.49079       -1.30470
C         -0.22650       -1.49079       -1.30470
H          0.72227        2.46884       -1.35723
H         -0.72227       -2.46884       -1.35723
H          0.89542        0.74904       -1.75317
H         -0.89542       -0.74904       -1.75317
H         -0.71560        1.54377       -1.87004
H          0.71560       -1.54377       -1.87004
C         -0.23870        2.36236        0.95332
C          0.23870       -2.36236        0.95332
H         -0.36719        2.05490        1.99806
H          0.36719       -2.05490        1.99806
H          0.61634        3.04963        0.87540
H         -0.61634       -3.04963        0.87540
H         -1.14864        2.88351        0.62089
H          1.14864       -2.88351        0.62089
H          0.00000        0.00000        1.75829
19
11-gasSP.xyz
C         -0.00000        0.00000        0.82480
N         -0.00340        1.16270        0.14520
N          0.00340       -1.16270        0.14520
C          0.35510        1.42100       -1.24860
C         -0.35510       -1.42100       -1.24860
H          0.94370        2.35070       -1.28780
H         -0.94370       -2.35070       -1.28780
H          0.98470        0.61820       -1.64850
H         -0.98470       -0.61820       -1.64850
H         -0.52180        1.55300       -1.90430
H          0.52180       -1.55300       -1.90430
C         -0.17480        2.38400        0.91580
C          0.17480       -2.38400        0.91580
H         -0.39020        2.12280        1.95830
H          0.39020       -2.12280        1.95830
H          0.73430        3.01060        0.87780
H         -0.73430       -3.01060        0.87780
H         -1.01290        2.98260        0.51960
H          1.01290       -2.98260        0.51960
19
11.xyz
C         -0.00000        0.00000        0.82477
N         -0.00341        1.16271        0.14519
N          0.00341       -1.16271        0.14520
C          0.35513        1.42100       -1.24864
C         -0.35513       -1.42100       -1.24864
H          0.94369        2.35070       -1.28775
H         -0.94370       -2.35070       -1.28775
H          0.98465        0.61819       -1.64851
H         -0.98465       -0.61819       -1.64851
H         -0.52179        1.55300       -1.90432
H          0.52179       -1.55300       -1.90432
C         -0.17480        2.38402        0.91578
C          0.17480       -2.38402        0.91578
H         -0.39016        2.12278        1.95825
H          0.39016       -2.12278        1.95825
H          0.73429        3.01063        0.87775
H         -0.73429       -3.01063        0.87775
H         -1.01289        2.98265        0.51965
H          1.01289       -2.98264        0.51965
19
11_gasSP.xyz
C         -0.00000        0.00000        0.82477
N         -0.00341        1.16271        0.14519
N          0.00341       -1.16271        0.14520
C          0.35513        1.42100       -1.24864
C         -0.35513       -1.42100       -1.24864
H          0.94369        2.35070       -1.28775
H         -0.94370       -2.35070       -1.28775
H          0.98465        0.61819       -1.64851
H         -0.98465       -0.61819       -1.64851
H         -0.52179        1.55300       -1.90432
H          0.52179       -1.55300       -1.90432
C         -0.17480        2.38402        0.91578
C          0.17480       -2.38402        0.91578
H         -0.39016        2.12278        1.95825
H          0.39016       -2.12278        1.95825
H          0.73429        3.01063        0.87775
H         -0.73429       -3.01063        0.87775
H         -1.01289        2.98265        0.51965
H          1.01289       -2.98264        0.51965
15
1_gasSP.xyz
C         -0.00000        0.67784       -1.19365
C         -0.00000       -0.67784       -1.19365
N         -0.00000        1.06159        0.13705
N         -0.00000       -1.06159        0.13705
C         -0.00000        0.00000        0.98723
H          0.00000        1.39329       -2.01472
H         -0.00000       -1.39329       -2.01472
C          0.00000        2.44699        0.56580
C          0.00000       -2.44699        0.56580
H         -0.89458        2.96833        0.19403
H         -0.89458       -2.96833        0.19403
H          0.89458       -2.96833        0.19403
H          0.89458        2.96833        0.19403
H         -0.00000        2.46875        1.66210
H          0.00000       -2.46875        1.66210
22
2+-gasSP.xyz
C         -0.00000        0.68480       -0.65930
C         -0.00000       -0.68480       -0.65930
N         -0.00000        1.08010        0.66960
N          0.00000       -1.08010        0.66960
C         -0.00000        0.00000        1.44380
C         -0.00000        2.46000        1.13460
C          0.00000       -2.46000        1.13460
H         -0.89760        2.97250        0.76400
H         -0.89760       -2.97250        0.76400
H          0.89760       -2.97250        0.76400
H          0.89760        2.97250        0.76400
H         -0.00000        2.46510        2.23060
H          0.00000       -2.46510        2.23060
H         -0.00000        0.00000        2.53390
C          0.00000        1.66830       -1.77690
C         -0.00000       -1.66830       -1.77690
H          0.89120        2.31360       -1.73720
H          0.89110       -2.31360       -1.73720
H         -0.89120       -2.31360       -1.73720
H         -0.89110        2.31360       -1.73720
H          0.00000        1.14110       -2.73930
H         -0.00000       -1.14110       -2.73930
22
2+.xyz
C         -0.00000        0.68478       -0.65926
C         -0.00000       -0.68478       -0.65926
N         -0.00000        1.08013        0.66964
N          0.00000       -1.08013        0.66964
C         -0.00000        0.00000        1.44380
C         -0.00000        2.45997        1.13455
C          0.00000       -2.45997        1.13455
H         -0.89760        2.97247        0.76401
H         -0.89760       -2.97247        0.76401
H          0.89760       -2.97247        0.76401
H          0.89760        2.97247        0.76401
H         -0.00000        2.46510        2.23064
H          0.00000       -2.46510        2.23064
H         -0.00000        0.00000        2.53389
C          0.00000        1.66835       -1.77688
C         -0.00000       -1.66835       -1.77688
H          0.89115        2.31355       -1.73718
H          0.89115       -2.31355       -1.73718
H         -0.89115       -2.31355       -1.73718
H         -0.89115        2.31355       -1.73718
H          0.00000        1.14106       -2.73933
H         -0.00000       -1.14106       -2.73933
22
2+_gasSP.xyz
C         -0.00000        0.68478       -0.65926
C         -0.00000       -0.68478       -0.65926
N         -0.00000        1.08013        0.66964
N          0.00000       -1.08013        0.66964
C         -0.00000        0.00000        1.44380
C         -0.00000        2.45997        1.13455
C          0.00000       -2.45997        1.13455
H         -0.89760        2.97247        0.76401
H         -0.89760       -2.97247        0.76401
H          0.89760       -2.97247        0.76401
H          0.89760        2.97247        0.76401
H         -0.00000        2.46510        2.23064
H          0.00000       -2.46510        2.23064
H         -0.00000        0.00000        2.53389
C          0.00000        1.66835       -1.77688
C         -0.00000       -1.66835       -1.77688
H          0.89115        2.31355       -1.73718
H          0.89115       -2.31355       -1.73718
H         -0.89115       -2.31355       -1.73718
H         -0.89115        2.31355       -1.73718
H          0.00000        1.14106       -2.73933
H         -0.00000       -1.14106       -2.73933
21
2-gasSP.xyz
C         -0.00000        0.68090       -0.62330
C         -0.00000       -0.68090       -0.62330
N         -0.00000        1.05980        0.71770
N         -0.00000       -1.05980        0.71770
C         -0.00000        0.00000        1.56710
C          0.00000        2.44110        1.15390
C          0.00000       -2.44110        1.15390
H         -0.89350        2.96970        0.78780
H         -0.89350       -2.96970        0.78780
H          0.89350       -2.96970        0.78780
H          0.89350        2.96970        0.78780
H         -0.00000        2.45380        2.25040
H         -0.00000       -2.45380        2.25040
C         -0.00000        1.66470       -1.74460
C         -0.00000       -1.66470       -1.74460
H          0.88870        2.31550       -1.71260
H          0.88870       -2.31550       -1.71260
H         -0.88870       -2.31550       -1.71260
H         -0.88870        2.31550       -1.71260
H          0.00000        1.13980       -2.71000
H         -0.00000       -1.13980       -2.71000
21
2.xyz
C         -0.00000        0.68088       -0.62326
C         -0.00000       -0.68088       -0.62326
N         -0.00000        1.05984        0.71765
N         -0.00000       -1.05984        0.71765
C         -0.00000        0.00000        1.56710
C          0.00000        2.44112        1.15387
C          0.00000       -2.44112        1.15387
H         -0.89355        2.96966        0.78775
H         -0.89355       -2.96966        0.78775
H          0.89355       -2.96966        0.78775
H          0.89355        2.96966        0.78775
H         -0.00000        2.45375        2.25040
H         -0.00000       -2.45375        2.25040
C         -0.00000        1.66469       -1.74464
C         -0.00000       -1.66469       -1.74464
H          0.88874        2.31548       -1.71264
H          0.88874       -2.31548       -1.71264
H         -0.88874       -2.31548       -1.71264
H         -0.88874        2.31548       -1.71264
H          0.00000        1.13985       -2.70996
H         -0.00000       -1.13985       -2.70996
21
2_gasSP.xyz
C         -0.00000        0.68088       -0.62326
C         -0.00000       -0.68088       -0.62326
N         -0.00000        1.05984        0.71765
N         -0.00000       -1.05984        0.71765
C         -0.00000        0.00000        1.56710
C          0.00000        2.44112        1.15387
C          0.00000       -2.44112        1.15387
H         -0.89355        2.96966        0.78775
H         -0.89355       -2.96966        0.78775
H          0.89355       -2.96966        0.78775
H          0.89355        2.96966        0.78775
H         -0.00000        2.45375        2.25040
H         -0.00000       -2.45375        2.25040
C         -0.00000        1.66469       -1.74464
C         -0.00000       -1.66469       -1.74464
H          0.88874        2.31548       -1.71264
H          0.88874       -2.31548       -1.71264
H         -0.88874       -2.31548       -1.71264
H         -0.88874        2.31548       -1.71264
H          0.00000        1.13985       -2.70996
H         -0.00000       -1.13985       -2.70996
16
3+-gasSP.xyz
N          0.00000        1.08650        1.05640
N         -0.00000       -1.08650        1.05640
C          0.00000        0.68240       -0.26170
C         -0.00000       -0.68240       -0.26170
C          0.00000       -0.00000        1.82460
Cl         0.00000        1.76340       -1.55900
Cl        -0.00000       -1.76340       -1.55900
C         -0.00000        2.47190        1.51970
C          0.00000       -2.47190        1.51970
H         -0.00000        2.46760        2.61530
H         -0.00000       -2.46760        2.61530
H         -0.90000        2.97630        1.14600
H         -0.90000       -2.97630        1.14600
H          0.90000       -2.97630        1.14600
H          0.90000        2.97630        1.14600
H         -0.00000       -0.00000        2.91530
16
3+.xyz
N          0.00000        1.08652        1.05639
N         -0.00000       -1.08652        1.05639
C          0.00000        0.68238       -0.26171
C         -0.00000       -0.68238       -0.26171
C          0.00000       -0.00000        1.82460
Cl         0.00000        1.76336       -1.55896
Cl        -0.00000       -1.76336       -1.55896
C         -0.00000        2.47187        1.51970
C          0.00000       -2.47187        1.51970
H         -0.00000        2.46761        2.61530
H         -0.00000       -2.46761        2.61530
H         -0.90003        2.97631        1.14596
H         -0.90003       -2.97631        1.14596
H          0.90003       -2.97631        1.14597
H          0.90003        2.97631        1.14596
H         -0.00000       -0.00000        2.91534
16
3+_gasSP.xyz
N          0.00000        1.08652        1.05639
N         -0.00000       -1.08652        1.05639
C          0.00000        0.68238       -0.26171
C         -0.00000       -0.68238       -0.26171
C          0.00000       -0.00000        1.82460
Cl         0.00000        1.76336       -1.55896
Cl        -0.00000       -1.76336       -1.55896
C         -0.00000        2.47187        1.51970
C          0.00000       -2.47187        1.51970
H         -0.00000        2.46761        2.61530
H         -0.00000       -2.46761        2.61530
H         -0.90003        2.97631        1.14596
H         -0.90003       -2.97631        1.14596
H          0.90003       -2.97631        1.14597
H          0.90003        2.97631        1.14596
H         -0.00000       -0.00000        2.91534
15
3-gasSP.xyz
N         -0.00000        1.06840        1.11240
N          0.00000       -1.06840        1.11240
C         -0.00000        0.67850       -0.21320
C          0.00000       -0.67850       -0.21320
C          0.00000       -0.00000        1.95510
Cl        -0.00000        1.76250       -1.52610
Cl        -0.00000       -1.76250       -1.52610
C         -0.00000        2.45260        1.55040
C          0.00000       -2.45260        1.55040
H         -0.00000        2.45210        2.64630
H          0.00000       -2.45210        2.64630
H         -0.89570        2.97380        1.18300
H         -0.89570       -2.97380        1.18300
H          0.89570       -2.97380        1.18300
H          0.89570        2.97380        1.18300
15
3.xyz
N         -0.00000        1.06840        1.11244
N          0.00000       -1.06840        1.11244
C         -0.00000        0.67854       -0.21324
C          0.00000       -0.67854       -0.21324
C          0.00000       -0.00000        1.95509
Cl        -0.00000        1.76253       -1.52609
Cl        -0.00000       -1.76253       -1.52609
C         -0.00000        2.45264        1.55039
C          0.00000       -2.45264        1.55039
H         -0.00000        2.45213        2.64631
H          0.00000       -2.45212        2.64631
H         -0.89571        2.97384        1.18296
H         -0.89571       -2.97384        1.18296
H          0.89571       -2.97384        1.18296
H          0.89571        2.97384        1.18296
15
3_gasSP.xyz
N         -0.00000        1.06840        1.11244
N          0.00000       -1.06840        1.11244
C         -0.00000        0.67854       -0.21324
C          0.00000       -0.67854       -0.21324
C          0.00000       -0.00000        1.95509
Cl        -0.00000        1.76253       -1.52609
Cl        -0.00000       -1.76253       -1.52609
C         -0.00000        2.45264        1.55039
C          0.00000       -2.45264        1.55039
H         -0.00000        2.45213        2.64631
H          0.00000       -2.45212        2.64631
H         -0.89571        2.97384        1.18296
H         -0.89571       -2.97384        1.18296
H          0.89571       -2.97384        1.18296
H          0.89571        2.97384        1.18296
28
4+-gasSP.xyz
C          1.25300       -0.19860       -0.58580
C          0.26960       -1.11920       -0.78190
N          0.70300        0.82780        0.15160
N         -0.86250       -0.63840       -0.15970
C         -0.57200        0.53560        0.39390
H          2.29220       -0.19280       -0.90970
H          0.28410       -2.07010       -1.31140
C          1.39740        2.05750        0.59100
C         -2.18230       -1.30360       -0.11190
H          0.64840        2.60460        1.18340
H         -2.80950       -0.63460        0.49630
H         -1.26620        1.15830        0.95900
C          1.78980        2.89280       -0.62000
C         -2.76600       -1.40370       -1.51420
C         -2.06100       -2.65120        0.58540
C          2.57940        1.70050        1.48040
H          2.53170        2.36460       -1.23940
H         -2.15180       -2.05850       -2.15230
H         -1.43700       -3.34500        0.00030
H          3.35220        1.15720        0.91430
H          0.91200        3.12850       -1.23940
H         -2.83590       -0.41220       -1.98510
H         -1.62440       -2.54010        1.58880