
                                 *****************
                                 * O   R   C   A *
                                 *****************

                                            #,                                       
                                            ###                                      
                                            ####                                     
                                            #####                                    
                                            ######                                   
                                           ########,                                 
                                     ,,################,,,,,                         
                               ,,#################################,,                 
                          ,,##########################################,,             
                       ,#########################################, ''#####,          
                    ,#############################################,,   '####,        
                  ,##################################################,,,,####,       
                ,###########''''           ''''###############################       
              ,#####''   ,,,,##########,,,,          '''####'''          '####       
            ,##' ,,,,###########################,,,                        '##       
           ' ,,###''''                  '''############,,,                           
         ,,##''                                '''############,,,,        ,,,,,,###''
      ,#''                                            '''#######################'''  
     '                                                          ''''####''''         
             ,#######,   #######,   ,#######,      ##                                
            ,#'     '#,  ##    ##  ,#'     '#,    #''#        ######   ,####,        
            ##       ##  ##   ,#'  ##            #'  '#       #        #'  '#        
            ##       ##  #######   ##           ,######,      #####,   #    #        
            '#,     ,#'  ##    ##  '#,     ,#' ,#      #,         ##   #,  ,#        
             '#######'   ##     ##  '#######'  #'      '#     #####' # '####'        



                  #######################################################
                  #                        -***-                        #
                  #          Department of theory and spectroscopy      #
                  #    Directorship and core code : Frank Neese         #
                  #        Max Planck Institute fuer Kohlenforschung    #
                  #                Kaiser Wilhelm Platz 1               #
                  #                 D-45470 Muelheim/Ruhr               #
                  #                      Germany                        #
                  #                                                     #
                  #                  All rights reserved                #
                  #                        -***-                        #
                  #######################################################


                         Program Version 5.0.4 -  RELEASE  -


 With contributions from (in alphabetic order):
   Daniel Aravena         : Magnetic Suceptibility
   Michael Atanasov       : Ab Initio Ligand Field Theory (pilot matlab implementation)
   Alexander A. Auer      : GIAO ZORA, VPT2 properties, NMR spectrum
   Ute Becker             : Parallelization
   Giovanni Bistoni       : ED, misc. LED, open-shell LED, HFLD
   Martin Brehm           : Molecular dynamics
   Dmytro Bykov           : SCF Hessian
   Vijay G. Chilkuri      : MRCI spin determinant printing, contributions to CSF-ICE
   Dipayan Datta          : RHF DLPNO-CCSD density
   Achintya Kumar Dutta   : EOM-CC, STEOM-CC
   Dmitry Ganyushin       : Spin-Orbit,Spin-Spin,Magnetic field MRCI
   Miquel Garcia          : C-PCM and meta-GGA Hessian, CC/C-PCM, Gaussian charge scheme
   Yang Guo               : DLPNO-NEVPT2, F12-NEVPT2, CIM, IAO-localization
   Andreas Hansen         : Spin unrestricted coupled pair/coupled cluster methods
   Benjamin Helmich-Paris : MC-RPA, TRAH-SCF, COSX integrals
   Lee Huntington         : MR-EOM, pCC
   Robert Izsak           : Overlap fitted RIJCOSX, COSX-SCS-MP3, EOM
   Marcus Kettner         : VPT2
   Christian Kollmar      : KDIIS, OOCD, Brueckner-CCSD(T), CCSD density, CASPT2, CASPT2-K
   Simone Kossmann        : Meta GGA functionals, TD-DFT gradient, OOMP2, MP2 Hessian
   Martin Krupicka        : Initial AUTO-CI
   Lucas Lang             : DCDCAS
   Marvin Lechner         : AUTO-CI (C++ implementation), FIC-MRCC
   Dagmar Lenk            : GEPOL surface, SMD
   Dimitrios Liakos       : Extrapolation schemes; Compound Job, initial MDCI parallelization
   Dimitrios Manganas     : Further ROCIS development; embedding schemes
   Dimitrios Pantazis     : SARC Basis sets
   Anastasios Papadopoulos: AUTO-CI, single reference methods and gradients
   Taras Petrenko         : DFT Hessian,TD-DFT gradient, ASA, ECA, R-Raman, ABS, FL, XAS/XES, NRVS
   Peter Pinski           : DLPNO-MP2, DLPNO-MP2 Gradient
   Christoph Reimann      : Effective Core Potentials
   Marius Retegan         : Local ZFS, SOC
   Christoph Riplinger    : Optimizer, TS searches, QM/MM, DLPNO-CCSD(T), (RO)-DLPNO pert. Triples
   Tobias Risthaus        : Range-separated hybrids, TD-DFT gradient, RPA, STAB
   Michael Roemelt        : Original ROCIS implementation
   Masaaki Saitow         : Open-shell DLPNO-CCSD energy and density
   Barbara Sandhoefer     : DKH picture change effects
   Avijit Sen             : IP-ROCIS
   Kantharuban Sivalingam : CASSCF convergence, NEVPT2, FIC-MRCI
   Bernardo de Souza      : ESD, SOC TD-DFT
   Georgi Stoychev        : AutoAux, RI-MP2 NMR, DLPNO-MP2 response
   Willem Van den Heuvel  : Paramagnetic NMR
   Boris Wezisla          : Elementary symmetry handling
   Frank Wennmohs         : Technical directorship


 We gratefully acknowledge several colleagues who have allowed us to
 interface, adapt or use parts of their codes:
   Stefan Grimme, W. Hujo, H. Kruse, P. Pracht,  : VdW corrections, initial TS optimization,
                  C. Bannwarth, S. Ehlert          DFT functionals, gCP, sTDA/sTD-DF
   Ed Valeev, F. Pavosevic, A. Kumar             : LibInt (2-el integral package), F12 methods
   Garnet Chan, S. Sharma, J. Yang, R. Olivares  : DMRG
   Ulf Ekstrom                                   : XCFun DFT Library
   Mihaly Kallay                                 : mrcc  (arbitrary order and MRCC methods)
   Jiri Pittner, Ondrej Demel                    : Mk-CCSD
   Frank Weinhold                                : gennbo (NPA and NBO analysis)
   Christopher J. Cramer and Donald G. Truhlar   : smd solvation model
   Lars Goerigk                                  : TD-DFT with DH, B97 family of functionals
   V. Asgeirsson, H. Jonsson                     : NEB implementation
   FAccTs GmbH                                   : IRC, NEB, NEB-TS, DLPNO-Multilevel, CI-OPT
                                                   MM, QMMM, 2- and 3-layer-ONIOM, Crystal-QMMM,
                                                   LR-CPCM, SF, NACMEs, symmetry and pop. for TD-DFT,
                                                   nearIR, NL-DFT gradient (VV10), updates on ESD,
                                                   ML-optimized integration grids
   S Lehtola, MJT Oliveira, MAL Marques          : LibXC Library
   Liviu Ungur et al                             : ANISO software


 Your calculation uses the libint2 library for the computation of 2-el integrals
 For citations please refer to: http://libint.valeyev.net

 Your ORCA version has been built with support for libXC version: 5.1.0
 For citations please refer to: https://tddft.org/programs/libxc/

 This ORCA versions uses:
   CBLAS   interface :  Fast vector & matrix operations
   LAPACKE interface :  Fast linear algebra routines
   SCALAPACK package :  Parallel linear algebra routines
   Shared memory     :  Shared parallel matrices
   BLAS/LAPACK       :  OpenBLAS 0.3.15  USE64BITINT DYNAMIC_ARCH NO_AFFINITY SkylakeX SINGLE_THREADED
        Core in use  :  SkylakeX
   Copyright (c) 2011-2014, The OpenBLAS Project




***************************************
The coordinates will be read from file: 1+.xyz
***************************************


Your calculation utilizes the atom-pairwise dispersion correction
based on tight binding partial charges (D4)
Cite in your paper:
E.Caldeweyher, C.Bannwarth, S.Grimme, J.Chem.Phys., (2017), 147, 034112.
E.Caldeweyher, S.Ehlert, A.Hansen, H.Neugebauer, S.Grimme, J.Chem.Phys., (2018), in progress.
   

XCFun DFT library Copyright 2009-2010 Ulf Ekstrom and contributors.
See http://admol.org/xcfun for more information.
This is free software; see the source code for copying conditions.
There is ABSOLUTELY NO WARRANTY; not even for MERCHANTABILITY or FITNESS FOR A PARTICULAR PURPOSE.
For details see the documentation.
Scientific users of this library should cite U. Ekstrom, L. Visscher, R. Bast, A. J. Thorvaldsen and K. Ruud;
J.Chem.Theor.Comp. 2010, DOI: 10.1021/ct100117s
XCFun Version 0.99 

================================================================================

----- Orbital basis set information -----
Your calculation utilizes the basis: def2-SVP
   F. Weigend and R. Ahlrichs, Phys. Chem. Chem. Phys. 7, 3297 (2005).

----- AuxJ basis set information -----
Your calculation utilizes the auxiliary basis: def2/J
   F. Weigend, Phys. Chem. Chem. Phys. 8, 1057 (2006).

================================================================================
                                        WARNINGS
                       Please study these warnings very carefully!
================================================================================


INFO   : the flag for use of the SHARK integral package has been found!

================================================================================
                                       INPUT FILE
================================================================================
NAME = 1+.inp
|  1> # ORCA 5.0.4 - 1+.inp # write input file
|  2> # Basic Mode
|  3> #
|  4> ! Freq wB97X Def2-SVP D4 SlowConv TightSCF DEFGRID2 Def2/J RIJCOSX 
|  5> 
|  6> 
|  7> 
|  8> %maxcore 4500
|  9> 
| 10> %geom
| 11> Maxiter 150
| 12> END
| 13> 
| 14> * xyzfile 1 1 1+.xyz
| 15> 
| 16>                          ****END OF INPUT****
================================================================================

                       ****************************
                       * Single Point Calculation *
                       ****************************

---------------------------------
CARTESIAN COORDINATES (ANGSTROEM)
---------------------------------
  C      0.988145   -0.091134   -1.358138
  C     -0.163014   -0.808566   -1.468096
  N      1.051977    0.369511   -0.061240
  N     -0.779028   -0.771422   -0.236328
  C     -0.025334   -0.054895    0.593233
  H      1.764281    0.133460   -2.087116
  H     -0.599175   -1.336898   -2.313516
  C      2.124645    1.182890    0.499685
  C     -2.044727   -1.414688    0.098124
  H      3.065333    0.618716    0.470150
  H      1.873143    1.428335    1.537826
  H      2.222477    2.106490   -0.084545
  H     -0.254651    0.151644    1.638829
  H     -1.939948   -2.502144   -0.004823
  H     -2.826968   -1.048353   -0.578350
  H     -2.304128   -1.164007    1.133335

----------------------------
CARTESIAN COORDINATES (A.U.)
----------------------------
  NO LB      ZA    FRAG     MASS         X           Y           Z
   0 C     6.0000    0    12.011    1.867323   -0.172218   -2.566509
   1 C     6.0000    0    12.011   -0.308052   -1.527968   -2.774299
   2 N     7.0000    0    14.007    1.987948    0.698275   -0.115727
   3 N     7.0000    0    14.007   -1.472150   -1.457776   -0.446595
   4 C     6.0000    0    12.011   -0.047874   -0.103737    1.121048
   5 H     1.0000    0     1.008    3.334008    0.252203   -3.944078
   6 H     1.0000    0     1.008   -1.132277   -2.526371   -4.371912
   7 C     6.0000    0    12.011    4.014997    2.235338    0.944268
   8 C     6.0000    0    12.011   -3.863974   -2.673373    0.185427
   9 H     1.0000    0     1.008    5.792640    1.169204    0.888455
  10 H     1.0000    0     1.008    3.539727    2.699162    2.906070
  11 H     1.0000    0     1.008    4.199873    3.980689   -0.159767
  12 H     1.0000    0     1.008   -0.481221    0.286566    3.096938
  13 H     1.0000    0     1.008   -3.665970   -4.728367   -0.009114
  14 H     1.0000    0     1.008   -5.342195   -1.981100   -1.092923
  15 H     1.0000    0     1.008   -4.354171   -2.199654    2.141693

--------------------------------
INTERNAL COORDINATES (ANGSTROEM)
--------------------------------
 C      0   0   0     0.000000000000     0.00000000     0.00000000
 C      1   0   0     1.360869751177     0.00000000     0.00000000
 N      1   2   0     1.377756423557   106.94840291     0.00000000
 N      2   1   3     1.377717435019   106.96399152     0.00000000
 C      3   1   2     1.330058025533   108.60084626     0.00000000
 H      1   2   3     1.088227218836   131.14620082   180.15871241
 H      2   1   3     1.088166391939   131.13172351   179.67805544
 C      3   1   2     1.458368571895   125.63388228   179.81510163
 C      4   2   1     1.458644317735   125.52737742   180.12025421
 H      8   3   1     1.097296009218   109.47771618   297.32926071
 H      8   3   1     1.096007864894   108.68934396   177.50145646
 H      8   3   1     1.097238694690   109.28432805    57.86605620
 H      5   3   1     1.090190643982   125.58132125   180.07406840
 H      9   4   2     1.097331889442   109.43078998    63.15331392
 H      9   4   2     1.097141461700   109.27146061   302.71956288
 H      9   4   2     1.096262585826   108.72341343   183.00627841

---------------------------
INTERNAL COORDINATES (A.U.)
---------------------------
 C      0   0   0     0.000000000000     0.00000000     0.00000000
 C      1   0   0     2.571671133662     0.00000000     0.00000000
 N      1   2   0     2.603582319774   106.94840291     0.00000000
 N      2   1   3     2.603508642115   106.96399152     0.00000000
 C      3   1   2     2.513445410482   108.60084626     0.00000000
 H      1   2   3     2.056451415079   131.14620082   180.15871241
 H      2   1   3     2.056336468901   131.13172351   179.67805544
 C      3   1   2     2.755917203199   125.63388228   179.81510163
 C      4   2   1     2.756438287320   125.52737742   180.12025421
 H      8   3   1     2.073588945266   109.47771618   297.32926071
 H      8   3   1     2.071154705274   108.68934396   177.50145646
 H      8   3   1     2.073480636504   109.28432805    57.86605620
 H      5   3   1     2.060161750889   125.58132125   180.07406840
 H      9   4   2     2.073656749063   109.43078998    63.15331392
 H      9   4   2     2.073296892784   109.27146061   302.71956288
 H      9   4   2     2.071636058076   108.72341343   183.00627841

---------------------
BASIS SET INFORMATION
---------------------
There are 3 groups of distinct atoms

 Group   1 Type C   : 7s4p1d contracted to 3s2p1d pattern {511/31/1}
 Group   2 Type N   : 7s4p1d contracted to 3s2p1d pattern {511/31/1}
 Group   3 Type H   : 4s1p contracted to 2s1p pattern {31/1}

Atom   0C    basis set group =>   1
Atom   1C    basis set group =>   1
Atom   2N    basis set group =>   2
Atom   3N    basis set group =>   2
Atom   4C    basis set group =>   1
Atom   5H    basis set group =>   3
Atom   6H    basis set group =>   3
Atom   7C    basis set group =>   1
Atom   8C    basis set group =>   1
Atom   9H    basis set group =>   3
Atom  10H    basis set group =>   3
Atom  11H    basis set group =>   3
Atom  12H    basis set group =>   3
Atom  13H    basis set group =>   3
Atom  14H    basis set group =>   3
Atom  15H    basis set group =>   3
---------------------------------
AUXILIARY/J BASIS SET INFORMATION
---------------------------------
There are 3 groups of distinct atoms

 Group   1 Type C   : 12s5p4d2f1g contracted to 6s4p3d1f1g pattern {711111/2111/211/2/1}
 Group   2 Type N   : 12s5p4d2f1g contracted to 6s4p3d1f1g pattern {711111/2111/211/2/1}
 Group   3 Type H   : 5s2p1d contracted to 3s1p1d pattern {311/2/1}

Atom   0C    basis set group =>   1
Atom   1C    basis set group =>   1
Atom   2N    basis set group =>   2
Atom   3N    basis set group =>   2
Atom   4C    basis set group =>   1
Atom   5H    basis set group =>   3
Atom   6H    basis set group =>   3
Atom   7C    basis set group =>   1
Atom   8C    basis set group =>   1
Atom   9H    basis set group =>   3
Atom  10H    basis set group =>   3
Atom  11H    basis set group =>   3
Atom  12H    basis set group =>   3
Atom  13H    basis set group =>   3
Atom  14H    basis set group =>   3
Atom  15H    basis set group =>   3
------------------------------------------------------------------------------
                           ORCA GTO INTEGRAL CALCULATION
                           -- RI-GTO INTEGRALS CHOSEN --
------------------------------------------------------------------------------
------------------------------------------------------------------------------
                   ___                                                        
                  /   \      - P O W E R E D   B Y -                         
                 /     \                                                     
                 |  |  |   _    _      __       _____    __    __             
                 |  |  |  | |  | |    /  \     |  _  \  |  |  /  |          
                  \  \/   | |  | |   /    \    | | | |  |  | /  /          
                 / \  \   | |__| |  /  /\  \   | |_| |  |  |/  /          
                |  |  |   |  __  | /  /__\  \  |    /   |      \           
                |  |  |   | |  | | |   __   |  |    \   |  |\   \          
                \     /   | |  | | |  |  |  |  | |\  \  |  | \   \       
                 \___/    |_|  |_| |__|  |__|  |_| \__\ |__|  \__/        
                                                                              
                      - O R C A' S   B I G   F R I E N D -                    
                                      &                                       
                       - I N T E G R A L  F E E D E R -                       
                                                                              
 v1 FN, 2020, v2 2021                                                         
------------------------------------------------------------------------------


Reading SHARK input file 1+.SHARKINP.tmp ... ok
----------------------
SHARK INTEGRAL PACKAGE
----------------------

Number of atoms                             ...     16
Number of basis functions                   ...    143
Number of shells                            ...     69
Maximum angular momentum                    ...      2
Integral batch strategy                     ... SHARK/LIBINT Hybrid
RI-J (if used) integral strategy            ... SPLIT-RIJ (Revised 2003 algorithm where possible)
Printlevel                                  ...      1
Contraction scheme used                     ... SEGMENTED contraction
Coulomb Range Separation                    ... NOT USED
Exchange Range Separation                   ... Long Range
   Mu parameter                             ...  0.300000
   Scaling (regular/separated)              ...  0.157706  0.842294
Finite Nucleus Model                        ... NOT USED
Auxiliary Coulomb fitting basis             ... AVAILABLE
   # of basis functions in Aux-J            ...    442
   # of shells in Aux-J                     ...    150
   Maximum angular momentum in Aux-J        ...      4
Auxiliary J/K fitting basis                 ... NOT available
Auxiliary Correlation fitting basis         ... NOT available
Auxiliary 'external' fitting basis          ... NOT available
Integral threshold                          ...     2.500000e-11
Primitive cut-off                           ...     2.500000e-12
Primitive pair pre-selection threshold      ...     2.500000e-12

Calculating pre-screening integrals         ... done (  0.0 sec) Dimension = 69
Organizing shell pair data                  ... done (  0.0 sec)
Shell pair information
Total number of shell pairs                 ...      2415
Shell pairs after pre-screening             ...      2295
Total number of primitive shell pairs       ...      8503
Primitive shell pairs kept                  ...      6128
          la=0 lb=0:    748 shell pairs
          la=1 lb=0:    849 shell pairs
          la=1 lb=1:    257 shell pairs
          la=2 lb=0:    259 shell pairs
          la=2 lb=1:    155 shell pairs
          la=2 lb=2:     27 shell pairs

Calculating one electron integrals          ... done (  0.0 sec)
Calculating RI/J V-Matrix + Cholesky decomp.... done (  0.0 sec)
Calculating Nuclear repulsion               ... done (  0.0 sec) ENN=    307.588889172790 Eh

SHARK setup successfully completed in   0.2 seconds

Maximum memory used throughout the entire GTOINT-calculation: 17.9 MB
-------------------------------------------------------------------------------
                                 ORCA SCF
-------------------------------------------------------------------------------

------------
SCF SETTINGS
------------
Hamiltonian:
 Density Functional     Method          .... DFT(GTOs)
 Exchange Functional    Exchange        .... WB97X
 Correlation Functional Correlation     .... WB97X
 Gradients option       PostSCFGGA      .... off
 Hybrid DFT is turned on
   Fraction HF Exchange ScalHFX         ....  0.157706
   Scaling of DF-GGA-X  ScalDFX         ....  0.000000
   Scaling of DF-GGA-C  ScalDFC         ....  1.000000
   Scaling of DF-LDA-C  ScalLDAC        ....  1.000000
   Perturbative correction              ....  0.000000
   Density functional embedding theory  .... OFF
 Long-range corrected/Screened/Range-Separated Hybrid DFT is turned on
   Amount of maximum screened exact exchange              ....  0.842294
   Range separation parameter mu (erf(mu*r12)/r12)        ....  0.300000
 RI-approximation to the Coulomb term is turned on
   Number of AuxJ basis functions       .... 442
   RIJ-COSX (HFX calculated with COS-X)).... on


General Settings:
 Integral files         IntName         .... 1+
 Hartree-Fock type      HFTyp           .... RHF
 Total Charge           Charge          ....    1
 Multiplicity           Mult            ....    1
 Number of Electrons    NEL             ....   52
 Basis Dimension        Dim             ....  143
 Nuclear Repulsion      ENuc            ....    307.5888891728 Eh

Convergence Acceleration:
 DIIS                   CNVDIIS         .... on
   Start iteration      DIISMaxIt       ....     0
   Startup error        DIISStart       ....  0.200000
   # of expansion vecs  DIISMaxEq       ....     5
   Bias factor          DIISBfac        ....   1.050
   Max. coefficient     DIISMaxC        ....  10.000
 Trust-Rad. Augm. Hess. CNVTRAH         .... auto
   Auto Start mean grad. ratio tolernc. ....  1.125000
   Auto Start start iteration           ....    20
   Auto Start num. interpolation iter.  ....    10
   Max. Number of Micro iterations      ....    16
   Max. Number of Macro iterations      .... Maxiter - #DIIS iter
   Number of Davidson start vectors     ....     2
   Converg. threshold I  (grad. norm)   ....   1.000e-05
   Converg. threshold II (energy diff.) ....   1.000e-08
   Grad. Scal. Fac. for Micro threshold ....   0.100
   Minimum threshold for Micro iter.    ....   0.010
   NR start threshold (gradient norm)   ....   0.001
   Initial trust radius                 ....   0.400
   Minimum AH scaling param. (alpha)    ....   1.000
   Maximum AH scaling param. (alpha)    .... 1000.000
   Orbital update algorithm             .... Taylor
   White noise on init. David. guess    .... on
   Maximum white noise                  ....   0.010
   Quad. conv. algorithm                .... NR
 SOSCF                  CNVSOSCF        .... on
   Start iteration      SOSCFMaxIt      ....   150
   Startup grad/error   SOSCFStart      ....  0.001000
 Level Shifting         CNVShift        .... on
   Level shift para.    LevelShift      ....    0.2500
   Turn off err/grad.   ShiftErr        ....    0.0000
 Zerner damping         CNVZerner       .... off
 Static damping         CNVDamp         .... on
   Fraction old density DampFac         ....    0.8500
   Max. Damping (<1)    DampMax         ....    0.9800
   Min. Damping (>=0)   DampMin         ....    0.0000
   Turn off err/grad.   DampErr         ....    0.0300
 Fernandez-Rico         CNVRico         .... off

SCF Procedure:
 Maximum # iterations   MaxIter         ....   125
 SCF integral mode      SCFMode         .... Direct
   Integral package                     .... SHARK and LIBINT hybrid scheme
 Reset frequency        DirectResetFreq ....    20
 Integral Threshold     Thresh          ....  2.500e-11 Eh
 Primitive CutOff       TCut            ....  2.500e-12 Eh

Convergence Tolerance:
 Convergence Check Mode ConvCheckMode   .... Total+1el-Energy
 Convergence forced     ConvForced      .... 0
 Energy Change          TolE            ....  1.000e-08 Eh
 1-El. energy change                    ....  1.000e-05 Eh
 Orbital Gradient       TolG            ....  1.000e-05
 Orbital Rotation angle TolX            ....  1.000e-05
 DIIS Error             TolErr          ....  5.000e-07


Diagonalization of the overlap matrix:
Smallest eigenvalue                        ... 1.561e-03
Time for diagonalization                   ...    0.004 sec
Threshold for overlap eigenvalues          ... 1.000e-08
Number of eigenvalues below threshold      ... 0
Time for construction of square roots      ...    0.002 sec
Total time needed                          ...    0.006 sec

Time for model grid setup =    0.204 sec

------------------------------
INITIAL GUESS: MODEL POTENTIAL
------------------------------
Loading Hartree-Fock densities                     ... done
Calculating cut-offs                               ... done
Initializing the effective Hamiltonian             ... done
Setting up the integral package (SHARK)            ... done
Starting the Coulomb interaction                   ... done (   0.1 sec)
Reading the grid                                   ... done
Mapping shells                                     ... done
Starting the XC term evaluation                    ... done (   0.2 sec)
  promolecular density results
     # of electrons  =     52.995679089
     EX              =    -41.374233703
     EC              =     -1.757906542
     EX+EC           =    -43.132140245
Transforming the Hamiltonian                       ... done (   0.0 sec)
Diagonalizing the Hamiltonian                      ... done (   0.0 sec)
Back transforming the eigenvectors                 ... done (   0.0 sec)
Now organizing SCF variables                       ... done
                      ------------------
                      INITIAL GUESS DONE (   0.6 sec)
                      ------------------
-------------------
DFT GRID GENERATION
-------------------

General Integration Accuracy     IntAcc      ... 4.388
Radial Grid Type                 RadialGrid  ... OptM3 with GC (2021)
Angular Grid (max. ang.)         AngularGrid ... 4 (Lebedev-302)
Angular grid pruning method      GridPruning ... 4 (adaptive)
Weight generation scheme         WeightScheme... Becke
Basis function cutoff            BFCut       ... 1.0000e-11
Integration weight cutoff        WCut        ... 1.0000e-14
Angular grids for H and He will be reduced by one unit
Partially contracted basis set               ... off
Rotationally invariant grid construction     ... off

Total number of grid points                  ...    71242
Total number of batches                      ...     1120
Average number of points per batch           ...       63
Average number of grid points per atom       ...     4453
Time for grid setup =    0.841 sec

--------------------
COSX GRID GENERATION
--------------------

GRIDX 1
-------
General Integration Accuracy     IntAcc      ... 3.816
Radial Grid Type                 RadialGrid  ... OptM3 with GC (2021)
Angular Grid (max. ang.)         AngularGrid ... 1 (Lebedev-50)
Angular grid pruning method      GridPruning ... 4 (adaptive)
Weight generation scheme         WeightScheme... Becke
Basis function cutoff            BFCut       ... 1.0000e-11
Integration weight cutoff        WCut        ... 1.0000e-14
Angular grids for H and He will be reduced by one unit
Partially contracted basis set               ... on
Rotationally invariant grid construction     ... off

Total number of grid points                  ...     9138
Total number of batches                      ...      149
Average number of points per batch           ...       61
Average number of grid points per atom       ...      571
UseSFitting                                  ... on

GRIDX 2
-------
General Integration Accuracy     IntAcc      ... 4.020
Radial Grid Type                 RadialGrid  ... OptM3 with GC (2021)
Angular Grid (max. ang.)         AngularGrid ... 2 (Lebedev-110)
Angular grid pruning method      GridPruning ... 4 (adaptive)
Weight generation scheme         WeightScheme... Becke
Basis function cutoff            BFCut       ... 1.0000e-11
Integration weight cutoff        WCut        ... 1.0000e-14
Angular grids for H and He will be reduced by one unit
Partially contracted basis set               ... on
Rotationally invariant grid construction     ... off

Total number of grid points                  ...    19509
Total number of batches                      ...      313
Average number of points per batch           ...       62
Average number of grid points per atom       ...     1219
UseSFitting                                  ... on

GRIDX 3
-------
General Integration Accuracy     IntAcc      ... 4.338
Radial Grid Type                 RadialGrid  ... OptM3 with GC (2021)
Angular Grid (max. ang.)         AngularGrid ... 3 (Lebedev-194)
Angular grid pruning method      GridPruning ... 4 (adaptive)
Weight generation scheme         WeightScheme... Becke
Basis function cutoff            BFCut       ... 1.0000e-11
Integration weight cutoff        WCut        ... 1.0000e-14
Angular grids for H and He will be reduced by one unit
Partially contracted basis set               ... on
Rotationally invariant grid construction     ... off

Total number of grid points                  ...    42811
Total number of batches                      ...      678
Average number of points per batch           ...       63
Average number of grid points per atom       ...     2676
UseSFitting                                  ... on

Time for X-Grid setup             =    0.996 sec

--------------
SCF ITERATIONS
--------------
ITER       Energy         Delta-E        Max-DP      RMS-DP      [F,P]     Damp
               ***  Starting incremental Fock matrix formation  ***
  0   -304.8592157871   0.000000000000 0.02214436  0.00064103  0.0975038 0.8500
  1   -304.8732510210  -0.014035233883 0.02026352  0.00060278  0.0793292 0.8500
                               ***Turning on DIIS***
  2   -304.8841125551  -0.010861534159 0.01614988  0.00049583  0.0617640 0.8500
  3   -304.8923398675  -0.008227312345 0.01073836  0.00036775  0.0475776 0.8500
  4   -304.8987793000  -0.006439432568 0.00753086  0.00028952  0.0381807 0.8500
  5   -304.9039038297  -0.005124529713 0.00586320  0.00024060  0.0316993 0.8500
  6   -304.9080958417  -0.004192011920 0.03216672  0.00136046  0.0267329 0.0000
                      *** Initiating the SOSCF procedure ***
                           *** Shutting down DIIS ***
                      *** Re-Reading the Fockian *** 
                      *** Removing any level shift *** 
ITER      Energy       Delta-E        Grad      Rot      Max-DP    RMS-DP
  7   -304.93029746  -0.0222016215  0.000597  0.000597  0.001078  0.000043
               *** Restarting incremental Fock matrix formation ***
  8   -304.93029894  -0.0000014772  0.000253  0.000440  0.001002  0.000027
  9   -304.93030066  -0.0000017163  0.000227  0.000389  0.000371  0.000012
 10   -304.93030122  -0.0000005657  0.000025  0.000032  0.000039  0.000003
 11   -304.93030124  -0.0000000170  0.000004  0.000010  0.000017  0.000001
 12   -304.93030124  -0.0000000052  0.000004  0.000008  0.000005  0.000000
                  ***Gradient check signals convergence***
              ***Rediagonalizing the Fockian in SOSCF/NRSCF***

               *****************************************************
               *                     SUCCESS                       *
               *           SCF CONVERGED AFTER  13 CYCLES          *
               *****************************************************

Old exchange energy                            =    -13.489445977 Eh
New exchange energy                            =    -13.489445350 Eh
Exchange energy change after final integration =      0.000000627 Eh
Total energy after final integration           =   -304.930300614 Eh
Final COS-X integration done in                =    17.711 sec

----------------
TOTAL SCF ENERGY
----------------

Total Energy       :         -304.93030061 Eh           -8297.57532 eV

Components:
Nuclear Repulsion  :          307.58888917 Eh            8369.91919 eV
Electronic Energy  :         -612.51918979 Eh          -16667.49451 eV
One Electron Energy:        -1008.84519035 Eh          -27452.07327 eV
Two Electron Energy:          396.32600057 Eh           10784.57875 eV
Max COSX asymmetry :            0.00000139 Eh               0.00004 eV

Virial components:
Potential Energy   :         -606.37635688 Eh          -16500.33953 eV
Kinetic Energy     :          301.44605627 Eh            8202.76421 eV
Virial Ratio       :            2.01155843


DFT components:
N(Alpha)           :       26.000021308324 electrons
N(Beta)            :       26.000021308324 electrons
N(Total)           :       52.000042616648 electrons
E(XC)              :      -30.435877158229 Eh       
DFET-embed. en.    :        0.000000000000 Eh       

---------------
SCF CONVERGENCE
---------------

  Last Energy change         ...    4.3570e-09  Tolerance :   1.0000e-08
  Last MAX-Density change    ...    3.0154e-15  Tolerance :   1.0000e-07
  Last RMS-Density change    ...    5.0559e-17  Tolerance :   5.0000e-09
  Last Orbital Gradient      ...    8.3869e-07  Tolerance :   1.0000e-05
  Last Orbital Rotation      ...    2.5712e-06  Tolerance :   1.0000e-05

             **** THE GBW FILE WAS UPDATED (1+.gbw) ****
             **** DENSITY 1+.scfp WAS UPDATED ****
             **** ENERGY FILE WAS UPDATED (1+.en.tmp) ****
             **** THE GBW FILE WAS UPDATED (1+.gbw) ****
             **** DENSITY 1+.scfp WAS UPDATED ****
----------------
ORBITAL ENERGIES
----------------

  NO   OCC          E(Eh)            E(eV) 
   0   2.0000     -14.676605      -399.3707 
   1   2.0000     -14.676575      -399.3699 
   2   2.0000     -10.548827      -287.0482 
   3   2.0000     -10.495129      -285.5870 
   4   2.0000     -10.494549      -285.5712 
   5   2.0000     -10.486177      -285.3434 
   6   2.0000     -10.486132      -285.3421 
   7   2.0000      -1.379705       -37.5437 
   8   2.0000      -1.256133       -34.1811 
   9   2.0000      -1.099391       -29.9160 
  10   2.0000      -1.062855       -28.9217 
  11   2.0000      -0.996855       -27.1258 
  12   2.0000      -0.934643       -25.4329 
  13   2.0000      -0.901512       -24.5314 
  14   2.0000      -0.843575       -22.9548 
  15   2.0000      -0.802094       -21.8261 
  16   2.0000      -0.760203       -20.6862 
  17   2.0000      -0.755510       -20.5585 
  18   2.0000      -0.741561       -20.1789 
  19   2.0000      -0.738721       -20.1016 
  20   2.0000      -0.729097       -19.8397 
  21   2.0000      -0.683126       -18.5888 
  22   2.0000      -0.678952       -18.4752 
  23   2.0000      -0.675015       -18.3681 
  24   2.0000      -0.578435       -15.7400 
  25   2.0000      -0.536908       -14.6100 
  26   0.0000      -0.099949        -2.7197 
  27   0.0000      -0.066529        -1.8103 
  28   0.0000      -0.008040        -0.2188 
  29   0.0000       0.004782         0.1301 
  30   0.0000       0.020757         0.5648 
  31   0.0000       0.032494         0.8842 
  32   0.0000       0.051249         1.3945 
  33   0.0000       0.068102         1.8532 
  34   0.0000       0.070790         1.9263 
  35   0.0000       0.082546         2.2462 
  36   0.0000       0.093943         2.5563 
  37   0.0000       0.094106         2.5607 
  38   0.0000       0.097002         2.6396 
  39   0.0000       0.135870         3.6972 
  40   0.0000       0.159711         4.3460 
  41   0.0000       0.161850         4.4042 
  42   0.0000       0.226269         6.1571 
  43   0.0000       0.280883         7.6432 
  44   0.0000       0.293937         7.9984 
  45   0.0000       0.300013         8.1638 
  46   0.0000       0.310491         8.4489 
  47   0.0000       0.344041         9.3618 
  48   0.0000       0.375305        10.2126 
  49   0.0000       0.380838        10.3631 
  50   0.0000       0.422156        11.4875 
  51   0.0000       0.428205        11.6520 
  52   0.0000       0.437547        11.9063 
  53   0.0000       0.495475        13.4826 
  54   0.0000       0.510727        13.8976 
  55   0.0000       0.517638        14.0857 
  56   0.0000       0.526756        14.3338 
  57   0.0000       0.544846        14.8260 
  58   0.0000       0.561454        15.2779 
  59   0.0000       0.583766        15.8851 
  60   0.0000       0.596752        16.2384 
  61   0.0000       0.600715        16.3463 
  62   0.0000       0.605870        16.4866 
  63   0.0000       0.607761        16.5380 
  64   0.0000       0.615128        16.7385 
  65   0.0000       0.622461        16.9380 
  66   0.0000       0.638111        17.3639 
  67   0.0000       0.655425        17.8350 
  68   0.0000       0.706727        19.2310 
  69   0.0000       0.728462        19.8224 
  70   0.0000       0.757140        20.6028 
  71   0.0000       0.794188        21.6110 
  72   0.0000       0.830656        22.6033 
  73   0.0000       0.834607        22.7108 
  74   0.0000       0.893285        24.3075 
  75   0.0000       1.022801        27.8318 
  76   0.0000       1.037387        28.2287 
  77   0.0000       1.053616        28.6704 
  78   0.0000       1.085469        29.5371 
  79   0.0000       1.136232        30.9185 
  80   0.0000       1.141890        31.0724 
  81   0.0000       1.152875        31.3713 
  82   0.0000       1.162253        31.6265 
  83   0.0000       1.229220        33.4488 
  84   0.0000       1.267152        34.4809 
  85   0.0000       1.334384        36.3104 
  86   0.0000       1.388980        37.7961 
  87   0.0000       1.454641        39.5828 
  88   0.0000       1.455623        39.6095 
  89   0.0000       1.464428        39.8491 
  90   0.0000       1.496667        40.7264 
  91   0.0000       1.518602        41.3233 
  92   0.0000       1.558772        42.4163 
  93   0.0000       1.650389        44.9094 
  94   0.0000       1.659030        45.1445 
  95   0.0000       1.673658        45.5426 
  96   0.0000       1.680285        45.7229 
  97   0.0000       1.698644        46.2225 
  98   0.0000       1.702355        46.3234 
  99   0.0000       1.729527        47.0628 
 100   0.0000       1.738485        47.3066 
 101   0.0000       1.742731        47.4221 
 102   0.0000       1.757155        47.8146 
 103   0.0000       1.803654        49.0799 
 104   0.0000       1.819789        49.5190 
 105   0.0000       1.845776        50.2261 
 106   0.0000       1.894966        51.5647 
 107   0.0000       1.901339        51.7381 
 108   0.0000       1.940828        52.8126 
 109   0.0000       1.960505        53.3481 
 110   0.0000       1.995420        54.2981 
 111   0.0000       2.006391        54.5967 
 112   0.0000       2.010420        54.7063 
 113   0.0000       2.078436        56.5571 
 114   0.0000       2.123566        57.7852 
 115   0.0000       2.215157        60.2775 
 116   0.0000       2.217561        60.3429 
 117   0.0000       2.245417        61.1009 
 118   0.0000       2.263785        61.6007 
 119   0.0000       2.324712        63.2586 
 120   0.0000       2.360515        64.2329 
 121   0.0000       2.363523        64.3147 
 122   0.0000       2.375385        64.6375 
 123   0.0000       2.402885        65.3858 
 124   0.0000       2.486090        67.6500 
 125   0.0000       2.501346        68.0651 
 126   0.0000       2.599283        70.7301 
 127   0.0000       2.651964        72.1636 
 128   0.0000       2.675396        72.8012 
 129   0.0000       2.695925        73.3599 
 130   0.0000       2.705647        73.6244 
 131   0.0000       2.716238        73.9126 
 132   0.0000       2.732481        74.3546 
 133   0.0000       2.765667        75.2576 
 134   0.0000       2.853392        77.6447 
 135   0.0000       2.858989        77.7970 
 136   0.0000       2.862868        77.9026 
 137   0.0000       2.862971        77.9054 
 138   0.0000       2.907288        79.1113 
 139   0.0000       3.069874        83.5355 
 140   0.0000       3.284198        89.3676 
 141   0.0000       3.401757        92.5665 
 142   0.0000       3.424613        93.1885 

                    ********************************
                    * MULLIKEN POPULATION ANALYSIS *
                    ********************************

-----------------------
MULLIKEN ATOMIC CHARGES
-----------------------
   0 C :    0.078528
   1 C :    0.078646
   2 N :   -0.222706
   3 N :   -0.223120
   4 C :    0.206679
   5 H :    0.107021
   6 H :    0.106968
   7 C :    0.060349
   8 C :    0.060469
   9 H :    0.110795
  10 H :    0.090855
  11 H :    0.109322
  12 H :    0.125160
  13 H :    0.110789
  14 H :    0.109106
  15 H :    0.091137
Sum of atomic charges:    1.0000000

--------------------------------
MULLIKEN REDUCED ORBITAL CHARGES
--------------------------------
  0 C s       :     3.137609  s :     3.137609
      pz      :     0.798172  p :     2.736672
      px      :     0.963015
      py      :     0.975485
      dz2     :     0.014590  d :     0.047191
      dxz     :     0.009919
      dyz     :     0.009504
      dx2y2   :     0.007676
      dxy     :     0.005502
  1 C s       :     3.137374  s :     3.137374
      pz      :     0.817755  p :     2.736789
      px      :     0.918306
      py      :     1.000728
      dz2     :     0.012735  d :     0.047191
      dxz     :     0.012685
      dyz     :     0.008105
      dx2y2   :     0.006911
      dxy     :     0.006754
  2 N s       :     3.405194  s :     3.405194
      pz      :     1.179394  p :     3.783837
      px      :     1.227063
      py      :     1.377381
      dz2     :     0.007141  d :     0.033675
      dxz     :     0.007980
      dyz     :     0.007492
      dx2y2   :     0.005922
      dxy     :     0.005140
  3 N s       :     3.405451  s :     3.405451
      pz      :     1.169899  p :     3.784014
      px      :     1.249921
      py      :     1.364193
      dz2     :     0.006460  d :     0.033656
      dxz     :     0.009905
      dyz     :     0.006520
      dx2y2   :     0.005932
      dxy     :     0.004838
  4 C s       :     3.081497  s :     3.081497
      pz      :     0.916236  p :     2.644185
      px      :     0.827680
      py      :     0.900268
      dz2     :     0.012226  d :     0.067639
      dxz     :     0.017822
      dyz     :     0.010696
      dx2y2   :     0.015715
      dxy     :     0.011180
  5 H s       :     0.868679  s :     0.868679
      pz      :     0.009405  p :     0.024300
      px      :     0.010469
      py      :     0.004426
  6 H s       :     0.868726  s :     0.868726
      pz      :     0.011850  p :     0.024305
      px      :     0.004985
      py      :     0.007470
  7 C s       :     3.038698  s :     3.038698
      pz      :     1.020957  p :     2.864630
      px      :     0.878813
      py      :     0.964860
      dz2     :     0.006449  d :     0.036323
      dxz     :     0.005799
      dyz     :     0.006069
      dx2y2   :     0.006874
      dxy     :     0.011132
  8 C s       :     3.038675  s :     3.038675
      pz      :     1.058826  p :     2.864549
      px      :     0.793966
      py      :     1.011757
      dz2     :     0.007474  d :     0.036307
      dxz     :     0.006359
      dyz     :     0.003073
      dx2y2   :     0.010424
      dxy     :     0.008977
  9 H s       :     0.865757  s :     0.865757
      pz      :     0.004280  p :     0.023448
      px      :     0.012623
      py      :     0.006545
 10 H s       :     0.885575  s :     0.885575
      pz      :     0.015026  p :     0.023570
      px      :     0.003643
      py      :     0.004901
 11 H s       :     0.867212  s :     0.867212
      pz      :     0.007126  p :     0.023466
      px      :     0.003444
      py      :     0.012895
 12 H s       :     0.851023  s :     0.851023
      pz      :     0.017068  p :     0.023818
      px      :     0.002756
      py      :     0.003993
 13 H s       :     0.865763  s :     0.865763
      pz      :     0.004569  p :     0.023448
      px      :     0.002745
      py      :     0.016134
 14 H s       :     0.867421  s :     0.867421
      pz      :     0.008531  p :     0.023473
      px      :     0.009636
      py      :     0.005306
 15 H s       :     0.885307  s :     0.885307
      pz      :     0.014838  p :     0.023556
      px      :     0.004065
      py      :     0.004654


                     *******************************
                     * LOEWDIN POPULATION ANALYSIS *
                     *******************************

----------------------
LOEWDIN ATOMIC CHARGES
----------------------
   0 C :    0.030264
   1 C :    0.030330
   2 N :    0.092124
   3 N :    0.091991
   4 C :    0.112755
   5 H :    0.063199
   6 H :    0.063148
   7 C :    0.057008
   8 C :    0.057056
   9 H :    0.057989
  10 H :    0.053770
  11 H :    0.058020
  12 H :    0.062511
  13 H :    0.057985
  14 H :    0.057983
  15 H :    0.053866

-------------------------------
LOEWDIN REDUCED ORBITAL CHARGES
-------------------------------
  0 C s       :     2.857170  s :     2.857170
      pz      :     0.922237  p :     2.997337
      px      :     1.060625
      py      :     1.014474
      dz2     :     0.037243  d :     0.115229
      dxz     :     0.025308
      dyz     :     0.022210
      dx2y2   :     0.016583
      dxy     :     0.013885
  1 C s       :     2.857141  s :     2.857141
      pz      :     0.941293  p :     2.997284
      px      :     1.017380
      py      :     1.038612
      dz2     :     0.031977  d :     0.115245
      dxz     :     0.033328
      dyz     :     0.017881
      dx2y2   :     0.014661
      dxy     :     0.017397
  2 N s       :     3.048897  s :     3.048897
      pz      :     1.214256  p :     3.783175
      px      :     1.239070
      py      :     1.329849
      dz2     :     0.018031  d :     0.075804
      dxz     :     0.019733
      dyz     :     0.016213
      dx2y2   :     0.011060
      dxy     :     0.010767
  3 N s       :     3.049018  s :     3.049018
      pz      :     1.213584  p :     3.783237
      px      :     1.241362
      py      :     1.328291
      dz2     :     0.016346  d :     0.075754
      dxz     :     0.024137
      dyz     :     0.014613
      dx2y2   :     0.010414
      dxy     :     0.010244
  4 C s       :     2.838300  s :     2.838300
      pz      :     1.017104  p :     2.891848
      px      :     0.923545
      py      :     0.951199
      dz2     :     0.027829  d :     0.157097
      dxz     :     0.044857
      dyz     :     0.023795
      dx2y2   :     0.034187
      dxy     :     0.026429
  5 H s       :     0.864921  s :     0.864921
      pz      :     0.027775  p :     0.071880
      px      :     0.029948
      py      :     0.014156
  6 H s       :     0.864968  s :     0.864968
      pz      :     0.034164  p :     0.071884
      px      :     0.015557
      py      :     0.022163
  7 C s       :     2.833952  s :     2.833952
      pz      :     1.054368  p :     3.018327
      px      :     0.949942
      py      :     1.014016
      dz2     :     0.017255  d :     0.090713
      dxz     :     0.013210
      dyz     :     0.015428
      dx2y2   :     0.017520
      dxy     :     0.027300
  8 C s       :     2.834068  s :     2.834068
      pz      :     1.082048  p :     3.018215
      px      :     0.887594
      py      :     1.048573
      dz2     :     0.019381  d :     0.090660
      dxz     :     0.016838
      dyz     :     0.006439
      dx2y2   :     0.027027
      dxy     :     0.020975
  9 H s       :     0.875411  s :     0.875411
      pz      :     0.011921  p :     0.066600
      px      :     0.035972
      py      :     0.018707
 10 H s       :     0.879942  s :     0.879942
      pz      :     0.041774  p :     0.066288
      px      :     0.010902
      py      :     0.013611
 11 H s       :     0.875401  s :     0.875401
      pz      :     0.020203  p :     0.066579
      px      :     0.010298
      py      :     0.036078
 12 H s       :     0.864885  s :     0.864885
      pz      :     0.048681  p :     0.072604
      px      :     0.010493
      py      :     0.013430
 13 H s       :     0.875416  s :     0.875416
      pz      :     0.012609  p :     0.066599
      px      :     0.008720
      py      :     0.045270
 14 H s       :     0.875422  s :     0.875422
      pz      :     0.024035  p :     0.066594
      px      :     0.027623
      py      :     0.014936
 15 H s       :     0.879879  s :     0.879879
      pz      :     0.041391  p :     0.066255
      px      :     0.011696
      py      :     0.013167


                      *****************************
                      * MAYER POPULATION ANALYSIS *
                      *****************************

  NA   - Mulliken gross atomic population
  ZA   - Total nuclear charge
  QA   - Mulliken gross atomic charge
  VA   - Mayer's total valence
  BVA  - Mayer's bonded valence
  FA   - Mayer's free valence

  ATOM       NA         ZA         QA         VA         BVA        FA
  0 C      5.9215     6.0000     0.0785     3.8598     3.8598    -0.0000
  1 C      5.9214     6.0000     0.0786     3.8599     3.8599     0.0000
  2 N      7.2227     7.0000    -0.2227     3.5013     3.5013     0.0000
  3 N      7.2231     7.0000    -0.2231     3.5013     3.5013     0.0000
  4 C      5.7933     6.0000     0.2067     3.8662     3.8662    -0.0000
  5 H      0.8930     1.0000     0.1070     0.9944     0.9944     0.0000
  6 H      0.8930     1.0000     0.1070     0.9944     0.9944     0.0000
  7 C      5.9397     6.0000     0.0603     3.8413     3.8413    -0.0000
  8 C      5.9395     6.0000     0.0605     3.8413     3.8413    -0.0000
  9 H      0.8892     1.0000     0.1108     0.9881     0.9881    -0.0000
 10 H      0.9091     1.0000     0.0909     0.9971     0.9971    -0.0000
 11 H      0.8907     1.0000     0.1093     0.9888     0.9888     0.0000
 12 H      0.8748     1.0000     0.1252     0.9952     0.9952    -0.0000
 13 H      0.8892     1.0000     0.1108     0.9880     0.9880    -0.0000
 14 H      0.8909     1.0000     0.1091     0.9888     0.9888     0.0000
 15 H      0.9089     1.0000     0.0911     0.9970     0.9970    -0.0000

  Mayer bond orders larger than 0.100000
B(  0-C ,  1-C ) :   1.6155 B(  0-C ,  2-N ) :   1.1756 B(  0-C ,  5-H ) :   0.9826 
B(  1-C ,  3-N ) :   1.1758 B(  1-C ,  6-H ) :   0.9826 B(  2-N ,  4-C ) :   1.3593 
B(  2-N ,  7-C ) :   0.8874 B(  3-N ,  4-C ) :   1.3590 B(  3-N ,  8-C ) :   0.8874 
B(  4-C , 12-H ) :   0.9683 B(  7-C ,  9-H ) :   0.9722 B(  7-C , 10-H ) :   0.9724 
B(  7-C , 11-H ) :   0.9722 B(  8-C , 13-H ) :   0.9722 B(  8-C , 14-H ) :   0.9722 
B(  8-C , 15-H ) :   0.9724 

-------
TIMINGS
-------

Total SCF time: 0 days 0 hours 1 min 51 sec 

Total time                  ....     111.962 sec
Sum of individual times     ....     111.778 sec  ( 99.8%)

Fock matrix formation       ....     109.288 sec  ( 97.6%)
  Split-RI-J                ....       4.175 sec  (  3.8% of F)
  Chain of spheres X        ....      91.271 sec  ( 83.5% of F)
  XC integration            ....      13.717 sec  ( 12.6% of F)
    Basis function eval.    ....       5.077 sec  ( 37.0% of XC)
    Density eval.           ....       2.981 sec  ( 21.7% of XC)
    XC-Functional eval.     ....       2.317 sec  ( 16.9% of XC)
    XC-Potential eval.      ....       2.992 sec  ( 21.8% of XC)
Diagonalization             ....       0.033 sec  (  0.0%)
Density matrix formation    ....       0.005 sec  (  0.0%)
Population analysis         ....       0.006 sec  (  0.0%)
Initial guess               ....       0.378 sec  (  0.3%)
Orbital Transformation      ....       0.000 sec  (  0.0%)
Orbital Orthonormalization  ....       0.000 sec  (  0.0%)
DIIS solution               ....       0.010 sec  (  0.0%)
SOSCF solution              ....       0.017 sec  (  0.0%)
Grid generation             ....       2.041 sec  (  1.8%)

Maximum memory used throughout the entire SCF-calculation: 64.6 MB


-------------------------------------------------------------------------------
                          DFT DISPERSION CORRECTION                            
                                                                               
                                 DFTD4 V2.5                                    
-------------------------------------------------------------------------------
The WB97X functional is recognized
Active option DFTDOPT                   ...         5   

Starting D4
-------------------------   ----------------
Dispersion correction           -0.001653232
-------------------------   ----------------


-------------------------   --------------------
FINAL SINGLE POINT ENERGY      -304.931953846204
-------------------------   --------------------


                            ***************************************
                            *     ORCA property calculations      *
                            ***************************************

                                    ---------------------
                                    Active property flags
                                    ---------------------
   (+) Dipole Moment


------------------------------------------------------------------------------
                       ORCA ELECTRIC PROPERTIES CALCULATION
------------------------------------------------------------------------------

Dipole Moment Calculation                       ... on
Quadrupole Moment Calculation                   ... off
Polarizability Calculation                      ... off
GBWName                                         ... 1+.gbw
Electron density                                ... 1+.scfp
The origin for moment calculation is the CENTER OF MASS  = ( 0.299540, -0.418346 -0.468805)

-------------
DIPOLE MOMENT
-------------
                                X             Y             Z
Electronic contribution:      0.32203      -0.28638      -1.47037
Nuclear contribution   :     -0.40012       0.35641       1.82540
                        -----------------------------------------
Total Dipole Moment    :     -0.07809       0.07002       0.35503
                        -----------------------------------------
Magnitude (a.u.)       :      0.37020
Magnitude (Debye)      :      0.94097



--------------------
Rotational spectrum 
--------------------
 
Rotational constants in cm-1:     0.227833     0.068832     0.053964 
Rotational constants in MHz :  6830.253611  2063.525234  1617.788814 

 Dipole components along the rotational axes: 
x,y,z [a.u.] :    -0.000220    -0.370196     0.000763 
x,y,z [Debye]:    -0.000559    -0.940964     0.001938 

 

-------------------------------------------------------------------------------
                               ORCA SCF HESSIAN
-------------------------------------------------------------------------------

                   --------- SHARK INITIALIZATION DONE ---------

Hessian of the Kohn-Sham DFT energy:
Kohn-Sham wavefunction type                      ... RKS
Hartree-Fock exchange scaling                    ...    0.158
Number of operators                              ...    1
Number of atoms                                  ...   16
Basis set dimensions                             ...  143
Integral neglect threshold                       ... 2.5e-11
Integral primitive cutoff                        ... 2.5e-12

Setting up DFT Hessian calculations              ... 

HESS GRID
---------

General Integration Accuracy     IntAcc      ... 4.629
Radial Grid Type                 RadialGrid  ... OptM3 with GC (2021)
Angular Grid (max. ang.)         AngularGrid ... 5 (Lebedev-434)
Angular grid pruning method      GridPruning ... 4 (adaptive)
Weight generation scheme         WeightScheme... Becke
Basis function cutoff            BFCut       ... 1.0000e-11
Integration weight cutoff        WCut        ... 1.0000e-14
Angular grids for H and He will be reduced by one unit
Partially contracted basis set               ... off
Rotationally invariant grid construction     ... off

Total number of grid points                  ...   110649
Total number of batches                      ...     1736
Average number of points per batch           ...       63
Average number of grid points per atom       ...     6916

Building densities                               ... done   (      0.0 sec)
Calculating rho(r) on the grid                   ... done   (      0.9 sec)
Building xc-kernel on the grid                   ... done   (      1.1 sec)
                                                     done   (      3.5 sec)

Nuclear repulsion Hessian  (SHARK)               ... done   (      0.0 sec)

----------------------------------------------
Forming right-hand sides of CP-SCF equations     ...
----------------------------------------------
One electron integral derivatives  (SHARK)       ... done   (      0.2 sec)
Transforming the overlap derivative matrices     ... done   (      0.0 sec)
Making the Q(x) pseudodensities                  ... done   (      0.0 sec)
Adding the E*S(x)*S(y) terms to the Hessian      ... done   (      0.0 sec)
Calculating energy weighted overlap derivatives  ... done   (      0.0 sec)
Two electron integral derivatives (SHARK-RI)     ... done   (     19.7 sec)
Exchange-correlation integral derivatives        ... done   (     85.6 sec)
tr(F(y)Q(x)) contribution to the Hessian         ... done   (      0.0 sec)
Response fock operator R(S(x)) (SHARK-RIJCOSX)   ... done   (     20.6 sec)
XC Response fock operator R(S(x))                ... done   (     29.0 sec)
tr(F(y)S(x)) contribution to the Hessian         ... done   (      0.0 sec)
Transforming and finalizing RHSs                 ... done   (      0.0 sec)

----------------------------------------------
Solving the CP-SCF equations (RIJCOSX)           ...
----------------------------------------------
     CP-SCF ITERATION   0:   1.3179e-01 (  10.2 sec   0/ 48 done)
     CP-SCF ITERATION   1:   8.6828e-02 (  10.2 sec   0/ 48 done)
     CP-SCF ITERATION   2:   2.0943e-02 (  10.2 sec   0/ 48 done)
     CP-SCF ITERATION   3:   8.9538e-03 (  10.2 sec   0/ 48 done)
     CP-SCF ITERATION   4:   5.1276e-03 (  10.2 sec   0/ 48 done)
     CP-SCF ITERATION   5:   1.5451e-03 (  10.3 sec   7/ 48 done)
     CP-SCF ITERATION   6:   5.0907e-04 (   9.3 sec  28/ 48 done)
     CP-SCF ITERATION   7:   1.8444e-04 (   6.6 sec  33/ 48 done)
     CP-SCF ITERATION   8:   6.2289e-05 (   5.5 sec  48/ 48 done)
                    *** THE CP-SCF HAS CONVERGED ***

                                                 ... done   (     83.0 sec)
Forming perturbed density Hessian contributions  ... done   (      0.0 sec)
2nd integral derivative contribs (SHARK-RI)      ... done   (     85.0 sec)
Exchange-correlation Hessian                     ... done   (     64.7 sec)
Dispersion correction in the Hessian             ... Starting D4


------------------- 
Dispersion Gradient 
------------------- 
   1  :    0.000006308    0.000001524   -0.000006825
   2  :   -0.000003067   -0.000004243   -0.000007516
   3  :    0.000008309    0.000004620   -0.000001035
   4  :   -0.000007658   -0.000005307   -0.000002493
   5  :    0.000000087   -0.000000104   -0.000000461
   6  :    0.000003603    0.000000800   -0.000004061
   7  :   -0.000001696   -0.000002493   -0.000004549
   8  :    0.000024602    0.000017646    0.000009605
   9  :   -0.000027686   -0.000014942    0.000004548
  10  :    0.000005294    0.000003949    0.000002133
  11  :    0.000006514    0.000004643    0.000002384
  12  :    0.000005365    0.000003760    0.000002214
  13  :   -0.000000613    0.000000541    0.000002832
  14  :   -0.000006106   -0.000003150    0.000001042
  15  :   -0.000005978   -0.000003299    0.000001134
  16  :   -0.000007277   -0.000003947    0.000001048

  |G| =    0.000050985

Starting D4


------------------- 
Dispersion Gradient 
------------------- 
   1  :    0.000005920    0.000001452   -0.000006352
   2  :   -0.000003060   -0.000004195   -0.000007391
   3  :    0.000008325    0.000004621   -0.000001039
   4  :   -0.000007476   -0.000005240   -0.000002615
   5  :    0.000000264   -0.000000155   -0.000000962
   6  :    0.000003558    0.000000790   -0.000004028
   7  :   -0.000001696   -0.000002492   -0.000004548
   8  :    0.000024601    0.000017647    0.000009611
   9  :   -0.000027662   -0.000014932    0.000004545
  10  :    0.000005296    0.000003953    0.000002137
  11  :    0.000006518    0.000004643    0.000002383
  12  :    0.000005368    0.000003761    0.000002218
  13  :   -0.000000607    0.000000539    0.000002819
  14  :   -0.000006102   -0.000003148    0.000001041
  15  :   -0.000005973   -0.000003298    0.000001133
  16  :   -0.000007274   -0.000003947    0.000001048

  |G| =    0.000050941

Starting D4


------------------- 
Dispersion Gradient 
------------------- 
   1  :    0.000006153    0.000001507   -0.000006614
   2  :   -0.000003064   -0.000004217   -0.000007454
   3  :    0.000008316    0.000004615   -0.000001032
   4  :   -0.000007591   -0.000005282   -0.000002537
   5  :    0.000000165   -0.000000123   -0.000000693
   6  :    0.000003586    0.000000801   -0.000004050
   7  :   -0.000001697   -0.000002493   -0.000004549
   8  :    0.000024597    0.000017642    0.000009601
   9  :   -0.000027677   -0.000014941    0.000004548
  10  :    0.000005295    0.000003950    0.000002134
  11  :    0.000006515    0.000004642    0.000002383
  12  :    0.000005365    0.000003759    0.000002214
  13  :   -0.000000610    0.000000539    0.000002825
  14  :   -0.000006105   -0.000003151    0.000001042
  15  :   -0.000005975   -0.000003300    0.000001133
  16  :   -0.000007275   -0.000003948    0.000001048

  |G| =    0.000050964

Starting D4


------------------- 
Dispersion Gradient 
------------------- 
   1  :    0.000006081    0.000001471   -0.000006574
   2  :   -0.000003064   -0.000004221   -0.000007455
   3  :    0.000008318    0.000004626   -0.000001041
   4  :   -0.000007548   -0.000005267   -0.000002568
   5  :    0.000000182   -0.000000135   -0.000000720
   6  :    0.000003577    0.000000789   -0.000004041
   7  :   -0.000001695   -0.000002492   -0.000004548
   8  :    0.000024605    0.000017651    0.000009615
   9  :   -0.000027672   -0.000014933    0.000004545
  10  :    0.000005295    0.000003952    0.000002136
  11  :    0.000006516    0.000004645    0.000002384
  12  :    0.000005368    0.000003762    0.000002218
  13  :   -0.000000610    0.000000542    0.000002826
  14  :   -0.000006104   -0.000003147    0.000001042
  15  :   -0.000005975   -0.000003297    0.000001134
  16  :   -0.000007276   -0.000003945    0.000001048

  |G| =    0.000050963

Starting D4


------------------- 
Dispersion Gradient 
------------------- 
   1  :    0.000005874    0.000001469   -0.000006211
   2  :   -0.000003053   -0.000004175   -0.000007335
   3  :    0.000008317    0.000004624   -0.000001033
   4  :   -0.000007466   -0.000005234   -0.000002617
   5  :    0.000000326   -0.000000178   -0.000001127
   6  :    0.000003563    0.000000790   -0.000004024
   7  :   -0.000001698   -0.000002494   -0.000004548
   8  :    0.000024587    0.000017633    0.000009592
   9  :   -0.000027665   -0.000014932    0.000004544
  10  :    0.000005295    0.000003951    0.000002134
  11  :    0.000006515    0.000004642    0.000002380
  12  :    0.000005366    0.000003760    0.000002215
  13  :   -0.000000606    0.000000538    0.000002811
  14  :   -0.000006104   -0.000003148    0.000001040
  15  :   -0.000005975   -0.000003299    0.000001132
  16  :   -0.000007276   -0.000003947    0.000001046

  |G| =    0.000050923

Starting D4


------------------- 
Dispersion Gradient 
------------------- 
   1  :    0.000006346    0.000001508   -0.000006954
   2  :   -0.000003074   -0.000004262   -0.000007568
   3  :    0.000008317    0.000004617   -0.000001040
   4  :   -0.000007666   -0.000005312   -0.000002492
   5  :    0.000000032   -0.000000082   -0.000000312
   6  :    0.000003598    0.000000800   -0.000004065
   7  :   -0.000001694   -0.000002491   -0.000004549
   8  :    0.000024615    0.000017659    0.000009623
   9  :   -0.000027683   -0.000014942    0.000004549
  10  :    0.000005296    0.000003952    0.000002136
  11  :    0.000006516    0.000004644    0.000002386
  12  :    0.000005366    0.000003760    0.000002217
  13  :   -0.000000614    0.000000543    0.000002840
  14  :   -0.000006104   -0.000003150    0.000001043
  15  :   -0.000005976   -0.000003298    0.000001135
  16  :   -0.000007275   -0.000003947    0.000001050

  |G| =    0.000051000

Starting D4


------------------- 
Dispersion Gradient 
------------------- 
   1  :    0.000006114    0.000001489   -0.000006583
   2  :   -0.000003011   -0.000004163   -0.000007372
   3  :    0.000008288    0.000004590   -0.000001076
   4  :   -0.000007575   -0.000005276   -0.000002559
   5  :    0.000000180   -0.000000151   -0.000000774
   6  :    0.000003580    0.000000794   -0.000004045
   7  :   -0.000001686   -0.000002486   -0.000004537
   8  :    0.000024594    0.000017643    0.000009605
   9  :   -0.000027684   -0.000014940    0.000004555
  10  :    0.000005293    0.000003951    0.000002135
  11  :    0.000006514    0.000004643    0.000002384
  12  :    0.000005365    0.000003760    0.000002216
  13  :   -0.000000611    0.000000540    0.000002825
  14  :   -0.000006106   -0.000003149    0.000001043
  15  :   -0.000005977   -0.000003299    0.000001136
  16  :   -0.000007277   -0.000003947    0.000001048

  |G| =    0.000050937

Starting D4


------------------- 
Dispersion Gradient 
------------------- 
   1  :    0.000006121    0.000001489   -0.000006604
   2  :   -0.000003116   -0.000004275   -0.000007536
   3  :    0.000008346    0.000004650   -0.000000998
   4  :   -0.000007564   -0.000005273   -0.000002547
   5  :    0.000000168   -0.000000107   -0.000000641
   6  :    0.000003583    0.000000796   -0.000004046
   7  :   -0.000001706   -0.000002499   -0.000004559
   8  :    0.000024608    0.000017650    0.000009611
   9  :   -0.000027665   -0.000014934    0.000004538
  10  :    0.000005297    0.000003952    0.000002135
  11  :    0.000006517    0.000004643    0.000002383
  12  :    0.000005368    0.000003761    0.000002216
  13  :   -0.000000609    0.000000541    0.000002826
  14  :   -0.000006102   -0.000003149    0.000001040
  15  :   -0.000005973   -0.000003297    0.000001131
  16  :   -0.000007274   -0.000003946    0.000001048

  |G| =    0.000050990

Starting D4


------------------- 
Dispersion Gradient 
------------------- 
   1  :    0.000006093    0.000001491   -0.000006550
   2  :   -0.000003007   -0.000004120   -0.000007262
   3  :    0.000008273    0.000004578   -0.000001090
   4  :   -0.000007570   -0.000005282   -0.000002554
   5  :    0.000000186   -0.000000177   -0.000000898
   6  :    0.000003581    0.000000795   -0.000004045
   7  :   -0.000001689   -0.000002479   -0.000004535
   8  :    0.000024595    0.000017640    0.000009606
   9  :   -0.000027673   -0.000014936    0.000004548
  10  :    0.000005295    0.000003950    0.000002135
  11  :    0.000006516    0.000004642    0.000002383
  12  :    0.000005366    0.000003758    0.000002216
  13  :   -0.000000609    0.000000538    0.000002820
  14  :   -0.000006106   -0.000003150    0.000001043
  15  :   -0.000005975   -0.000003299    0.000001134
  16  :   -0.000007276   -0.000003948    0.000001048

  |G| =    0.000050921

Starting D4


------------------- 
Dispersion Gradient 
------------------- 
   1  :    0.000006141    0.000001487   -0.000006637
   2  :   -0.000003119   -0.000004316   -0.000007641
   3  :    0.000008359    0.000004662   -0.000000985
   4  :   -0.000007569   -0.000005267   -0.000002552
   5  :    0.000000162   -0.000000082   -0.000000521
   6  :    0.000003582    0.000000795   -0.000004046
   7  :   -0.000001702   -0.000002505   -0.000004561
   8  :    0.000024607    0.000017654    0.000009610
   9  :   -0.000027675   -0.000014938    0.000004545
  10  :    0.000005296    0.000003953    0.000002135
  11  :    0.000006516    0.000004645    0.000002383
  12  :    0.000005367    0.000003762    0.000002216
  13  :   -0.000000610    0.000000543    0.000002831
  14  :   -0.000006102   -0.000003148    0.000001040
  15  :   -0.000005975   -0.000003298    0.000001133
  16  :   -0.000007276   -0.000003945    0.000001049

  |G| =    0.000051006

Starting D4


------------------- 
Dispersion Gradient 
------------------- 
   1  :    0.000006053    0.000001489   -0.000006474
   2  :   -0.000002979   -0.000004023   -0.000007005
   3  :    0.000008236    0.000004542   -0.000001130
   4  :   -0.000007574   -0.000005274   -0.000002551
   5  :    0.000000213   -0.000000260   -0.000001172
   6  :    0.000003583    0.000000796   -0.000004045
   7  :   -0.000001684   -0.000002478   -0.000004521
   8  :    0.000024591    0.000017640    0.000009603
   9  :   -0.000027655   -0.000014929    0.000004535
  10  :    0.000005294    0.000003951    0.000002133
  11  :    0.000006516    0.000004643    0.000002382
  12  :    0.000005366    0.000003759    0.000002215
  13  :   -0.000000607    0.000000537    0.000002810
  14  :   -0.000006104   -0.000003149    0.000001041
  15  :   -0.000005975   -0.000003299    0.000001133
  16  :   -0.000007274   -0.000003947    0.000001045

  |G| =    0.000050880

Starting D4


------------------- 
Dispersion Gradient 
------------------- 
   1  :    0.000006178    0.000001488   -0.000006708
   2  :   -0.000003143   -0.000004402   -0.000007876
   3  :    0.000008392    0.000004694   -0.000000949
   4  :   -0.000007565   -0.000005275   -0.000002555
   5  :    0.000000137   -0.000000007   -0.000000272
   6  :    0.000003580    0.000000794   -0.000004046
   7  :   -0.000001707   -0.000002505   -0.000004573
   8  :    0.000024611    0.000017653    0.000009613
   9  :   -0.000027693   -0.000014945    0.000004558
  10  :    0.000005296    0.000003951    0.000002137
  11  :    0.000006515    0.000004643    0.000002385
  12  :    0.000005367    0.000003761    0.000002218
  13  :   -0.000000612    0.000000544    0.000002841
  14  :   -0.000006104   -0.000003149    0.000001042
  15  :   -0.000005975   -0.000003298    0.000001134
  16  :   -0.000007277   -0.000003947    0.000001051

  |G| =    0.000051044

Starting D4


------------------- 
Dispersion Gradient 
------------------- 
   1  :    0.000006109    0.000001488   -0.000006593
   2  :   -0.000003092   -0.000004261   -0.000007532
   3  :    0.000008397    0.000004661   -0.000001003
   4  :   -0.000007600   -0.000005298   -0.000002557
   5  :    0.000000176   -0.000000109   -0.000000668
   6  :    0.000003581    0.000000795   -0.000004043
   7  :   -0.000001700   -0.000002495   -0.000004552
   8  :    0.000024613    0.000017662    0.000009618
   9  :   -0.000027686   -0.000014941    0.000004548
  10  :    0.000005292    0.000003950    0.000002134
  11  :    0.000006515    0.000004642    0.000002384
  12  :    0.000005366    0.000003760    0.000002215
  13  :   -0.000000610    0.000000540    0.000002828
  14  :   -0.000006106   -0.000003149    0.000001042
  15  :   -0.000005977   -0.000003299    0.000001134
  16  :   -0.000007278   -0.000003947    0.000001048

  |G| =    0.000051021

Starting D4


------------------- 
Dispersion Gradient 
------------------- 
   1  :    0.000006126    0.000001490   -0.000006594
   2  :   -0.000003034   -0.000004176   -0.000007375
   3  :    0.000008237    0.000004579   -0.000001070
   4  :   -0.000007539   -0.000005251   -0.000002548
   5  :    0.000000172   -0.000000149   -0.000000747
   6  :    0.000003581    0.000000795   -0.000004048
   7  :   -0.000001692   -0.000002489   -0.000004544
   8  :    0.000024589    0.000017631    0.000009598
   9  :   -0.000027663   -0.000014934    0.000004545
  10  :    0.000005298    0.000003953    0.000002136
  11  :    0.000006517    0.000004644    0.000002382
  12  :    0.000005367    0.000003761    0.000002218
  13  :   -0.000000609    0.000000541    0.000002824
  14  :   -0.000006103   -0.000003149    0.000001042
  15  :   -0.000005974   -0.000003298    0.000001133
  16  :   -0.000007273   -0.000003946    0.000001048

  |G| =    0.000050906

Starting D4


------------------- 
Dispersion Gradient 
------------------- 
   1  :    0.000006117    0.000001483   -0.000006590
   2  :   -0.000003093   -0.000004261   -0.000007529
   3  :    0.000008358    0.000004684   -0.000001008
   4  :   -0.000007591   -0.000005283   -0.000002557
   5  :    0.000000180   -0.000000122   -0.000000665
   6  :    0.000003581    0.000000796   -0.000004045
   7  :   -0.000001699   -0.000002496   -0.000004552
   8  :    0.000024617    0.000017649    0.000009616
   9  :   -0.000027679   -0.000014944    0.000004549
  10  :    0.000005297    0.000003950    0.000002135
  11  :    0.000006514    0.000004643    0.000002383
  12  :    0.000005364    0.000003758    0.000002216
  13  :   -0.000000610    0.000000542    0.000002825
  14  :   -0.000006104   -0.000003151    0.000001042
  15  :   -0.000005975   -0.000003300    0.000001134
  16  :   -0.000007276   -0.000003949    0.000001048

  |G| =    0.000051009

Starting D4


------------------- 
Dispersion Gradient 
------------------- 
   1  :    0.000006118    0.000001495   -0.000006597
   2  :   -0.000003033   -0.000004176   -0.000007378
   3  :    0.000008276    0.000004557   -0.000001066
   4  :   -0.000007548   -0.000005266   -0.000002549
   5  :    0.000000168   -0.000000136   -0.000000750
   6  :    0.000003581    0.000000794   -0.000004046
   7  :   -0.000001694   -0.000002489   -0.000004544
   8  :    0.000024585    0.000017644    0.000009600
   9  :   -0.000027670   -0.000014930    0.000004545
  10  :    0.000005293    0.000003952    0.000002135
  11  :    0.000006518    0.000004643    0.000002384
  12  :    0.000005369    0.000003763    0.000002216
  13  :   -0.000000610    0.000000539    0.000002826
  14  :   -0.000006104   -0.000003147    0.000001042
  15  :   -0.000005976   -0.000003297    0.000001133
  16  :   -0.000007275   -0.000003945    0.000001048

  |G| =    0.000050918

Starting D4


------------------- 
Dispersion Gradient 
------------------- 
   1  :    0.000006119    0.000001493   -0.000006590
   2  :   -0.000003102   -0.000004271   -0.000007544
   3  :    0.000008350    0.000004650   -0.000000979
   4  :   -0.000007570   -0.000005276   -0.000002551
   5  :    0.000000169   -0.000000112   -0.000000658
   6  :    0.000003583    0.000000794   -0.000004048
   7  :   -0.000001699   -0.000002496   -0.000004554
   8  :    0.000024611    0.000017655    0.000009606
   9  :   -0.000027676   -0.000014937    0.000004545
  10  :    0.000005295    0.000003950    0.000002135
  11  :    0.000006514    0.000004641    0.000002381
  12  :    0.000005366    0.000003762    0.000002216
  13  :   -0.000000606    0.000000541    0.000002823
  14  :   -0.000006104   -0.000003149    0.000001040
  15  :   -0.000005975   -0.000003298    0.000001132
  16  :   -0.000007275   -0.000003947    0.000001047

  |G| =    0.000050998

Starting D4


------------------- 
Dispersion Gradient 
------------------- 
   1  :    0.000006115    0.000001485   -0.000006597
   2  :   -0.000003024   -0.000004166   -0.000007363
   3  :    0.000008283    0.000004591   -0.000001095
   4  :   -0.000007569   -0.000005273   -0.000002554
   5  :    0.000000179   -0.000000146   -0.000000757
   6  :    0.000003580    0.000000795   -0.000004042
   7  :   -0.000001693   -0.000002489   -0.000004542
   8  :    0.000024591    0.000017638    0.000009610
   9  :   -0.000027673   -0.000014937    0.000004548
  10  :    0.000005295    0.000003952    0.000002135
  11  :    0.000006518    0.000004645    0.000002385
  12  :    0.000005367    0.000003759    0.000002216
  13  :   -0.000000614    0.000000540    0.000002828
  14  :   -0.000006104   -0.000003149    0.000001043
  15  :   -0.000005975   -0.000003298    0.000001135
  16  :   -0.000007276   -0.000003947    0.000001049

  |G| =    0.000050928

Starting D4


------------------- 
Dispersion Gradient 
------------------- 
   1  :    0.000006025    0.000001467   -0.000006492
   2  :   -0.000003069   -0.000004220   -0.000007459
   3  :    0.000008286    0.000004599   -0.000001037
   4  :   -0.000007460   -0.000005237   -0.000002584
   5  :    0.000000200   -0.000000126   -0.000000767
   6  :    0.000003574    0.000000793   -0.000004040
   7  :   -0.000001695   -0.000002493   -0.000004549
   8  :    0.000024591    0.000017642    0.000009604
   9  :   -0.000027654   -0.000014922    0.000004539
  10  :    0.000005294    0.000003951    0.000002135
  11  :    0.000006514    0.000004642    0.000002383
  12  :    0.000005365    0.000003761    0.000002216
  13  :   -0.000000609    0.000000540    0.000002826
  14  :   -0.000006106   -0.000003148    0.000001042
  15  :   -0.000005978   -0.000003300    0.000001134
  16  :   -0.000007277   -0.000003949    0.000001048

  |G| =    0.000050916

Starting D4


------------------- 
Dispersion Gradient 
------------------- 
   1  :    0.000006207    0.000001510   -0.000006692
   2  :   -0.000003058   -0.000004218   -0.000007450
   3  :    0.000008348    0.000004643   -0.000001036
   4  :   -0.000007677   -0.000005311   -0.000002523
   5  :    0.000000149   -0.000000131   -0.000000650
   6  :    0.000003588    0.000000797   -0.000004051
   7  :   -0.000001697   -0.000002492   -0.000004548
   8  :    0.000024611    0.000017651    0.000009612
   9  :   -0.000027694   -0.000014952    0.000004554
  10  :    0.000005297    0.000003951    0.000002135
  11  :    0.000006518    0.000004644    0.000002384
  12  :    0.000005368    0.000003760    0.000002216
  13  :   -0.000000611    0.000000541    0.000002826
  14  :   -0.000006103   -0.000003150    0.000001041
  15  :   -0.000005972   -0.000003297    0.000001133
  16  :   -0.000007274   -0.000003945    0.000001048

  |G| =    0.000051010

Starting D4


------------------- 
Dispersion Gradient 
------------------- 
   1  :    0.000006083    0.000001481   -0.000006555
   2  :   -0.000003065   -0.000004226   -0.000007454
   3  :    0.000008294    0.000004612   -0.000001038
   4  :   -0.000007533   -0.000005228   -0.000002566
   5  :    0.000000191   -0.000000136   -0.000000726
   6  :    0.000003579    0.000000793   -0.000004043
   7  :   -0.000001696   -0.000002492   -0.000004550
   8  :    0.000024597    0.000017639    0.000009606
   9  :   -0.000027659   -0.000014938    0.000004544
  10  :    0.000005295    0.000003950    0.000002135
[...]
     35      -0.128666   0.211807   0.324380  -0.252646  -0.256618   0.134603
     36      -0.091942   0.003057   0.003055   0.008927  -0.019440  -0.141247
     37      -0.055669   0.010260   0.000628  -0.008046   0.024747  -0.082697
     38      -0.004008   0.017794  -0.005392  -0.000062   0.114201   0.002656
     39       0.094461  -0.476119  -0.209225  -0.253291  -0.099508  -0.209930
     40      -0.037072  -0.000138  -0.029044  -0.033552   0.045562   0.007801
     41       0.401259  -0.097046   0.294083   0.324413  -0.335240  -0.283474
     42      -0.062524  -0.283887   0.187385   0.185635   0.162958  -0.017099
     43       0.283262  -0.416530  -0.046034  -0.065056  -0.271551  -0.320195
     44       0.201819   0.174497  -0.267123  -0.273517  -0.305275  -0.153340
     45      -0.099601  -0.356032   0.202453   0.195178   0.350228   0.319842
     46      -0.155255  -0.135508  -0.391520  -0.435213   0.150018   0.209456
     47      -0.047726  -0.070005   0.146427   0.153244   0.075886   0.027662
                 36         37         38         39         40         41    
      0       0.105755  -0.279220  -0.045729   0.000131   0.000174   0.000017
      1       0.074566  -0.185545  -0.046781   0.000145   0.000279   0.000004
      2       0.037402  -0.062580  -0.060236   0.000173   0.000538  -0.000024
      3      -0.125561   0.294804  -0.069361  -0.000447  -0.000164   0.000157
      4      -0.063930   0.171944  -0.024872  -0.000106  -0.000061  -0.000049
      5       0.032660  -0.008228   0.049324   0.000466   0.000093   0.000132
      6       0.095334   0.180035   0.240645   0.000222   0.000861  -0.000050
      7       0.028626   0.087027   0.137642   0.000079   0.000511   0.000060
      8      -0.084373  -0.058798  -0.012421  -0.000188   0.000167  -0.000021
      9      -0.049900  -0.147691   0.224192  -0.000846  -0.000052   0.000403
     10      -0.069468  -0.117126   0.151686  -0.000575  -0.000092  -0.000502
     11      -0.120493  -0.090100   0.055953  -0.000018  -0.000221   0.000148
     12      -0.027795  -0.026412  -0.377407  -0.000601   0.000595  -0.000052
     13       0.027452   0.024368  -0.234937  -0.000322   0.000417   0.000112
     14       0.133442   0.122432  -0.035230   0.000117   0.000218  -0.000059
     15       0.027284   0.022772   0.138141   0.001369  -0.000703  -0.000372
     16      -0.016802   0.162177   0.138480   0.000469  -0.000713   0.000124
     17      -0.104332   0.464191   0.176326  -0.001004  -0.000809   0.000177
     18       0.039167  -0.220396   0.207732   0.001156  -0.000971  -0.000989
     19      -0.011043   0.011122   0.076806   0.000539  -0.000958   0.000086
     20      -0.109053   0.442692  -0.143196  -0.000383  -0.001142  -0.001206
     21      -0.019946  -0.035244  -0.032384  -0.001913  -0.037963   0.002002
     22      -0.016720  -0.015566  -0.018708  -0.001307  -0.026210  -0.003533
     23      -0.012530   0.014707  -0.002231  -0.000692  -0.014330   0.001285
     24       0.023605   0.026893  -0.030577   0.041203  -0.002039  -0.047941
     25       0.009188   0.023193  -0.020589   0.023944  -0.001172   0.080256
     26      -0.010389   0.020496  -0.003616  -0.007407   0.000395  -0.023314
     27      -0.135457  -0.106139  -0.115313   0.025701   0.512348  -0.026849
     28      -0.210005  -0.128278  -0.152494  -0.015668  -0.314229   0.016147
     29       0.202403  -0.017162  -0.071110  -0.000839  -0.017328   0.001111
     30       0.279413   0.086404  -0.022416  -0.006007  -0.123407   0.000085
     31       0.159351   0.056464  -0.015014   0.005766   0.117741  -0.000222
     32       0.022004   0.028525  -0.000683   0.024519   0.501980   0.000488
     33      -0.307251  -0.158909  -0.161575   0.002462   0.047944   0.002835
     34       0.069069  -0.047340  -0.068731   0.024993   0.498849   0.026222
     35       0.085706  -0.052253  -0.102102  -0.015891  -0.318459  -0.016900
     36      -0.020375  -0.037652   0.479972   0.001601  -0.000466   0.000021
     37       0.040303   0.032802   0.299478   0.000018  -0.001191  -0.000180
     38       0.163450   0.172171   0.047446  -0.002746  -0.002713   0.000015
     39       0.282817   0.164100  -0.196050   0.063754  -0.003230   0.073902
     40       0.010286   0.039197  -0.040904  -0.598986   0.029571  -0.714442
     41       0.314413   0.011406   0.038650  -0.057113   0.002840  -0.073936
     42       0.067105   0.119881  -0.146050  -0.413463   0.020373   0.478927
     43       0.392588   0.128237  -0.123413   0.199610  -0.009908  -0.225766
     44       0.158433  -0.026499   0.073330  -0.362235   0.017931   0.425545
     45      -0.340440  -0.090996  -0.025065  -0.125153   0.006314   0.013488
     46      -0.230297  -0.055324  -0.013185   0.123781  -0.006279  -0.010834
     47      -0.038039   0.011394  -0.004080   0.506048  -0.025619  -0.075145
                 42         43         44         45         46         47    
      0       0.000060   0.000045  -0.000006  -0.006392  -0.045737  -0.050297
      1       0.000170   0.000021  -0.000121  -0.002826  -0.012462  -0.016703
      2      -0.000162  -0.000038  -0.000416   0.002982   0.045310   0.040492
      3      -0.000009   0.000126  -0.000040   0.004010  -0.022337   0.033009
      4       0.000005  -0.000033  -0.000035   0.003074  -0.028637   0.036265
      5       0.000011  -0.000446  -0.000043   0.002223  -0.048201   0.052278
      6      -0.000285  -0.000147  -0.000222   0.003738   0.000113  -0.000102
      7       0.000574  -0.000118  -0.000293   0.001352  -0.000292  -0.000950
      8      -0.000158  -0.000060  -0.000428  -0.002623  -0.001081  -0.002695
      9       0.000005   0.000386   0.000166  -0.002450  -0.000165   0.001276
     10      -0.000022   0.000133   0.000086  -0.002484   0.000212  -0.000113
     11       0.000004  -0.000372  -0.000016  -0.003167   0.000956  -0.002643
     12       0.000084  -0.000014   0.000331  -0.019574   0.002124   0.002181
     13      -0.000106  -0.000257  -0.000044   0.017681   0.000647  -0.002068
     14       0.000035  -0.000666  -0.000678   0.089373  -0.001869  -0.010252
     15      -0.000952   0.000583  -0.003555   0.059531   0.519728   0.480953
     16      -0.001187   0.000186  -0.001324   0.017309   0.149771   0.140677
     17       0.001445  -0.000481   0.002537  -0.055694  -0.490007  -0.447076
     18       0.000061   0.002674  -0.000360  -0.023279   0.270225  -0.294956
     19      -0.000399   0.002628  -0.000364  -0.028013   0.328400  -0.354504
     20      -0.000114   0.003603  -0.000526  -0.044553   0.527269  -0.563166
     21       0.045406  -0.000598  -0.044585  -0.000385  -0.000269  -0.000008
     22      -0.080041   0.000094   0.005259   0.000040  -0.000158   0.000018
     23       0.028733   0.001250   0.085064   0.000887   0.000521   0.000422
     24       0.002154   0.005976  -0.000125   0.000012  -0.000197  -0.000049
     25      -0.003610   0.029985  -0.000463   0.000243  -0.000180   0.000035
     26       0.001037   0.091283  -0.001294   0.000853  -0.000602   0.000481
     27      -0.601052   0.004063   0.308635  -0.000205   0.000803  -0.000344
     28       0.364727  -0.002597  -0.193302  -0.001144   0.000134   0.000813
     29       0.026386  -0.000045  -0.003715  -0.000517   0.000345   0.000503
     30       0.001213   0.002931   0.199139   0.000901   0.001460   0.001483
     31      -0.004506  -0.002736  -0.185983  -0.002239   0.000166   0.000274
     32       0.014015  -0.011750  -0.799901  -0.007349  -0.001827  -0.001585
     33       0.061693   0.000307   0.025531  -0.000867   0.000678   0.000475
     34       0.587037   0.004429   0.321692   0.000458   0.002672   0.000975
     35      -0.380924  -0.002762  -0.199021  -0.001304  -0.001070   0.000133
     36      -0.000141  -0.002250  -0.000605   0.208151  -0.004103  -0.020465
     37       0.000212   0.000767   0.001913  -0.187798   0.004449   0.018447
     38       0.000149   0.006044   0.006708  -0.949849   0.020969   0.093251
     39      -0.003414   0.036125  -0.000516   0.001155   0.000347  -0.000615
     40       0.031797  -0.315438   0.004963   0.000097   0.001282   0.000044
     41       0.003349  -0.022311   0.000364  -0.000332  -0.000128   0.000439
     42      -0.021190  -0.307036   0.004599   0.000238   0.002649  -0.001451
     43       0.010086   0.152810  -0.002242   0.001056  -0.000817   0.000132
     44      -0.018980  -0.263749   0.003928  -0.001173   0.001599  -0.000258
     45      -0.000621   0.193316  -0.002726   0.002557   0.000334  -0.000681
     46       0.000508  -0.195462   0.002752  -0.001017   0.001093  -0.001196
     47       0.003467  -0.791447   0.011164  -0.006472   0.002282  -0.002064


-----------
IR SPECTRUM
-----------

 Mode   freq       eps      Int      T**2         TX        TY        TZ
       cm**-1   L/(mol*cm) km/mol    a.u.
----------------------------------------------------------------------------
  6:     94.65   0.000091    0.46  0.000299  ( 0.008222 -0.014276  0.005288)
  7:    138.10   0.000068    0.34  0.000154  (-0.006374  0.009819 -0.004111)
  8:    190.75   0.000922    4.66  0.001509  (-0.018930  0.032240 -0.010549)
  9:    275.86   0.000003    0.02  0.000004  ( 0.001073 -0.000560 -0.001516)
 10:    281.31   0.000098    0.50  0.000109  (-0.002533  0.002704  0.009750)
 11:    425.39   0.000012    0.06  0.000009  (-0.002513 -0.001560 -0.000302)
 12:    626.66   0.000220    1.11  0.000110  (-0.001975  0.001508  0.010179)
 13:    646.89   0.000065    0.33  0.000031  (-0.002360  0.004912 -0.001334)
 14:    651.06   0.005801   29.32  0.002781  (-0.025947  0.043697 -0.014067)
 15:    741.10   0.001089    5.50  0.000459  ( 0.018180  0.011192  0.001662)
 16:    778.86   0.006639   33.55  0.002660  (-0.025442  0.042913 -0.013087)
 17:    878.63   0.004533   22.91  0.001610  ( 0.019620 -0.033216  0.011041)
 18:    918.40   0.000002    0.01  0.000001  (-0.000387  0.000776 -0.000224)
 19:   1053.95   0.000291    1.47  0.000086  ( 0.007358  0.005134  0.002374)
 20:   1057.47   0.000471    2.38  0.000139  (-0.003037  0.001700  0.011263)
 21:   1101.60   0.001648    8.33  0.000467  (-0.004669  0.003159  0.020859)
 22:   1109.52   0.001114    5.63  0.000313  ( 0.014755  0.009467  0.002451)
 23:   1125.89   0.000504    2.55  0.000140  (-0.002231  0.002027  0.011431)
 24:   1144.43   0.000040    0.20  0.000011  ( 0.003117  0.000932  0.000590)
 25:   1151.15   0.000054    0.27  0.000015  (-0.001131  0.003533 -0.000913)
 26:   1213.91   0.015847   80.09  0.004074  (-0.054047 -0.033585 -0.004994)
 27:   1292.42   0.000015    0.08  0.000004  (-0.001672 -0.000922 -0.000001)
 28:   1409.02   0.000096    0.49  0.000021  ( 0.001040 -0.001129 -0.004354)
 29:   1447.31   0.001298    6.56  0.000280  ( 0.014533  0.007562  0.003384)
 30:   1448.25   0.000086    0.43  0.000018  ( 0.003423  0.001578 -0.002056)
 31:   1454.19   0.000386    1.95  0.000083  (-0.000257  0.005573 -0.007185)
 32:   1463.94   0.000061    0.31  0.000013  ( 0.000290  0.002913  0.002108)
 33:   1465.49   0.007793   39.38  0.001659  ( 0.018984 -0.033117  0.014222)
 34:   1471.06   0.006719   33.96  0.001425  ( 0.010257 -0.010445 -0.034801)
 35:   1509.89   0.000207    1.05  0.000043  (-0.005651 -0.003245  0.000629)
 36:   1517.51   0.001736    8.77  0.000357  (-0.003761  0.004596  0.017938)
 37:   1664.62   0.002362   11.94  0.000443  (-0.004368  0.004014  0.020191)
 38:   1681.11   0.019512   98.61  0.003622  (-0.050916 -0.031699 -0.004977)
 39:   3104.13   0.000450    2.28  0.000045  ( 0.005618  0.002816 -0.002403)
 40:   3105.05   0.000496    2.51  0.000050  (-0.004983 -0.003919 -0.003107)
 41:   3223.42   0.000086    0.44  0.000008  ( 0.001449 -0.002357  0.000835)
 42:   3223.98   0.000116    0.58  0.000011  (-0.001547  0.002767 -0.001064)
 43:   3235.62   0.000054    0.27  0.000005  (-0.000431 -0.000592 -0.002156)
 44:   3236.82   0.000051    0.26  0.000005  ( 0.001293  0.000057 -0.001802)
 45:   3297.50   0.007194   36.36  0.000681  ( 0.005783 -0.004719 -0.025003)
 46:   3301.14   0.004331   21.89  0.000409  ( 0.017123  0.010669  0.001548)
 47:   3319.61   0.003357   16.96  0.000316  ( 0.002873 -0.003666 -0.017143)

* The epsilon (eps) is given for a Dirac delta lineshape.
** The dipole moment derivative (T) already includes vibrational overlap.

The first frequency considered to be a vibration is 6
The total number of vibrations considered is 42


--------------------------
THERMOCHEMISTRY AT 298.15K
--------------------------

Temperature         ... 298.15 K
Pressure            ... 1.00 atm
Total Mass          ... 97.14 AMU

Throughout the following assumptions are being made:
  (1) The electronic state is orbitally nondegenerate
  (2) There are no thermally accessible electronically excited states
  (3) Hindered rotations indicated by low frequency modes are not
      treated as such but are treated as vibrations and this may
      cause some error
  (4) All equations used are the standard statistical mechanics
      equations for an ideal gas
  (5) All vibrations are strictly harmonic

freq.      94.65  E(vib)   ...       0.47 
freq.     138.10  E(vib)   ...       0.42 
freq.     190.75  E(vib)   ...       0.36 
freq.     275.86  E(vib)   ...       0.28 
freq.     281.31  E(vib)   ...       0.28 
freq.     425.39  E(vib)   ...       0.18 
freq.     626.66  E(vib)   ...       0.09 
freq.     646.89  E(vib)   ...       0.09 
freq.     651.06  E(vib)   ...       0.08 
freq.     741.10  E(vib)   ...       0.06 
freq.     778.86  E(vib)   ...       0.05 
freq.     878.63  E(vib)   ...       0.04 
freq.     918.40  E(vib)   ...       0.03 
freq.    1053.95  E(vib)   ...       0.02 
freq.    1057.47  E(vib)   ...       0.02 
freq.    1101.60  E(vib)   ...       0.02 
freq.    1109.52  E(vib)   ...       0.02 
freq.    1125.89  E(vib)   ...       0.01 
freq.    1144.43  E(vib)   ...       0.01 
freq.    1151.15  E(vib)   ...       0.01 
freq.    1213.91  E(vib)   ...       0.01 
freq.    1292.42  E(vib)   ...       0.01 
freq.    1409.02  E(vib)   ...       0.00 
freq.    1447.31  E(vib)   ...       0.00 
freq.    1448.25  E(vib)   ...       0.00 
freq.    1454.19  E(vib)   ...       0.00 
freq.    1463.94  E(vib)   ...       0.00 
freq.    1465.49  E(vib)   ...       0.00 
freq.    1471.06  E(vib)   ...       0.00 
freq.    1509.89  E(vib)   ...       0.00 
freq.    1517.51  E(vib)   ...       0.00 
freq.    1664.62  E(vib)   ...       0.00 
freq.    1681.11  E(vib)   ...       0.00 
freq.    3104.13  E(vib)   ...       0.00 
freq.    3105.05  E(vib)   ...       0.00 
freq.    3223.42  E(vib)   ...       0.00 
freq.    3223.98  E(vib)   ...       0.00 
freq.    3235.62  E(vib)   ...       0.00 
freq.    3236.82  E(vib)   ...       0.00 
freq.    3297.50  E(vib)   ...       0.00 
freq.    3301.14  E(vib)   ...       0.00 
freq.    3319.61  E(vib)   ...       0.00 

------------
INNER ENERGY
------------

The inner energy is: U= E(el) + E(ZPE) + E(vib) + E(rot) + E(trans)
    E(el)   - is the total energy from the electronic structure calculation
              = E(kin-el) + E(nuc-el) + E(el-el) + E(nuc-nuc)
    E(ZPE)  - the the zero temperature vibrational energy from the frequency calculation
    E(vib)  - the the finite temperature correction to E(ZPE) due to population
              of excited vibrational states
    E(rot)  - is the rotational thermal energy
    E(trans)- is the translational thermal energy

Summary of contributions to the inner energy U:
Electronic energy                ...   -304.93195385 Eh
Zero point energy                ...      0.14233460 Eh      89.32 kcal/mol
Thermal vibrational correction   ...      0.00412765 Eh       2.59 kcal/mol
Thermal rotational correction    ...      0.00141627 Eh       0.89 kcal/mol
Thermal translational correction ...      0.00141627 Eh       0.89 kcal/mol
-----------------------------------------------------------------------
Total thermal energy                   -304.78265906 Eh


Summary of corrections to the electronic energy:
(perhaps to be used in another calculation)
Total thermal correction                  0.00696019 Eh       4.37 kcal/mol
Non-thermal (ZPE) correction              0.14233460 Eh      89.32 kcal/mol
-----------------------------------------------------------------------
Total correction                          0.14929479 Eh      93.68 kcal/mol


--------
ENTHALPY
--------

The enthalpy is H = U + kB*T
                kB is Boltzmann's constant
Total free energy                 ...   -304.78265906 Eh 
Thermal Enthalpy correction       ...      0.00094421 Eh       0.59 kcal/mol
-----------------------------------------------------------------------
Total Enthalpy                    ...   -304.78171485 Eh


Note: Only C1 symmetry has been detected, increase convergence thresholds 
      if your molecule has a higher symmetry. Symmetry factor of 1.0 is   
      used for the rotational entropy correction. 
 

Note: Rotational entropy computed according to Herzberg 
Infrared and Raman Spectra, Chapter V,1, Van Nostrand Reinhold, 1945 
Point Group:  C1, Symmetry Number:   1  
Rotational constants in cm-1:     0.227833     0.068832     0.053964 

Vibrational entropy computed according to the QRRHO of S. Grimme
Chem.Eur.J. 2012 18 9955


-------
ENTROPY
-------

The entropy contributions are T*S = T*(S(el)+S(vib)+S(rot)+S(trans))
     S(el)   - electronic entropy
     S(vib)  - vibrational entropy
     S(rot)  - rotational entropy
     S(trans)- translational entropy
The entropies will be listed as multiplied by the temperature to get
units of energy

Electronic entropy                ...      0.00000000 Eh      0.00 kcal/mol
Vibrational entropy               ...      0.00698924 Eh      4.39 kcal/mol
Rotational entropy                ...      0.01285070 Eh      8.06 kcal/mol
Translational entropy             ...      0.01883016 Eh     11.82 kcal/mol
-----------------------------------------------------------------------
Final entropy term                ...      0.03867010 Eh     24.27 kcal/mol

In case the symmetry of your molecule has not been determined correctly
or in case you have a reason to use a different symmetry number we print 
out the resulting rotational entropy values for sn=1,12 :
 --------------------------------------------------------
|  sn= 1 | S(rot)=       0.01285070 Eh      8.06 kcal/mol|
|  sn= 2 | S(rot)=       0.01219624 Eh      7.65 kcal/mol|
|  sn= 3 | S(rot)=       0.01181341 Eh      7.41 kcal/mol|
|  sn= 4 | S(rot)=       0.01154179 Eh      7.24 kcal/mol|
|  sn= 5 | S(rot)=       0.01133110 Eh      7.11 kcal/mol|
|  sn= 6 | S(rot)=       0.01115895 Eh      7.00 kcal/mol|
|  sn= 7 | S(rot)=       0.01101341 Eh      6.91 kcal/mol|
|  sn= 8 | S(rot)=       0.01088733 Eh      6.83 kcal/mol|
|  sn= 9 | S(rot)=       0.01077612 Eh      6.76 kcal/mol|
|  sn=10 | S(rot)=       0.01067664 Eh      6.70 kcal/mol|
|  sn=11 | S(rot)=       0.01058665 Eh      6.64 kcal/mol|
|  sn=12 | S(rot)=       0.01050450 Eh      6.59 kcal/mol|
 --------------------------------------------------------


-------------------
GIBBS FREE ENERGY
-------------------

The Gibbs free energy is G = H - T*S

Total enthalpy                    ...   -304.78171485 Eh 
Total entropy correction          ...     -0.03867010 Eh    -24.27 kcal/mol
-----------------------------------------------------------------------
Final Gibbs free energy         ...   -304.82038495 Eh

For completeness - the Gibbs free energy minus the electronic energy
G-E(el)                           ...      0.11156890 Eh     70.01 kcal/mol


Timings for individual modules:

Sum of individual times         ...      508.974 sec (=   8.483 min)
GTO integral calculation        ...        0.249 sec (=   0.004 min)   0.0 %
SCF iterations                  ...      111.997 sec (=   1.867 min)  22.0 %
Analytical frequency calculation...      396.728 sec (=   6.612 min)  77.9 %
                             ****ORCA TERMINATED NORMALLY****
TOTAL RUN TIME: 0 days 0 hours 8 minutes 29 seconds 274 msec
