
                                 *****************
                                 * O   R   C   A *
                                 *****************

                                            #,                                       
                                            ###                                      
                                            ####                                     
                                            #####                                    
                                            ######                                   
                                           ########,                                 
                                     ,,################,,,,,                         
                               ,,#################################,,                 
                          ,,##########################################,,             
                       ,#########################################, ''#####,          
                    ,#############################################,,   '####,        
                  ,##################################################,,,,####,       
                ,###########''''           ''''###############################       
              ,#####''   ,,,,##########,,,,          '''####'''          '####       
            ,##' ,,,,###########################,,,                        '##       
           ' ,,###''''                  '''############,,,                           
         ,,##''                                '''############,,,,        ,,,,,,###''
      ,#''                                            '''#######################'''  
     '                                                          ''''####''''         
             ,#######,   #######,   ,#######,      ##                                
            ,#'     '#,  ##    ##  ,#'     '#,    #''#        ######   ,####,        
            ##       ##  ##   ,#'  ##            #'  '#       #        #'  '#        
            ##       ##  #######   ##           ,######,      #####,   #    #        
            '#,     ,#'  ##    ##  '#,     ,#' ,#      #,         ##   #,  ,#        
             '#######'   ##     ##  '#######'  #'      '#     #####' # '####'        



                  #######################################################
                  #                        -***-                        #
                  #          Department of theory and spectroscopy      #
                  #    Directorship and core code : Frank Neese         #
                  #        Max Planck Institute fuer Kohlenforschung    #
                  #                Kaiser Wilhelm Platz 1               #
                  #                 D-45470 Muelheim/Ruhr               #
                  #                      Germany                        #
                  #                                                     #
                  #                  All rights reserved                #
                  #                        -***-                        #
                  #######################################################


                         Program Version 5.0.4 -  RELEASE  -


 With contributions from (in alphabetic order):
   Daniel Aravena         : Magnetic Suceptibility
   Michael Atanasov       : Ab Initio Ligand Field Theory (pilot matlab implementation)
   Alexander A. Auer      : GIAO ZORA, VPT2 properties, NMR spectrum
   Ute Becker             : Parallelization
   Giovanni Bistoni       : ED, misc. LED, open-shell LED, HFLD
   Martin Brehm           : Molecular dynamics
   Dmytro Bykov           : SCF Hessian
   Vijay G. Chilkuri      : MRCI spin determinant printing, contributions to CSF-ICE
   Dipayan Datta          : RHF DLPNO-CCSD density
   Achintya Kumar Dutta   : EOM-CC, STEOM-CC
   Dmitry Ganyushin       : Spin-Orbit,Spin-Spin,Magnetic field MRCI
   Miquel Garcia          : C-PCM and meta-GGA Hessian, CC/C-PCM, Gaussian charge scheme
   Yang Guo               : DLPNO-NEVPT2, F12-NEVPT2, CIM, IAO-localization
   Andreas Hansen         : Spin unrestricted coupled pair/coupled cluster methods
   Benjamin Helmich-Paris : MC-RPA, TRAH-SCF, COSX integrals
   Lee Huntington         : MR-EOM, pCC
   Robert Izsak           : Overlap fitted RIJCOSX, COSX-SCS-MP3, EOM
   Marcus Kettner         : VPT2
   Christian Kollmar      : KDIIS, OOCD, Brueckner-CCSD(T), CCSD density, CASPT2, CASPT2-K
   Simone Kossmann        : Meta GGA functionals, TD-DFT gradient, OOMP2, MP2 Hessian
   Martin Krupicka        : Initial AUTO-CI
   Lucas Lang             : DCDCAS
   Marvin Lechner         : AUTO-CI (C++ implementation), FIC-MRCC
   Dagmar Lenk            : GEPOL surface, SMD
   Dimitrios Liakos       : Extrapolation schemes; Compound Job, initial MDCI parallelization
   Dimitrios Manganas     : Further ROCIS development; embedding schemes
   Dimitrios Pantazis     : SARC Basis sets
   Anastasios Papadopoulos: AUTO-CI, single reference methods and gradients
   Taras Petrenko         : DFT Hessian,TD-DFT gradient, ASA, ECA, R-Raman, ABS, FL, XAS/XES, NRVS
   Peter Pinski           : DLPNO-MP2, DLPNO-MP2 Gradient
   Christoph Reimann      : Effective Core Potentials
   Marius Retegan         : Local ZFS, SOC
   Christoph Riplinger    : Optimizer, TS searches, QM/MM, DLPNO-CCSD(T), (RO)-DLPNO pert. Triples
   Tobias Risthaus        : Range-separated hybrids, TD-DFT gradient, RPA, STAB
   Michael Roemelt        : Original ROCIS implementation
   Masaaki Saitow         : Open-shell DLPNO-CCSD energy and density
   Barbara Sandhoefer     : DKH picture change effects
   Avijit Sen             : IP-ROCIS
   Kantharuban Sivalingam : CASSCF convergence, NEVPT2, FIC-MRCI
   Bernardo de Souza      : ESD, SOC TD-DFT
   Georgi Stoychev        : AutoAux, RI-MP2 NMR, DLPNO-MP2 response
   Willem Van den Heuvel  : Paramagnetic NMR
   Boris Wezisla          : Elementary symmetry handling
   Frank Wennmohs         : Technical directorship


 We gratefully acknowledge several colleagues who have allowed us to
 interface, adapt or use parts of their codes:
   Stefan Grimme, W. Hujo, H. Kruse, P. Pracht,  : VdW corrections, initial TS optimization,
                  C. Bannwarth, S. Ehlert          DFT functionals, gCP, sTDA/sTD-DF
   Ed Valeev, F. Pavosevic, A. Kumar             : LibInt (2-el integral package), F12 methods
   Garnet Chan, S. Sharma, J. Yang, R. Olivares  : DMRG
   Ulf Ekstrom                                   : XCFun DFT Library
   Mihaly Kallay                                 : mrcc  (arbitrary order and MRCC methods)
   Jiri Pittner, Ondrej Demel                    : Mk-CCSD
   Frank Weinhold                                : gennbo (NPA and NBO analysis)
   Christopher J. Cramer and Donald G. Truhlar   : smd solvation model
   Lars Goerigk                                  : TD-DFT with DH, B97 family of functionals
   V. Asgeirsson, H. Jonsson                     : NEB implementation
   FAccTs GmbH                                   : IRC, NEB, NEB-TS, DLPNO-Multilevel, CI-OPT
                                                   MM, QMMM, 2- and 3-layer-ONIOM, Crystal-QMMM,
                                                   LR-CPCM, SF, NACMEs, symmetry and pop. for TD-DFT,
                                                   nearIR, NL-DFT gradient (VV10), updates on ESD,
                                                   ML-optimized integration grids
   S Lehtola, MJT Oliveira, MAL Marques          : LibXC Library
   Liviu Ungur et al                             : ANISO software


 Your calculation uses the libint2 library for the computation of 2-el integrals
 For citations please refer to: http://libint.valeyev.net

 Your ORCA version has been built with support for libXC version: 5.1.0
 For citations please refer to: https://tddft.org/programs/libxc/

 This ORCA versions uses:
   CBLAS   interface :  Fast vector & matrix operations
   LAPACKE interface :  Fast linear algebra routines
   SCALAPACK package :  Parallel linear algebra routines
   Shared memory     :  Shared parallel matrices
   BLAS/LAPACK       :  OpenBLAS 0.3.15  USE64BITINT DYNAMIC_ARCH NO_AFFINITY SkylakeX SINGLE_THREADED
        Core in use  :  SkylakeX
   Copyright (c) 2011-2014, The OpenBLAS Project


Your calculation utilizes the atom-pairwise dispersion correction
based on tight binding partial charges (D4)
Cite in your paper:
E.Caldeweyher, C.Bannwarth, S.Grimme, J.Chem.Phys., (2017), 147, 034112.
E.Caldeweyher, S.Ehlert, A.Hansen, H.Neugebauer, S.Grimme, J.Chem.Phys., (2018), in progress.
   

XCFun DFT library Copyright 2009-2010 Ulf Ekstrom and contributors.
See http://admol.org/xcfun for more information.
This is free software; see the source code for copying conditions.
There is ABSOLUTELY NO WARRANTY; not even for MERCHANTABILITY or FITNESS FOR A PARTICULAR PURPOSE.
For details see the documentation.
Scientific users of this library should cite U. Ekstrom, L. Visscher, R. Bast, A. J. Thorvaldsen and K. Ruud;
J.Chem.Theor.Comp. 2010, DOI: 10.1021/ct100117s
XCFun Version 0.99 

================================================================================

----- Orbital basis set information -----
Your calculation utilizes the basis: def2-SVP
   F. Weigend and R. Ahlrichs, Phys. Chem. Chem. Phys. 7, 3297 (2005).

----- AuxJ basis set information -----
Your calculation utilizes the auxiliary basis: def2/J
   F. Weigend, Phys. Chem. Chem. Phys. 8, 1057 (2006).

================================================================================
                                        WARNINGS
                       Please study these warnings very carefully!
================================================================================


INFO   : the flag for use of the SHARK integral package has been found!

================================================================================
                                       INPUT FILE
================================================================================
NAME = DFT_water_outs/10+-gasSP.inp
|  1> ! SP wB97X D4 def2-SVP def2/J defgrid2 
|  2> %maxcore 3000
|  3> %PAL NPROCS 4 END
|  4> * xyz 1 1
|  5> C -0.0677 1.1124 1.2485
|  6> C -0.0689 -0.9596 0.0
|  7> C -0.0677 1.1124 -1.2485
|  8> C 0.5619 1.7061 -0.0
|  9> H -1.1058 1.4602 1.3831
| 10> H -0.0717 -2.0544 -0.0
| 11> H 0.5011 1.3925 -2.1464
| 12> H 1.6445 1.5017 -0.0
| 13> N -0.0686 -0.349 1.1641
| 14> N -0.0686 -0.349 -1.1641
| 15> H -1.1058 1.4602 -1.3831
| 16> H 0.4288 2.7964 0.0
| 17> H 0.5011 1.3925 2.1464
| 18> C -0.1092 -1.0993 2.4104
| 19> H -0.1443 -2.175 2.1967
| 20> H 0.7858 -0.8755 3.0091
| 21> H -1.0042 -0.816 2.9838
| 22> C -0.1092 -1.0993 -2.4104
| 23> H 0.7858 -0.8755 -3.0091
| 24> H -0.1443 -2.175 -2.1967
| 25> H -1.0042 -0.816 -2.9838
| 26> **                         ****END OF INPUT****
================================================================================

                       ****************************
                       * Single Point Calculation *
                       ****************************

---------------------------------
CARTESIAN COORDINATES (ANGSTROEM)
---------------------------------
  C     -0.067700    1.112400    1.248500
  C     -0.068900   -0.959600    0.000000
  C     -0.067700    1.112400   -1.248500
  C      0.561900    1.706100   -0.000000
  H     -1.105800    1.460200    1.383100
  H     -0.071700   -2.054400   -0.000000
  H      0.501100    1.392500   -2.146400
  H      1.644500    1.501700   -0.000000
  N     -0.068600   -0.349000    1.164100
  N     -0.068600   -0.349000   -1.164100
  H     -1.105800    1.460200   -1.383100
  H      0.428800    2.796400    0.000000
  H      0.501100    1.392500    2.146400
  C     -0.109200   -1.099300    2.410400
  H     -0.144300   -2.175000    2.196700
  H      0.785800   -0.875500    3.009100
  H     -1.004200   -0.816000    2.983800
  C     -0.109200   -1.099300   -2.410400
  H      0.785800   -0.875500   -3.009100
  H     -0.144300   -2.175000   -2.196700
  H     -1.004200   -0.816000   -2.983800

----------------------------
CARTESIAN COORDINATES (A.U.)
----------------------------
  NO LB      ZA    FRAG     MASS         X           Y           Z
   0 C     6.0000    0    12.011   -0.127934    2.102131    2.359323
   1 C     6.0000    0    12.011   -0.130202   -1.813381    0.000000
   2 C     6.0000    0    12.011   -0.127934    2.102131   -2.359323
   3 C     6.0000    0    12.011    1.061837    3.224062   -0.000000
   4 H     1.0000    0     1.008   -2.089659    2.759378    2.613680
   5 H     1.0000    0     1.008   -0.135493   -3.882253   -0.000000
   6 H     1.0000    0     1.008    0.946942    2.631444   -4.056108
   7 H     1.0000    0     1.008    3.107655    2.837802   -0.000000
   8 N     7.0000    0    14.007   -0.129635   -0.659514    2.199830
   9 N     7.0000    0    14.007   -0.129635   -0.659514   -2.199830
  10 H     1.0000    0     1.008   -2.089659    2.759378   -2.613680
  11 H     1.0000    0     1.008    0.810315    5.284430    0.000000
  12 H     1.0000    0     1.008    0.946942    2.631444    4.056108
  13 C     6.0000    0    12.011   -0.206358   -2.077376    4.554996
  14 H     1.0000    0     1.008   -0.272687   -4.110154    4.151161
  15 H     1.0000    0     1.008    1.484947   -1.654455    5.686375
  16 H     1.0000    0     1.008   -1.897663   -1.542017    5.638565
  17 C     6.0000    0    12.011   -0.206358   -2.077376   -4.554996
  18 H     1.0000    0     1.008    1.484947   -1.654455   -5.686375
  19 H     1.0000    0     1.008   -0.272687   -4.110154   -4.151161
  20 H     1.0000    0     1.008   -1.897663   -1.542017   -5.638565

--------------------------------
INTERNAL COORDINATES (ANGSTROEM)
--------------------------------
 C      0   0   0     0.000000000000     0.00000000     0.00000000
 C      1   0   0     2.419077859433     0.00000000     0.00000000
 C      2   1   0     2.419077859433    62.14278745     0.00000000
 C      1   2   3     1.519087917140    84.88149280   335.42454426
 H      1   2   3     1.103056485408   109.42531666    86.47813155
 H      2   1   3     1.094803580557   148.92842019   180.21963118
 H      3   2   1     1.099187818346   129.80035988   137.67341612
 H      4   1   2     1.101726880856   109.55764102   277.87271003
 N      2   1   3     1.314519402672    31.25045272   180.00450583
 N      2   1   3     1.314519402672    93.39324009     0.00000000
 H      3   2   1     1.103056485408   109.42531666   273.52186845
 H      4   1   2     1.098394146015   109.73825060   159.88043747
 H      1   2   3     1.099187818346   129.80035988   222.32658388
 C      9   2   1     1.455287648542   121.25901212   178.15505721
 H     14   9   2     1.097283094739   109.84846006   359.61384096
 H     14   9   2     1.099796858515   109.79043469   119.91175809
 H     14   9   2     1.100032476793   109.65293889   239.66947932
 C     10   2   1     1.455287648542   121.25901212   181.84893346
 H     18  10   2     1.099796858515   109.79043469   240.08824191
 H     18  10   2     1.097283094739   109.84846006     0.38615904
 H     18  10   2     1.100032476793   109.65293889   120.33052068

---------------------------
INTERNAL COORDINATES (A.U.)
---------------------------
 C      0   0   0     0.000000000000     0.00000000     0.00000000
 C      1   0   0     4.571394650961     0.00000000     0.00000000
 C      2   1   0     4.571394650961    62.14278745     0.00000000
 C      1   2   3     2.870660136743    84.88149280   335.42454426
 H      1   2   3     2.084474667666   109.42531666    86.47813155
 H      2   1   3     2.068878937689   148.92842019   180.21963118
 H      3   2   1     2.077163946416   129.80035988   137.67341612
 H      4   1   2     2.081962079197   109.55764102   277.87271003
 N      2   1   3     2.484081668775    31.25045272   180.00450583
 N      2   1   3     2.484081668775    93.39324009     0.00000000
 H      3   2   1     2.084474667666   109.42531666   273.52186845
 H      4   1   2     2.075664123071   109.73825060   159.88043747
 H      1   2   3     2.077163946416   129.80035988   222.32658388
 C      9   2   1     2.750095101823   121.25901212   178.15505721
 H     14   9   2     2.073564540438   109.84846006   359.61384096
 H     14   9   2     2.078314865541   109.79043469   119.91175809
 H     14   9   2     2.078760119558   109.65293889   239.66947932
 C     10   2   1     2.750095101823   121.25901212   181.84893346
 H     18  10   2     2.078314865541   109.79043469   240.08824191
 H     18  10   2     2.073564540438   109.84846006     0.38615904
 H     18  10   2     2.078760119558   109.65293889   120.33052068

---------------------
BASIS SET INFORMATION
---------------------
There are 3 groups of distinct atoms

 Group   1 Type C   : 7s4p1d contracted to 3s2p1d pattern {511/31/1}
 Group   2 Type H   : 4s1p contracted to 2s1p pattern {31/1}
 Group   3 Type N   : 7s4p1d contracted to 3s2p1d pattern {511/31/1}

Atom   0C    basis set group =>   1
Atom   1C    basis set group =>   1
Atom   2C    basis set group =>   1
Atom   3C    basis set group =>   1
Atom   4H    basis set group =>   2
Atom   5H    basis set group =>   2
Atom   6H    basis set group =>   2
Atom   7H    basis set group =>   2
Atom   8N    basis set group =>   3
Atom   9N    basis set group =>   3
Atom  10H    basis set group =>   2
Atom  11H    basis set group =>   2
Atom  12H    basis set group =>   2
Atom  13C    basis set group =>   1
Atom  14H    basis set group =>   2
Atom  15H    basis set group =>   2
Atom  16H    basis set group =>   2
Atom  17C    basis set group =>   1
Atom  18H    basis set group =>   2
Atom  19H    basis set group =>   2
Atom  20H    basis set group =>   2
---------------------------------
AUXILIARY/J BASIS SET INFORMATION
---------------------------------
There are 3 groups of distinct atoms

 Group   1 Type C   : 12s5p4d2f1g contracted to 6s4p3d1f1g pattern {711111/2111/211/2/1}
 Group   2 Type H   : 5s2p1d contracted to 3s1p1d pattern {311/2/1}
 Group   3 Type N   : 12s5p4d2f1g contracted to 6s4p3d1f1g pattern {711111/2111/211/2/1}

Atom   0C    basis set group =>   1
Atom   1C    basis set group =>   1
Atom   2C    basis set group =>   1
Atom   3C    basis set group =>   1
Atom   4H    basis set group =>   2
Atom   5H    basis set group =>   2
Atom   6H    basis set group =>   2
Atom   7H    basis set group =>   2
Atom   8N    basis set group =>   3
Atom   9N    basis set group =>   3
Atom  10H    basis set group =>   2
Atom  11H    basis set group =>   2
Atom  12H    basis set group =>   2
Atom  13C    basis set group =>   1
Atom  14H    basis set group =>   2
Atom  15H    basis set group =>   2
Atom  16H    basis set group =>   2
Atom  17C    basis set group =>   1
Atom  18H    basis set group =>   2
Atom  19H    basis set group =>   2
Atom  20H    basis set group =>   2


           ************************************************************
           *        Program running with 4 parallel MPI-processes     *
           *              working on a common directory               *
           ************************************************************
------------------------------------------------------------------------------
                           ORCA GTO INTEGRAL CALCULATION
                           -- RI-GTO INTEGRALS CHOSEN --
------------------------------------------------------------------------------
------------------------------------------------------------------------------
                   ___                                                        
                  /   \      - P O W E R E D   B Y -                         
                 /     \                                                     
                 |  |  |   _    _      __       _____    __    __             
                 |  |  |  | |  | |    /  \     |  _  \  |  |  /  |          
                  \  \/   | |  | |   /    \    | | | |  |  | /  /          
                 / \  \   | |__| |  /  /\  \   | |_| |  |  |/  /          
                |  |  |   |  __  | /  /__\  \  |    /   |      \           
                |  |  |   | |  | | |   __   |  |    \   |  |\   \          
                \     /   | |  | | |  |  |  |  | |\  \  |  | \   \       
                 \___/    |_|  |_| |__|  |__|  |_| \__\ |__|  \__/        
                                                                              
                      - O R C A' S   B I G   F R I E N D -                    
                                      &                                       
                       - I N T E G R A L  F E E D E R -                       
                                                                              
 v1 FN, 2020, v2 2021                                                         
------------------------------------------------------------------------------


Reading SHARK input file DFT_water_outs/10+-gasSP.SHARKINP.tmp ... ok
----------------------
SHARK INTEGRAL PACKAGE
----------------------

Number of atoms                             ...     21
Number of basis functions                   ...    177
Number of shells                            ...     87
Maximum angular momentum                    ...      2
Integral batch strategy                     ... SHARK/LIBINT Hybrid
RI-J (if used) integral strategy            ... SPLIT-RIJ (Revised 2003 algorithm where possible)
Printlevel                                  ...      1
Contraction scheme used                     ... SEGMENTED contraction
Coulomb Range Separation                    ... NOT USED
Exchange Range Separation                   ... Long Range
   Mu parameter                             ...  0.300000
   Scaling (regular/separated)              ...  0.157706  0.842294
Finite Nucleus Model                        ... NOT USED
Auxiliary Coulomb fitting basis             ... AVAILABLE
   # of basis functions in Aux-J            ...    535
   # of shells in Aux-J                     ...    185
   Maximum angular momentum in Aux-J        ...      4
Auxiliary J/K fitting basis                 ... NOT available
Auxiliary Correlation fitting basis         ... NOT available
Auxiliary 'external' fitting basis          ... NOT available
Integral threshold                          ...     1.000000e-10
Primitive cut-off                           ...     1.000000e-11
Primitive pair pre-selection threshold      ...     1.000000e-11

Calculating pre-screening integrals         ... done (  0.0 sec) Dimension = 87
Organizing shell pair data                  ... done (  0.0 sec)
Shell pair information
Total number of shell pairs                 ...      3828
Shell pairs after pre-screening             ...      3598
Total number of primitive shell pairs       ...     13184
Primitive shell pairs kept                  ...      9145
          la=0 lb=0:   1217 shell pairs
          la=1 lb=0:   1352 shell pairs
          la=1 lb=1:    398 shell pairs
          la=2 lb=0:    380 shell pairs
          la=2 lb=1:    216 shell pairs
          la=2 lb=2:     35 shell pairs

Calculating one electron integrals          ... done (  0.0 sec)
Calculating RI/J V-Matrix + Cholesky decomp.... done (  0.0 sec)
Calculating Nuclear repulsion               ... done (  0.0 sec) ENN=    409.210799009958 Eh

SHARK setup successfully completed in   0.2 seconds

Maximum memory used throughout the entire GTOINT-calculation: 12.2 MB


           ************************************************************
           *        Program running with 4 parallel MPI-processes     *
           *              working on a common directory               *
           ************************************************************
-------------------------------------------------------------------------------
                                 ORCA SCF
-------------------------------------------------------------------------------

------------
SCF SETTINGS
------------
Hamiltonian:
 Density Functional     Method          .... DFT(GTOs)
 Exchange Functional    Exchange        .... WB97X
 Correlation Functional Correlation     .... WB97X
 Gradients option       PostSCFGGA      .... off
 Hybrid DFT is turned on
   Fraction HF Exchange ScalHFX         ....  0.157706
   Scaling of DF-GGA-X  ScalDFX         ....  0.000000
   Scaling of DF-GGA-C  ScalDFC         ....  1.000000
   Scaling of DF-LDA-C  ScalLDAC        ....  1.000000
   Perturbative correction              ....  0.000000
   Density functional embedding theory  .... OFF
 Long-range corrected/Screened/Range-Separated Hybrid DFT is turned on
   Amount of maximum screened exact exchange              ....  0.842294
   Range separation parameter mu (erf(mu*r12)/r12)        ....  0.300000
 RI-approximation to the Coulomb term is turned on
   Number of AuxJ basis functions       .... 535
   RIJ-COSX (HFX calculated with COS-X)).... on


General Settings:
 Integral files         IntName         .... DFT_water_outs/10+-gasSP
 Hartree-Fock type      HFTyp           .... RHF
 Total Charge           Charge          ....    1
 Multiplicity           Mult            ....    1
 Number of Electrons    NEL             ....   62
 Basis Dimension        Dim             ....  177
 Nuclear Repulsion      ENuc            ....    409.2107990100 Eh

Convergence Acceleration:
 DIIS                   CNVDIIS         .... on
   Start iteration      DIISMaxIt       ....    12
   Startup error        DIISStart       ....  0.200000
   # of expansion vecs  DIISMaxEq       ....     5
   Bias factor          DIISBfac        ....   1.050
   Max. coefficient     DIISMaxC        ....  10.000
 Trust-Rad. Augm. Hess. CNVTRAH         .... auto
   Auto Start mean grad. ratio tolernc. ....  1.125000
   Auto Start start iteration           ....    20
   Auto Start num. interpolation iter.  ....    10
   Max. Number of Micro iterations      ....    16
   Max. Number of Macro iterations      .... Maxiter - #DIIS iter
   Number of Davidson start vectors     ....     2
   Converg. threshold I  (grad. norm)   ....   5.000e-05
   Converg. threshold II (energy diff.) ....   1.000e-06
   Grad. Scal. Fac. for Micro threshold ....   0.100
   Minimum threshold for Micro iter.    ....   0.010
   NR start threshold (gradient norm)   ....   0.001
   Initial trust radius                 ....   0.400
   Minimum AH scaling param. (alpha)    ....   1.000
   Maximum AH scaling param. (alpha)    .... 1000.000
   Orbital update algorithm             .... Taylor
   White noise on init. David. guess    .... on
   Maximum white noise                  ....   0.010
   Quad. conv. algorithm                .... NR
 SOSCF                  CNVSOSCF        .... on
   Start iteration      SOSCFMaxIt      ....   150
   Startup grad/error   SOSCFStart      ....  0.003300
 Level Shifting         CNVShift        .... on
   Level shift para.    LevelShift      ....    0.2500
   Turn off err/grad.   ShiftErr        ....    0.0010
 Zerner damping         CNVZerner       .... off
 Static damping         CNVDamp         .... on
   Fraction old density DampFac         ....    0.7000
   Max. Damping (<1)    DampMax         ....    0.9800
   Min. Damping (>=0)   DampMin         ....    0.0000
   Turn off err/grad.   DampErr         ....    0.1000
 Fernandez-Rico         CNVRico         .... off

SCF Procedure:
 Maximum # iterations   MaxIter         ....   125
 SCF integral mode      SCFMode         .... Direct
   Integral package                     .... SHARK and LIBINT hybrid scheme
 Reset frequency        DirectResetFreq ....    20
 Integral Threshold     Thresh          ....  1.000e-10 Eh
 Primitive CutOff       TCut            ....  1.000e-11 Eh

Convergence Tolerance:
 Convergence Check Mode ConvCheckMode   .... Total+1el-Energy
 Convergence forced     ConvForced      .... 0
 Energy Change          TolE            ....  1.000e-06 Eh
 1-El. energy change                    ....  1.000e-03 Eh
 Orbital Gradient       TolG            ....  5.000e-05
 Orbital Rotation angle TolX            ....  5.000e-05
 DIIS Error             TolErr          ....  1.000e-06


Diagonalization of the overlap matrix:
Smallest eigenvalue                        ... 2.073e-03
Time for diagonalization                   ...    0.008 sec
Threshold for overlap eigenvalues          ... 1.000e-08
Number of eigenvalues below threshold      ... 0
Time for construction of square roots      ...    0.005 sec
Total time needed                          ...    0.013 sec

Time for model grid setup =    0.120 sec

------------------------------
INITIAL GUESS: MODEL POTENTIAL
------------------------------
Loading Hartree-Fock densities                     ... done
Calculating cut-offs                               ... done
Initializing the effective Hamiltonian             ... done
Setting up the integral package (SHARK)            ... done
Starting the Coulomb interaction                   ... done (   0.1 sec)
Reading the grid                                   ... done
Mapping shells                                     ... done
Starting the XC term evaluation                    ... done (   0.1 sec)
  promolecular density results
     # of electrons  =     62.996984728
     EX              =    -47.678174186
     EC              =     -2.090593620
     EX+EC           =    -49.768767807
Transforming the Hamiltonian                       ... done (   0.0 sec)
Diagonalizing the Hamiltonian                      ... done (   0.0 sec)
Back transforming the eigenvectors                 ... done (   0.0 sec)
Now organizing SCF variables                       ... done
                      ------------------
                      INITIAL GUESS DONE (   0.3 sec)
                      ------------------
-------------------
DFT GRID GENERATION
-------------------

General Integration Accuracy     IntAcc      ... 4.388
Radial Grid Type                 RadialGrid  ... OptM3 with GC (2021)
Angular Grid (max. ang.)         AngularGrid ... 4 (Lebedev-302)
Angular grid pruning method      GridPruning ... 4 (adaptive)
Weight generation scheme         WeightScheme... Becke
Basis function cutoff            BFCut       ... 1.0000e-10
Integration weight cutoff        WCut        ... 1.0000e-14
Angular grids for H and He will be reduced by one unit
Partially contracted basis set               ... off
Rotationally invariant grid construction     ... off

Total number of grid points                  ...    89498
Total number of batches                      ...     1409
Average number of points per batch           ...       63
Average number of grid points per atom       ...     4262
Time for grid setup =    0.534 sec

--------------------
COSX GRID GENERATION
--------------------

GRIDX 1
-------
General Integration Accuracy     IntAcc      ... 3.816
Radial Grid Type                 RadialGrid  ... OptM3 with GC (2021)
Angular Grid (max. ang.)         AngularGrid ... 1 (Lebedev-50)
Angular grid pruning method      GridPruning ... 4 (adaptive)
Weight generation scheme         WeightScheme... Becke
Basis function cutoff            BFCut       ... 1.0000e-10
Integration weight cutoff        WCut        ... 1.0000e-14
Angular grids for H and He will be reduced by one unit
Partially contracted basis set               ... on
Rotationally invariant grid construction     ... off

Total number of grid points                  ...    11510
Total number of batches                      ...      192
Average number of points per batch           ...       59
Average number of grid points per atom       ...      548
UseSFitting                                  ... on

GRIDX 2
-------
General Integration Accuracy     IntAcc      ... 4.020
Radial Grid Type                 RadialGrid  ... OptM3 with GC (2021)
Angular Grid (max. ang.)         AngularGrid ... 2 (Lebedev-110)
Angular grid pruning method      GridPruning ... 4 (adaptive)
Weight generation scheme         WeightScheme... Becke
Basis function cutoff            BFCut       ... 1.0000e-10
Integration weight cutoff        WCut        ... 1.0000e-14
Angular grids for H and He will be reduced by one unit
Partially contracted basis set               ... on
Rotationally invariant grid construction     ... off

Total number of grid points                  ...    24032
Total number of batches                      ...      385
Average number of points per batch           ...       62
Average number of grid points per atom       ...     1144
UseSFitting                                  ... on

GRIDX 3
-------
General Integration Accuracy     IntAcc      ... 4.338
Radial Grid Type                 RadialGrid  ... OptM3 with GC (2021)
Angular Grid (max. ang.)         AngularGrid ... 3 (Lebedev-194)
Angular grid pruning method      GridPruning ... 4 (adaptive)
Weight generation scheme         WeightScheme... Becke
Basis function cutoff            BFCut       ... 1.0000e-10
Integration weight cutoff        WCut        ... 1.0000e-14
Angular grids for H and He will be reduced by one unit
Partially contracted basis set               ... on
Rotationally invariant grid construction     ... off

Total number of grid points                  ...    52505
Total number of batches                      ...      831
Average number of points per batch           ...       63
Average number of grid points per atom       ...     2500
UseSFitting                                  ... on

Time for X-Grid setup             =    0.603 sec

--------------
SCF ITERATIONS
--------------
ITER       Energy         Delta-E        Max-DP      RMS-DP      [F,P]     Damp
               ***  Starting incremental Fock matrix formation  ***
  0   -345.3171132836   0.000000000000 0.05474008  0.00130178  0.1064161 0.7000
  1   -345.3585172871  -0.041404003536 0.03802607  0.00094918  0.0656723 0.7000
                               ***Turning on DIIS***
  2   -345.3814272978  -0.022910010694 0.07105466  0.00195637  0.0359318 0.0000
  3   -345.4211852733  -0.039757975510 0.02457045  0.00055075  0.0251965 0.0000
                      *** Initiating the SOSCF procedure ***
                           *** Shutting down DIIS ***
                      *** Re-Reading the Fockian *** 
                      *** Removing any level shift *** 
ITER      Energy       Delta-E        Grad      Rot      Max-DP    RMS-DP
  4   -345.42551878  -0.0043335064  0.001110  0.001110  0.004533  0.000097
               *** Restarting incremental Fock matrix formation ***
  5   -345.42562545  -0.0001066667  0.000796  0.001566  0.002411  0.000058
  6   -345.42563569  -0.0000102480  0.000501  0.000454  0.000970  0.000024
  7   -345.42564157  -0.0000058733  0.000038  0.000082  0.000101  0.000004
                 **** Energy Check signals convergence ****
              ***Rediagonalizing the Fockian in SOSCF/NRSCF***

               *****************************************************
               *                     SUCCESS                       *
               *           SCF CONVERGED AFTER   8 CYCLES          *
               *****************************************************

Old exchange energy                            =    -15.846682684 Eh
New exchange energy                            =    -15.846626103 Eh
Exchange energy change after final integration =      0.000056581 Eh
Total energy after final integration           =   -345.425585050 Eh
Final COS-X integration done in                =     7.556 sec

----------------
TOTAL SCF ENERGY
----------------

Total Energy       :         -345.42558505 Eh           -9399.50803 eV

Components:
Nuclear Repulsion  :          409.21079901 Eh           11135.19194 eV
Electronic Energy  :         -754.63638406 Eh          -20534.69997 eV
One Electron Energy:        -1264.18941897 Eh          -34400.34297 eV
Two Electron Energy:          509.55303491 Eh           13865.64300 eV
Max COSX asymmetry :            0.00000202 Eh               0.00006 eV

Virial components:
Potential Energy   :         -686.71335105 Eh          -18686.42028 eV
Kinetic Energy     :          341.28776600 Eh            9286.91225 eV
Virial Ratio       :            2.01212414


DFT components:
N(Alpha)           :       31.000020639126 electrons
N(Beta)            :       31.000020639126 electrons
N(Total)           :       62.000041278252 electrons
E(XC)              :      -35.034898344927 Eh       
DFET-embed. en.    :        0.000000000000 Eh       

---------------
SCF CONVERGENCE
---------------

  Last Energy change         ...   -6.3612e-08  Tolerance :   1.0000e-06
  Last MAX-Density change    ...    2.2204e-15  Tolerance :   1.0000e-05
  Last RMS-Density change    ...    3.6757e-17  Tolerance :   1.0000e-06
  Last Orbital Gradient      ...    2.4080e-05  Tolerance :   5.0000e-05
  Last Orbital Rotation      ...    5.5885e-05  Tolerance :   5.0000e-05

             **** THE GBW FILE WAS UPDATED (DFT_water_outs/10+-gasSP.gbw) ****
             **** DENSITY DFT_water_outs/10+-gasSP.scfp WAS UPDATED ****
             **** ENERGY FILE WAS UPDATED (DFT_water_outs/10+-gasSP.en.tmp) ****
             **** THE GBW FILE WAS UPDATED (DFT_water_outs/10+-gasSP.gbw) ****
             **** DENSITY DFT_water_outs/10+-gasSP.scfp WAS UPDATED ****
----------------
ORBITAL ENERGIES
----------------

  NO   OCC          E(Eh)            E(eV) 
   0   2.0000     -14.638026      -398.3209 
   1   2.0000     -14.638024      -398.3209 
   2   2.0000     -10.556477      -287.2563 
   3   2.0000     -10.477481      -285.1068 
   4   2.0000     -10.477467      -285.1064 
   5   2.0000     -10.470027      -284.9039 
   6   2.0000     -10.470014      -284.9036 
   7   2.0000     -10.439330      -284.0686 
   8   2.0000      -1.320710       -35.9384 
   9   2.0000      -1.242622       -33.8135 
  10   2.0000      -1.099979       -29.9320 
  11   2.0000      -1.042576       -28.3699 
  12   2.0000      -1.009361       -27.4661 
  13   2.0000      -0.958633       -26.0857 
  14   2.0000      -0.945144       -25.7187 
  15   2.0000      -0.837101       -22.7787 
  16   2.0000      -0.811975       -22.0950 
  17   2.0000      -0.805058       -21.9068 
  18   2.0000      -0.778443       -21.1825 
  19   2.0000      -0.746343       -20.3090 
  20   2.0000      -0.730707       -19.8835 
  21   2.0000      -0.721313       -19.6279 
  22   2.0000      -0.717528       -19.5249 
  23   2.0000      -0.682552       -18.5732 
  24   2.0000      -0.677035       -18.4231 
  25   2.0000      -0.668354       -18.1868 
  26   2.0000      -0.646150       -17.5826 
  27   2.0000      -0.628177       -17.0936 
  28   2.0000      -0.620528       -16.8854 
  29   2.0000      -0.604011       -16.4360 
  30   2.0000      -0.511603       -13.9214 
  31   0.0000      -0.094799        -2.5796 
  32   0.0000      -0.019446        -0.5291 
  33   0.0000       0.007850         0.2136 
  34   0.0000       0.014281         0.3886 
  35   0.0000       0.038791         1.0556 
  36   0.0000       0.044778         1.2185 
  37   0.0000       0.054580         1.4852 
  38   0.0000       0.066756         1.8165 
  39   0.0000       0.070668         1.9230 
  40   0.0000       0.075229         2.0471 
  41   0.0000       0.091442         2.4883 
  42   0.0000       0.094020         2.5584 
  43   0.0000       0.096285         2.6200 
  44   0.0000       0.103625         2.8198 
  45   0.0000       0.105501         2.8708 
  46   0.0000       0.107971         2.9380 
  47   0.0000       0.160312         4.3623 
  48   0.0000       0.161252         4.3879 
  49   0.0000       0.168606         4.5880 
  50   0.0000       0.181895         4.9496 
  51   0.0000       0.214802         5.8451 
  52   0.0000       0.256405         6.9771 
  53   0.0000       0.308763         8.4019 
  54   0.0000       0.331157         9.0112 
  55   0.0000       0.355603         9.6765 
  56   0.0000       0.356076         9.6893 
  57   0.0000       0.380995        10.3674 
  58   0.0000       0.392763        10.6876 
  59   0.0000       0.409974        11.1560 
  60   0.0000       0.424941        11.5632 
  61   0.0000       0.464511        12.6400 
  62   0.0000       0.480828        13.0840 
  63   0.0000       0.493752        13.4357 
  64   0.0000       0.537546        14.6274 
  65   0.0000       0.539471        14.6798 
  66   0.0000       0.549577        14.9548 
  67   0.0000       0.550937        14.9918 
  68   0.0000       0.578396        15.7389 
  69   0.0000       0.579289        15.7632 
  70   0.0000       0.589919        16.0525 
  71   0.0000       0.590880        16.0787 
  72   0.0000       0.615671        16.7533 
  73   0.0000       0.616320        16.7709 
  74   0.0000       0.624780        17.0011 
  75   0.0000       0.630330        17.1521 
  76   0.0000       0.633222        17.2309 
  77   0.0000       0.634536        17.2666 
  78   0.0000       0.636286        17.3142 
  79   0.0000       0.639218        17.3940 
  80   0.0000       0.644639        17.5415 
  81   0.0000       0.648158        17.6373 
  82   0.0000       0.651441        17.7266 
  83   0.0000       0.666990        18.1497 
  84   0.0000       0.698823        19.0160 
  85   0.0000       0.749877        20.4052 
  86   0.0000       0.796490        21.6736 
  87   0.0000       0.817003        22.2318 
  88   0.0000       0.871206        23.7067 
  89   0.0000       0.889940        24.2165 
  90   0.0000       0.913086        24.8463 
  91   0.0000       0.946068        25.7438 
  92   0.0000       1.020053        27.7570 
  93   0.0000       1.057234        28.7688 
  94   0.0000       1.096530        29.8381 
  95   0.0000       1.128957        30.7205 
  96   0.0000       1.141038        31.0492 
  97   0.0000       1.150884        31.3171 
  98   0.0000       1.191885        32.4328 
  99   0.0000       1.229436        33.4547 
 100   0.0000       1.236037        33.6343 
 101   0.0000       1.236344        33.6426 
 102   0.0000       1.323651        36.0184 
 103   0.0000       1.355284        36.8792 
 104   0.0000       1.413193        38.4549 
 105   0.0000       1.438334        39.1390 
 106   0.0000       1.470678        40.0192 
 107   0.0000       1.478332        40.2275 
 108   0.0000       1.503539        40.9134 
 109   0.0000       1.510851        41.1123 
 110   0.0000       1.583563        43.0909 
 111   0.0000       1.586394        43.1680 
 112   0.0000       1.648292        44.8523 
 113   0.0000       1.671672        45.4885 
 114   0.0000       1.689264        45.9672 
 115   0.0000       1.699340        46.2414 
 116   0.0000       1.704977        46.3948 
 117   0.0000       1.723502        46.8989 
 118   0.0000       1.732656        47.1480 
 119   0.0000       1.736769        47.2599 
 120   0.0000       1.748431        47.5772 
 121   0.0000       1.761852        47.9424 
 122   0.0000       1.762850        47.9696 
 123   0.0000       1.773345        48.2552 
 124   0.0000       1.783057        48.5195 
 125   0.0000       1.800666        48.9986 
 126   0.0000       1.816414        49.4271 
 127   0.0000       1.821869        49.5756 
 128   0.0000       1.824344        49.6429 
 129   0.0000       1.836471        49.9729 
 130   0.0000       1.850012        50.3414 
 131   0.0000       1.889303        51.4106 
 132   0.0000       1.919719        52.2382 
 133   0.0000       1.922690        52.3191 
 134   0.0000       1.956490        53.2388 
 135   0.0000       1.991935        54.2033 
 136   0.0000       2.001061        54.4516 
 137   0.0000       2.003150        54.5085 
 138   0.0000       2.052516        55.8518 
 139   0.0000       2.092042        56.9273 
 140   0.0000       2.119743        57.6811 
 141   0.0000       2.130429        57.9719 
 142   0.0000       2.182404        59.3862 
 143   0.0000       2.208042        60.0839 
 144   0.0000       2.243503        61.0488 
 145   0.0000       2.257292        61.4240 
 146   0.0000       2.270107        61.7728 
 147   0.0000       2.342569        63.7446 
 148   0.0000       2.352346        64.0106 
 149   0.0000       2.358391        64.1751 
 150   0.0000       2.384905        64.8966 
 151   0.0000       2.431519        66.1650 
 152   0.0000       2.463675        67.0400 
 153   0.0000       2.524561        68.6968 
 154   0.0000       2.544969        69.2521 
 155   0.0000       2.561806        69.7103 
 156   0.0000       2.595017        70.6140 
 157   0.0000       2.608124        70.9707 
 158   0.0000       2.652262        72.1717 
 159   0.0000       2.678549        72.8870 
 160   0.0000       2.692177        73.2578 
 161   0.0000       2.712480        73.8103 
 162   0.0000       2.745526        74.7095 
 163   0.0000       2.818576        76.6974 
 164   0.0000       2.830305        77.0165 
 165   0.0000       2.847202        77.4763 
 166   0.0000       2.869964        78.0957 
 167   0.0000       2.883478        78.4634 
 168   0.0000       2.889415        78.6250 
 169   0.0000       2.902692        78.9863 
 170   0.0000       2.930649        79.7470 
 171   0.0000       2.962738        80.6202 
 172   0.0000       2.983747        81.1919 
 173   0.0000       3.034583        82.5752 
 174   0.0000       3.080628        83.8281 
 175   0.0000       3.261691        88.7551 
 176   0.0000       3.421480        93.1032 

                    ********************************
                    * MULLIKEN POPULATION ANALYSIS *
                    ********************************

-----------------------
MULLIKEN ATOMIC CHARGES
-----------------------
   0 C :    0.100802
   1 C :    0.239833
   2 C :    0.100803
   3 C :   -0.094916
   4 H :    0.087146
   5 H :    0.098925
   6 H :    0.085164
   7 H :    0.078436
   8 N :   -0.313636
   9 N :   -0.313637
  10 H :    0.087146
  11 H :    0.096256
  12 H :    0.085164
  13 C :    0.064125
  14 H :    0.079610
  15 H :    0.094603
  16 H :    0.092919
  17 C :    0.064125
  18 H :    0.094602
  19 H :    0.079611
  20 H :    0.092919
Sum of atomic charges:    1.0000000

--------------------------------
MULLIKEN REDUCED ORBITAL CHARGES
--------------------------------
  0 C s       :     3.016684  s :     3.016684
      pz      :     1.041817  p :     2.835532
      px      :     1.056172
      py      :     0.737544
      dz2     :     0.010236  d :     0.046982
      dxz     :     0.006596
      dyz     :     0.006247
      dx2y2   :     0.015113
      dxy     :     0.008790
  1 C s       :     3.065712  s :     3.065712
      pz      :     0.851806  p :     2.617775
      px      :     0.815917
      py      :     0.950052
      dz2     :     0.019804  d :     0.076680
      dxz     :     0.028024
      dyz     :     0.019379
      dx2y2   :     0.005282
      dxy     :     0.004191
  2 C s       :     3.016684  s :     3.016684
      pz      :     1.041817  p :     2.835531
      px      :     1.056171
      py      :     0.737543
      dz2     :     0.010236  d :     0.046982
      dxz     :     0.006596
      dyz     :     0.006247
      dx2y2   :     0.015113
      dxy     :     0.008790
  3 C s       :     3.066830  s :     3.066830
      pz      :     0.923399  p :     2.994287
      px      :     1.016832
      py      :     1.054056
      dz2     :     0.009214  d :     0.033799
      dxz     :     0.007576
      dyz     :     0.005530
      dx2y2   :     0.008319
      dxy     :     0.003160
  4 H s       :     0.890942  s :     0.890942
      pz      :     0.003956  p :     0.021912
      px      :     0.014391
      py      :     0.003565
  5 H s       :     0.879175  s :     0.879175
      pz      :     0.001337  p :     0.021900
      px      :     0.002975
      py      :     0.017588
  6 H s       :     0.892520  s :     0.892520
      pz      :     0.011511  p :     0.022315
      px      :     0.007555
      py      :     0.003249
  7 H s       :     0.899019  s :     0.899019
      pz      :     0.003251  p :     0.022546
      px      :     0.015023
      py      :     0.004271
  8 N s       :     3.411035  s :     3.411035
      pz      :     1.123799  p :     3.873263
      px      :     1.559501
      py      :     1.189963
      dz2     :     0.006897  d :     0.029338
      dxz     :     0.005554
      dyz     :     0.009126
      dx2y2   :     0.003828
      dxy     :     0.003933
  9 N s       :     3.411035  s :     3.411035
      pz      :     1.123800  p :     3.873264
      px      :     1.559501
      py      :     1.189963
      dz2     :     0.006897  d :     0.029338
      dxz     :     0.005554
      dyz     :     0.009126
      dx2y2   :     0.003828
      dxy     :     0.003933
 10 H s       :     0.890942  s :     0.890942
      pz      :     0.003956  p :     0.021912
      px      :     0.014391
      py      :     0.003565
 11 H s       :     0.880508  s :     0.880508
      pz      :     0.003482  p :     0.023237
      px      :     0.004252
      py      :     0.015503
 12 H s       :     0.892521  s :     0.892521
      pz      :     0.011512  p :     0.022315
      px      :     0.007555
      py      :     0.003249
 13 C s       :     3.036496  s :     3.036496
      pz      :     0.816641  p :     2.861421
      px      :     1.075479
      py      :     0.969301
      dz2     :     0.007742  d :     0.037958
      dxz     :     0.011006
      dyz     :     0.009618
      dx2y2   :     0.007104
      dxy     :     0.002488
 14 H s       :     0.896969  s :     0.896969
      pz      :     0.003119  p :     0.023421
      px      :     0.004870
      py      :     0.015431
 15 H s       :     0.882297  s :     0.882297
      pz      :     0.006713  p :     0.023101
      px      :     0.012184
      py      :     0.004204
 16 H s       :     0.883957  s :     0.883957
      pz      :     0.006418  p :     0.023123
      px      :     0.012247
      py      :     0.004458
 17 C s       :     3.036495  s :     3.036495
      pz      :     0.816641  p :     2.861421
      px      :     1.075479
      py      :     0.969301
      dz2     :     0.007742  d :     0.037958
      dxz     :     0.011006
      dyz     :     0.009618
      dx2y2   :     0.007104
      dxy     :     0.002488
 18 H s       :     0.882297  s :     0.882297
      pz      :     0.006713  p :     0.023101
      px      :     0.012184
      py      :     0.004204
 19 H s       :     0.896969  s :     0.896969
      pz      :     0.003119  p :     0.023421
      px      :     0.004870
      py      :     0.015431
 20 H s       :     0.883958  s :     0.883958
      pz      :     0.006418  p :     0.023123
      px      :     0.012247
      py      :     0.004458


                     *******************************
                     * LOEWDIN POPULATION ANALYSIS *
                     *******************************

----------------------
LOEWDIN ATOMIC CHARGES
----------------------
   0 C :    0.053792
   1 C :    0.160766
   2 C :    0.053792
   3 C :   -0.040328
   4 H :    0.045259
   5 H :    0.057702
   6 H :    0.051053
   7 H :    0.046800
   8 N :    0.013181
   9 N :    0.013181
  10 H :    0.045259
  11 H :    0.062416
  12 H :    0.051053
  13 C :    0.049837
  14 H :    0.045976
  15 H :    0.048146
  16 H :    0.049078
  17 C :    0.049837
  18 H :    0.048146
  19 H :    0.045976
  20 H :    0.049078

-------------------------------
LOEWDIN REDUCED ORBITAL CHARGES
-------------------------------
  0 C s       :     2.831522  s :     2.831522
      pz      :     1.064374  p :     3.002053
      px      :     1.087717
      py      :     0.849962
      dz2     :     0.024768  d :     0.112632
      dxz     :     0.016284
      dyz     :     0.014703
      dx2y2   :     0.035676
      dxy     :     0.021200
  1 C s       :     2.830654  s :     2.830654
      pz      :     0.958764  p :     2.827830
      px      :     0.837293
      py      :     1.031773
      dz2     :     0.053320  d :     0.180750
      dxz     :     0.057025
      dyz     :     0.050469
      dx2y2   :     0.012958
      dxy     :     0.006979
  2 C s       :     2.831522  s :     2.831522
      pz      :     1.064374  p :     3.002053
      px      :     1.087717
      py      :     0.849962
      dz2     :     0.024768  d :     0.112632
      dxz     :     0.016284
      dyz     :     0.014703
      dx2y2   :     0.035677
      dxy     :     0.021200
  3 C s       :     2.831927  s :     2.831927
      pz      :     1.000710  p :     3.122287
      px      :     1.057637
      py      :     1.063940
      dz2     :     0.023878  d :     0.086113
      dxz     :     0.018555
      dyz     :     0.014619
      dx2y2   :     0.022189
      dxy     :     0.006872
  4 H s       :     0.888640  s :     0.888640
      pz      :     0.013360  p :     0.066101
      px      :     0.040277
      py      :     0.012464
  5 H s       :     0.875234  s :     0.875234
      pz      :     0.007068  p :     0.067064
      px      :     0.009523
      py      :     0.050474
  6 H s       :     0.882892  s :     0.882892
      pz      :     0.033883  p :     0.066055
      px      :     0.021468
      py      :     0.010703
  7 H s       :     0.886291  s :     0.886291
      pz      :     0.011872  p :     0.066909
      px      :     0.041692
      py      :     0.013345
  8 N s       :     3.053781  s :     3.053781
      pz      :     1.179987  p :     3.866530
      px      :     1.489396
      py      :     1.197146
      dz2     :     0.018452  d :     0.066508
      dxz     :     0.009365
      dyz     :     0.023997
      dx2y2   :     0.007968
      dxy     :     0.006727
  9 N s       :     3.053781  s :     3.053781
      pz      :     1.179987  p :     3.866530
      px      :     1.489397
      py      :     1.197146
      dz2     :     0.018452  d :     0.066508
      dxz     :     0.009365
      dyz     :     0.023997
      dx2y2   :     0.007968
      dxy     :     0.006727
 10 H s       :     0.888640  s :     0.888640
      pz      :     0.013360  p :     0.066101
      px      :     0.040277
      py      :     0.012464
 11 H s       :     0.870318  s :     0.870318
      pz      :     0.011997  p :     0.067266
      px      :     0.012578
      py      :     0.042691
 12 H s       :     0.882892  s :     0.882892
      pz      :     0.033883  p :     0.066055
      px      :     0.021468
      py      :     0.010703
 13 C s       :     2.834381  s :     2.834381
      pz      :     0.904078  p :     3.020677
      px      :     1.097374
      py      :     1.019225
      dz2     :     0.018115  d :     0.095104
      dxz     :     0.029464
      dyz     :     0.023340
      dx2y2   :     0.019229
      dxy     :     0.004957
 14 H s       :     0.888468  s :     0.888468
      pz      :     0.009407  p :     0.065556
      px      :     0.013014
      py      :     0.043136
 15 H s       :     0.886306  s :     0.886306
      pz      :     0.019912  p :     0.065548
      px      :     0.033747
      py      :     0.011889
 16 H s       :     0.885296  s :     0.885296
      pz      :     0.019022  p :     0.065626
      px      :     0.033938
      py      :     0.012666
 17 C s       :     2.834381  s :     2.834381
      pz      :     0.904078  p :     3.020677
      px      :     1.097374
      py      :     1.019225
      dz2     :     0.018115  d :     0.095104
      dxz     :     0.029464
      dyz     :     0.023340
      dx2y2   :     0.019229
      dxy     :     0.004957
 18 H s       :     0.886306  s :     0.886306
      pz      :     0.019912  p :     0.065548
      px      :     0.033747
      py      :     0.011889
 19 H s       :     0.888468  s :     0.888468
      pz      :     0.009407  p :     0.065556
      px      :     0.013014
      py      :     0.043136
 20 H s       :     0.885296  s :     0.885296
      pz      :     0.019022  p :     0.065626
      px      :     0.033938
      py      :     0.012666


                      *****************************
                      * MAYER POPULATION ANALYSIS *
                      *****************************

  NA   - Mulliken gross atomic population
  ZA   - Total nuclear charge
  QA   - Mulliken gross atomic charge
  VA   - Mayer's total valence
  BVA  - Mayer's bonded valence
  FA   - Mayer's free valence

  ATOM       NA         ZA         QA         VA         BVA        FA
  0 C      5.8992     6.0000     0.1008     3.9142     3.9142    -0.0000
  1 C      5.7602     6.0000     0.2398     3.9554     3.9554    -0.0000
  2 C      5.8992     6.0000     0.1008     3.9142     3.9142     0.0000
  3 C      6.0949     6.0000    -0.0949     4.0711     4.0711    -0.0000
  4 H      0.9129     1.0000     0.0871     0.9841     0.9841    -0.0000
  5 H      0.9011     1.0000     0.0989     1.0041     1.0041    -0.0000
  6 H      0.9148     1.0000     0.0852     0.9884     0.9884     0.0000
  7 H      0.9216     1.0000     0.0784     0.9786     0.9786    -0.0000
  8 N      7.3136     7.0000    -0.3136     3.3633     3.3633     0.0000
  9 N      7.3136     7.0000    -0.3136     3.3633     3.3633     0.0000
 10 H      0.9129     1.0000     0.0871     0.9841     0.9841    -0.0000
 11 H      0.9037     1.0000     0.0963     0.9828     0.9828    -0.0000
 12 H      0.9148     1.0000     0.0852     0.9884     0.9884     0.0000
 13 C      5.9359     6.0000     0.0641     3.8740     3.8740    -0.0000
 14 H      0.9204     1.0000     0.0796     0.9970     0.9970    -0.0000
 15 H      0.9054     1.0000     0.0946     0.9894     0.9894    -0.0000
 16 H      0.9071     1.0000     0.0929     0.9885     0.9885    -0.0000
 17 C      5.9359     6.0000     0.0641     3.8740     3.8740    -0.0000
 18 H      0.9054     1.0000     0.0946     0.9894     0.9894    -0.0000
 19 H      0.9204     1.0000     0.0796     0.9970     0.9970    -0.0000
 20 H      0.9071     1.0000     0.0929     0.9885     0.9885    -0.0000

  Mayer bond orders larger than 0.100000
B(  0-C ,  3-C ) :   1.0669 B(  0-C ,  4-H ) :   0.9573 B(  0-C ,  8-N ) :   0.8932 
B(  0-C , 12-H ) :   0.9514 B(  1-C ,  5-H ) :   0.9625 B(  1-C ,  8-N ) :   1.4300 
B(  1-C ,  9-N ) :   1.4300 B(  2-C ,  3-C ) :   1.0669 B(  2-C ,  6-H ) :   0.9514 
B(  2-C ,  9-N ) :   0.8932 B(  2-C , 10-H ) :   0.9573 B(  3-C ,  7-H ) :   0.9484 
B(  3-C , 11-H ) :   0.9431 B(  8-N , 13-C ) :   0.9118 B(  9-N , 17-C ) :   0.9118 
B( 13-C , 14-H ) :   0.9705 B( 13-C , 15-H ) :   0.9721 B( 13-C , 16-H ) :   0.9708 
B( 17-C , 18-H ) :   0.9721 B( 17-C , 19-H ) :   0.9705 B( 17-C , 20-H ) :   0.9708 


-------
TIMINGS
-------

Total SCF time: 0 days 0 hours 0 min 37 sec 

Total time                  ....      37.527 sec
Sum of individual times     ....      37.064 sec  ( 98.8%)

Fock matrix formation       ....      35.536 sec  ( 94.7%)
  Split-RI-J                ....       1.409 sec  (  4.0% of F)
  Chain of spheres X        ....      30.230 sec  ( 85.1% of F)
  XC integration            ....       3.814 sec  ( 10.7% of F)
    Basis function eval.    ....       1.106 sec  ( 29.0% of XC)
    Density eval.           ....       0.709 sec  ( 18.6% of XC)
    XC-Functional eval.     ....       0.439 sec  ( 11.5% of XC)
    XC-Potential eval.      ....       0.765 sec  ( 20.1% of XC)
Diagonalization             ....       0.040 sec  (  0.1%)
Density matrix formation    ....       0.005 sec  (  0.0%)
Population analysis         ....       0.010 sec  (  0.0%)
Initial guess               ....       0.163 sec  (  0.4%)
Orbital Transformation      ....       0.000 sec  (  0.0%)
Orbital Orthonormalization  ....       0.000 sec  (  0.0%)
DIIS solution               ....       0.024 sec  (  0.1%)
SOSCF solution              ....       0.027 sec  (  0.1%)
Grid generation             ....       1.258 sec  (  3.4%)

Maximum memory used throughout the entire SCF-calculation: 55.3 MB


-------------------------------------------------------------------------------
                          DFT DISPERSION CORRECTION                            
                                                                               
                                 DFTD4 V2.5                                    
-------------------------------------------------------------------------------
The WB97X functional is recognized
Active option DFTDOPT                   ...         5   

Starting D4
-------------------------   ----------------
Dispersion correction           -0.002463551
-------------------------   ----------------


-------------------------   --------------------
FINAL SINGLE POINT ENERGY      -345.428048601308
-------------------------   --------------------


                            ***************************************
                            *     ORCA property calculations      *
                            ***************************************

                                    ---------------------
                                    Active property flags
                                    ---------------------
   (+) Dipole Moment


------------------------------------------------------------------------------
                       ORCA ELECTRIC PROPERTIES CALCULATION
------------------------------------------------------------------------------

Dipole Moment Calculation                       ... on
Quadrupole Moment Calculation                   ... off
Polarizability Calculation                      ... off
GBWName                                         ... DFT_water_outs/10+-gasSP.gbw
Electron density                                ... DFT_water_outs/10+-gasSP.scfp
The origin for moment calculation is the CENTER OF MASS  = (-0.003047, -0.004644  0.000000)

-------------
DIPOLE MOMENT
-------------
                                X             Y             Z
Electronic contribution:     -0.16177      -0.64253       0.00000
Nuclear contribution   :      0.08160       0.22890       0.00000
                        -----------------------------------------
Total Dipole Moment    :     -0.08017      -0.41364       0.00000
                        -----------------------------------------
Magnitude (a.u.)       :      0.42133
Magnitude (Debye)      :      1.07094



--------------------
Rotational spectrum 
--------------------
 
Rotational constants in cm-1:     0.107500     0.059055     0.040189 
Rotational constants in MHz :  3222.768635  1770.424963  1204.832953 

 Dipole components along the rotational axes: 
x,y,z [a.u.] :     0.000001     0.420482     0.026766 
x,y,z [Debye]:     0.000002     1.068780     0.068034 

 

Timings for individual modules:

Sum of individual times         ...       38.511 sec (=   0.642 min)
GTO integral calculation        ...        0.596 sec (=   0.010 min)   1.5 %
SCF iterations                  ...       37.915 sec (=   0.632 min)  98.5 %
                             ****ORCA TERMINATED NORMALLY****
TOTAL RUN TIME: 0 days 0 hours 0 minutes 39 seconds 90 msec
