
                                 *****************
                                 * O   R   C   A *
                                 *****************

                                            #,                                       
                                            ###                                      
                                            ####                                     
                                            #####                                    
                                            ######                                   
                                           ########,                                 
                                     ,,################,,,,,                         
                               ,,#################################,,                 
                          ,,##########################################,,             
                       ,#########################################, ''#####,          
                    ,#############################################,,   '####,        
                  ,##################################################,,,,####,       
                ,###########''''           ''''###############################       
              ,#####''   ,,,,##########,,,,          '''####'''          '####       
            ,##' ,,,,###########################,,,                        '##       
           ' ,,###''''                  '''############,,,                           
         ,,##''                                '''############,,,,        ,,,,,,###''
      ,#''                                            '''#######################'''  
     '                                                          ''''####''''         
             ,#######,   #######,   ,#######,      ##                                
            ,#'     '#,  ##    ##  ,#'     '#,    #''#        ######   ,####,        
            ##       ##  ##   ,#'  ##            #'  '#       #        #'  '#        
            ##       ##  #######   ##           ,######,      #####,   #    #        
            '#,     ,#'  ##    ##  '#,     ,#' ,#      #,         ##   #,  ,#        
             '#######'   ##     ##  '#######'  #'      '#     #####' # '####'        



                  #######################################################
                  #                        -***-                        #
                  #          Department of theory and spectroscopy      #
                  #    Directorship and core code : Frank Neese         #
                  #        Max Planck Institute fuer Kohlenforschung    #
                  #                Kaiser Wilhelm Platz 1               #
                  #                 D-45470 Muelheim/Ruhr               #
                  #                      Germany                        #
                  #                                                     #
                  #                  All rights reserved                #
                  #                        -***-                        #
                  #######################################################


                         Program Version 5.0.4 -  RELEASE  -


 With contributions from (in alphabetic order):
   Daniel Aravena         : Magnetic Suceptibility
   Michael Atanasov       : Ab Initio Ligand Field Theory (pilot matlab implementation)
   Alexander A. Auer      : GIAO ZORA, VPT2 properties, NMR spectrum
   Ute Becker             : Parallelization
   Giovanni Bistoni       : ED, misc. LED, open-shell LED, HFLD
   Martin Brehm           : Molecular dynamics
   Dmytro Bykov           : SCF Hessian
   Vijay G. Chilkuri      : MRCI spin determinant printing, contributions to CSF-ICE
   Dipayan Datta          : RHF DLPNO-CCSD density
   Achintya Kumar Dutta   : EOM-CC, STEOM-CC
   Dmitry Ganyushin       : Spin-Orbit,Spin-Spin,Magnetic field MRCI
   Miquel Garcia          : C-PCM and meta-GGA Hessian, CC/C-PCM, Gaussian charge scheme
   Yang Guo               : DLPNO-NEVPT2, F12-NEVPT2, CIM, IAO-localization
   Andreas Hansen         : Spin unrestricted coupled pair/coupled cluster methods
   Benjamin Helmich-Paris : MC-RPA, TRAH-SCF, COSX integrals
   Lee Huntington         : MR-EOM, pCC
   Robert Izsak           : Overlap fitted RIJCOSX, COSX-SCS-MP3, EOM
   Marcus Kettner         : VPT2
   Christian Kollmar      : KDIIS, OOCD, Brueckner-CCSD(T), CCSD density, CASPT2, CASPT2-K
   Simone Kossmann        : Meta GGA functionals, TD-DFT gradient, OOMP2, MP2 Hessian
   Martin Krupicka        : Initial AUTO-CI
   Lucas Lang             : DCDCAS
   Marvin Lechner         : AUTO-CI (C++ implementation), FIC-MRCC
   Dagmar Lenk            : GEPOL surface, SMD
   Dimitrios Liakos       : Extrapolation schemes; Compound Job, initial MDCI parallelization
   Dimitrios Manganas     : Further ROCIS development; embedding schemes
   Dimitrios Pantazis     : SARC Basis sets
   Anastasios Papadopoulos: AUTO-CI, single reference methods and gradients
   Taras Petrenko         : DFT Hessian,TD-DFT gradient, ASA, ECA, R-Raman, ABS, FL, XAS/XES, NRVS
   Peter Pinski           : DLPNO-MP2, DLPNO-MP2 Gradient
   Christoph Reimann      : Effective Core Potentials
   Marius Retegan         : Local ZFS, SOC
   Christoph Riplinger    : Optimizer, TS searches, QM/MM, DLPNO-CCSD(T), (RO)-DLPNO pert. Triples
   Tobias Risthaus        : Range-separated hybrids, TD-DFT gradient, RPA, STAB
   Michael Roemelt        : Original ROCIS implementation
   Masaaki Saitow         : Open-shell DLPNO-CCSD energy and density
   Barbara Sandhoefer     : DKH picture change effects
   Avijit Sen             : IP-ROCIS
   Kantharuban Sivalingam : CASSCF convergence, NEVPT2, FIC-MRCI
   Bernardo de Souza      : ESD, SOC TD-DFT
   Georgi Stoychev        : AutoAux, RI-MP2 NMR, DLPNO-MP2 response
   Willem Van den Heuvel  : Paramagnetic NMR
   Boris Wezisla          : Elementary symmetry handling
   Frank Wennmohs         : Technical directorship


 We gratefully acknowledge several colleagues who have allowed us to
 interface, adapt or use parts of their codes:
   Stefan Grimme, W. Hujo, H. Kruse, P. Pracht,  : VdW corrections, initial TS optimization,
                  C. Bannwarth, S. Ehlert          DFT functionals, gCP, sTDA/sTD-DF
   Ed Valeev, F. Pavosevic, A. Kumar             : LibInt (2-el integral package), F12 methods
   Garnet Chan, S. Sharma, J. Yang, R. Olivares  : DMRG
   Ulf Ekstrom                                   : XCFun DFT Library
   Mihaly Kallay                                 : mrcc  (arbitrary order and MRCC methods)
   Jiri Pittner, Ondrej Demel                    : Mk-CCSD
   Frank Weinhold                                : gennbo (NPA and NBO analysis)
   Christopher J. Cramer and Donald G. Truhlar   : smd solvation model
   Lars Goerigk                                  : TD-DFT with DH, B97 family of functionals
   V. Asgeirsson, H. Jonsson                     : NEB implementation
   FAccTs GmbH                                   : IRC, NEB, NEB-TS, DLPNO-Multilevel, CI-OPT
                                                   MM, QMMM, 2- and 3-layer-ONIOM, Crystal-QMMM,
                                                   LR-CPCM, SF, NACMEs, symmetry and pop. for TD-DFT,
                                                   nearIR, NL-DFT gradient (VV10), updates on ESD,
                                                   ML-optimized integration grids
   S Lehtola, MJT Oliveira, MAL Marques          : LibXC Library
   Liviu Ungur et al                             : ANISO software


 Your calculation uses the libint2 library for the computation of 2-el integrals
 For citations please refer to: http://libint.valeyev.net

 Your ORCA version has been built with support for libXC version: 5.1.0
 For citations please refer to: https://tddft.org/programs/libxc/

 This ORCA versions uses:
   CBLAS   interface :  Fast vector & matrix operations
   LAPACKE interface :  Fast linear algebra routines
   SCALAPACK package :  Parallel linear algebra routines
   Shared memory     :  Shared parallel matrices
   BLAS/LAPACK       :  OpenBLAS 0.3.15  USE64BITINT DYNAMIC_ARCH NO_AFFINITY SkylakeX SINGLE_THREADED
        Core in use  :  SkylakeX
   Copyright (c) 2011-2014, The OpenBLAS Project




***************************************
The coordinates will be read from file: 10.xyz
***************************************


Your calculation utilizes the atom-pairwise dispersion correction
based on tight binding partial charges (D4)
Cite in your paper:
E.Caldeweyher, C.Bannwarth, S.Grimme, J.Chem.Phys., (2017), 147, 034112.
E.Caldeweyher, S.Ehlert, A.Hansen, H.Neugebauer, S.Grimme, J.Chem.Phys., (2018), in progress.
   

XCFun DFT library Copyright 2009-2010 Ulf Ekstrom and contributors.
See http://admol.org/xcfun for more information.
This is free software; see the source code for copying conditions.
There is ABSOLUTELY NO WARRANTY; not even for MERCHANTABILITY or FITNESS FOR A PARTICULAR PURPOSE.
For details see the documentation.
Scientific users of this library should cite U. Ekstrom, L. Visscher, R. Bast, A. J. Thorvaldsen and K. Ruud;
J.Chem.Theor.Comp. 2010, DOI: 10.1021/ct100117s
XCFun Version 0.99 

================================================================================

----- Orbital basis set information -----
Your calculation utilizes the basis: def2-SVP
   F. Weigend and R. Ahlrichs, Phys. Chem. Chem. Phys. 7, 3297 (2005).

----- AuxJ basis set information -----
Your calculation utilizes the auxiliary basis: def2/J
   F. Weigend, Phys. Chem. Chem. Phys. 8, 1057 (2006).

================================================================================
                                        WARNINGS
                       Please study these warnings very carefully!
================================================================================


WARNING: Geometry Optimization
  ===> : Switching off AutoStart
         For restart on a previous wavefunction, please use MOREAD

INFO   : the flag for use of the SHARK integral package has been found!

================================================================================
                                       INPUT FILE
================================================================================
NAME = 10_Water.inp
|  1> # ORCAForces - ../2023_04/pKa_prediction/extra_carbenes/Water/10_Water.inp
|  2> # Basic Mode
|  3> #
|  4> ! Opt FREQ wB97X D4 Def2-SVP SlowConv TightSCF DEFGRID2 Def2/J RIJCOSX CPCM(Water)
|  5> 
|  6> %maxcore 4500
|  7> 
|  8> %PAL NPROCS 4 END
|  9> 
| 10> %geom 
| 11> Maxiter 150
| 12> END
| 13> 
| 14> * xyzfile 0 1 10.xyz
| 15> 
| 16>                          ****END OF INPUT****
================================================================================

                       *****************************
                       * Geometry Optimization Run *
                       *****************************

Geometry optimization settings:
Update method            Update   .... BFGS
Choice of coordinates    CoordSys .... Z-matrix Internals
Initial Hessian          InHess   .... Almoef's Model

Convergence Tolerances:
Energy Change            TolE     ....  5.0000e-06 Eh
Max. Gradient            TolMAXG  ....  3.0000e-04 Eh/bohr
RMS Gradient             TolRMSG  ....  1.0000e-04 Eh/bohr
Max. Displacement        TolMAXD  ....  4.0000e-03 bohr
RMS Displacement         TolRMSD  ....  2.0000e-03 bohr
Strict Convergence                ....  False
------------------------------------------------------------------------------
                        ORCA OPTIMIZATION COORDINATE SETUP
------------------------------------------------------------------------------

The optimization will be done in new redundant internal coordinates
Making redundant internal coordinates   ...  (new redundants) done
Evaluating the initial hessian          ...  (Almloef) done
Evaluating the coordinates              ...  done
Calculating the B-matrix                .... done
Calculating the G-matrix                .... done
Diagonalizing the G-matrix              .... done
The first mode is                       ....   49
The number of degrees of freedom        ....   54

    -----------------------------------------------------------------
                    Redundant Internal Coordinates


    -----------------------------------------------------------------
         Definition                    Initial Value    Approx d2E/dq
    -----------------------------------------------------------------
      1. B(C   3,C   2)                  1.5246         0.381057   
      2. B(C   3,C   0)                  1.5246         0.381057   
      3. B(H   4,C   0)                  1.1022         0.344319   
      4. B(H   5,C   2)                  1.0979         0.349856   
      5. B(H   6,C   3)                  1.1011         0.345769   
      6. B(N   7,C   1)                  1.3495         0.649252   
      7. B(N   7,C   0)                  1.4758         0.408261   
      8. B(N   8,C   2)                  1.4758         0.408261   
      9. B(N   8,C   1)                  1.3495         0.649252   
     10. B(H   9,C   2)                  1.1022         0.344319   
     11. B(H  10,C   3)                  1.0990         0.348399   
     12. B(H  11,C   0)                  1.0979         0.349856   
     13. B(C  12,N   7)                  1.4585         0.435065   
     14. B(H  13,C  12)                  1.0913         0.358361   
     15. B(H  14,C  12)                  1.0990         0.348408   
     16. B(H  15,C  12)                  1.0999         0.347274   
     17. B(C  16,N   8)                  1.4585         0.435065   
     18. B(H  17,C  16)                  1.0990         0.348408   
     19. B(H  18,C  16)                  1.0913         0.358361   
     20. B(H  19,C  16)                  1.0999         0.347274   
     21. A(C   3,C   0,H  11)          110.5964         0.323838   
     22. A(C   3,C   0,H   4)          110.8898         0.322992   
     23. A(H   4,C   0,H  11)          107.3567         0.287502   
     24. A(C   3,C   0,N   7)          110.1041         0.367866   
     25. A(H   4,C   0,N   7)          109.5351         0.324717   
     26. A(N   7,C   0,H  11)          108.2808         0.325570   
     27. A(N   7,C   1,N   8)          116.3207         0.435568   
     28. A(H   5,C   2,H   9)          107.3567         0.287502   
     29. A(C   3,C   2,H   5)          110.5964         0.323838   
     30. A(N   8,C   2,H   9)          109.5351         0.324717   
     31. A(H   5,C   2,N   8)          108.2808         0.325570   
     32. A(C   3,C   2,H   9)          110.8898         0.322992   
     33. A(C   3,C   2,N   8)          110.1041         0.367866   
     34. A(C   2,C   3,H   6)          109.5289         0.323215   
     35. A(H   6,C   3,H  10)          107.8501         0.287503   
     36. A(C   0,C   3,C   2)          109.5678         0.365825   
     37. A(C   0,C   3,H  10)          110.1697         0.323617   
     38. A(C   2,C   3,H  10)          110.1697         0.323617   
     39. A(C   0,C   3,H   6)          109.5289         0.323215   
     40. A(C   1,N   7,C  12)          119.3921         0.405547   
     41. A(C   0,N   7,C  12)          114.7773         0.373994   
     42. A(C   0,N   7,C   1)          125.6859         0.401023   
     43. A(C   1,N   8,C  16)          119.3921         0.405547   
     44. A(C   2,N   8,C  16)          114.7773         0.373994   
     45. A(C   1,N   8,C   2)          125.6859         0.401023   
     46. A(H  14,C  12,H  15)          108.0091         0.287699   
     47. A(H  13,C  12,H  15)          109.0722         0.288970   
     48. A(N   7,C  12,H  15)          110.7171         0.328597   
     49. A(H  13,C  12,H  14)          109.3675         0.289118   
     50. A(N   7,C  12,H  14)          110.8233         0.328774   
     51. A(N   7,C  12,H  13)          108.8229         0.330307   
     52. A(H  18,C  16,H  19)          109.0722         0.288970   
     53. A(H  17,C  16,H  19)          108.0091         0.287699   
     54. A(N   8,C  16,H  19)          110.7171         0.328597   
     55. A(H  17,C  16,H  18)          109.3675         0.289118   
     56. A(N   8,C  16,H  18)          108.8229         0.330307   
     57. A(N   8,C  16,H  17)          110.8233         0.328774   
     58. D(C   0,C   3,C   2,N   8)    -50.0168         0.011569   
     59. D(H   6,C   3,C   0,N   7)    -70.1488         0.011569   
     60. D(H   6,C   3,C   0,H   4)    168.4632         0.011569   
     61. D(C   0,C   3,C   2,H   9)     71.3713         0.011569   
     62. D(H  10,C   3,C   0,H  11)    -68.9939         0.011569   
     63. D(H  10,C   3,C   0,H   4)     49.9884         0.011569   
     64. D(H  10,C   3,C   2,N   8)   -171.3765         0.011569   
     65. D(H  10,C   3,C   0,N   7)    171.3765         0.011569   
     66. D(H   6,C   3,C   2,H   5)    -49.4808         0.011569   
     67. D(C   2,C   3,C   0,H  11)    169.6463         0.011569   
     68. D(H   6,C   3,C   2,N   8)     70.1488         0.011569   
     69. D(H   6,C   3,C   0,H  11)     49.4808         0.011569   
     70. D(H  10,C   3,C   2,H   5)     68.9939         0.011569   
     71. D(H   6,C   3,C   2,H   9)   -168.4632         0.011569   
     72. D(C   0,C   3,C   2,H   5)   -169.6463         0.011569   
     73. D(H  10,C   3,C   2,H   9)    -49.9884         0.011569   
     74. D(C   2,C   3,C   0,N   7)     50.0168         0.011569   
     75. D(C   2,C   3,C   0,H   4)    -71.3713         0.011569   
     76. D(C  12,N   7,C   1,N   8)    176.3868         0.031147   
     77. D(C   0,N   7,C   1,N   8)      0.9972         0.031147   
     78. D(C  12,N   7,C   0,H  11)     36.5837         0.014221   
     79. D(C  12,N   7,C   0,H   4)    -80.1969         0.014221   
     80. D(C  12,N   7,C   0,C   3)    157.6103         0.014221   
     81. D(C   1,N   7,C   0,H  11)   -147.8401         0.014221   
     82. D(C   1,N   7,C   0,H   4)     95.3793         0.014221   
     83. D(C   1,N   7,C   0,C   3)    -26.8135         0.014221   
     84. D(C   1,N   8,C   2,H   5)    147.8401         0.014221   
     85. D(C   1,N   8,C   2,C   3)     26.8135         0.014221   
     86. D(C  16,N   8,C   1,N   7)   -176.3868         0.031147   
     87. D(C   1,N   8,C   2,H   9)    -95.3793         0.014221   
     88. D(C   2,N   8,C   1,N   7)     -0.9972         0.031147   
     89. D(C  16,N   8,C   2,H   9)     80.1969         0.014221   
     90. D(C  16,N   8,C   2,H   5)    -36.5837         0.014221   
     91. D(C  16,N   8,C   2,C   3)   -157.6103         0.014221   
     92. D(H  15,C  12,N   7,C   1)   -117.2795         0.016138   
     93. D(H  15,C  12,N   7,C   0)     58.5971         0.016138   
     94. D(H  14,C  12,N   7,C   1)    122.8867         0.016138   
     95. D(H  14,C  12,N   7,C   0)    -61.2367         0.016138   
     96. D(H  13,C  12,N   7,C   1)      2.5890         0.016138   
     97. D(H  13,C  12,N   7,C   0)    178.4656         0.016138   
     98. D(H  19,C  16,N   8,C   2)    -58.5971         0.016138   
     99. D(H  19,C  16,N   8,C   1)    117.2795         0.016138   
    100. D(H  18,C  16,N   8,C   2)   -178.4656         0.016138   
    101. D(H  18,C  16,N   8,C   1)     -2.5890         0.016138   
    102. D(H  17,C  16,N   8,C   2)     61.2367         0.016138   
    103. D(H  17,C  16,N   8,C   1)   -122.8867         0.016138   
    -----------------------------------------------------------------

Number of atoms                         .... 20
Number of degrees of freedom            .... 103

         *************************************************************
         *                GEOMETRY OPTIMIZATION CYCLE   1            *
         *************************************************************
---------------------------------
CARTESIAN COORDINATES (ANGSTROEM)
---------------------------------
  C     -0.189677    1.062547    1.245574
  C      0.079400   -1.105215    0.000000
  C     -0.189677    1.062547   -1.245574
  C      0.361353    1.747618    0.000000
  H     -1.260512    1.288132    1.376974
  H      0.332313    1.416823   -2.144074
  H      1.460489    1.682650    0.000000
  N     -0.001547   -0.397886    1.146479
  N     -0.001547   -0.397886   -1.146479
  H     -1.260512    1.288132   -1.376974
  H      0.086794    2.811761    0.000000
  H      0.332313    1.416823    2.144074
  C     -0.001547   -1.102247    2.423648
  H      0.116040   -2.170927    2.236375
  H      0.820597   -0.751677    3.063138
  H     -0.946174   -0.933363    2.961121
  C     -0.001547   -1.102247   -2.423648
  H      0.820597   -0.751677   -3.063138
  H      0.116040   -2.170927   -2.236375
  H     -0.946174   -0.933363   -2.961121

----------------------------
CARTESIAN COORDINATES (A.U.)
----------------------------
  NO LB      ZA    FRAG     MASS         X           Y           Z
   0 C     6.0000    0    12.011   -0.358438    2.007923    2.353794
   1 C     6.0000    0    12.011    0.150044   -2.088554    0.000000
   2 C     6.0000    0    12.011   -0.358438    2.007923   -2.353794
   3 C     6.0000    0    12.011    0.682858    3.302519    0.000000
   4 H     1.0000    0     1.008   -2.382022    2.434217    2.602104
   5 H     1.0000    0     1.008    0.627981    2.677407   -4.051713
   6 H     1.0000    0     1.008    2.759924    3.179748    0.000000
   7 N     7.0000    0    14.007   -0.002923   -0.751896    2.166531
   8 N     7.0000    0    14.007   -0.002923   -0.751896   -2.166531
   9 H     1.0000    0     1.008   -2.382022    2.434217   -2.602104
  10 H     1.0000    0     1.008    0.164017    5.313458    0.000000
  11 H     1.0000    0     1.008    0.627981    2.677407    4.051713
  12 C     6.0000    0    12.011   -0.002923   -2.082945    4.580031
  13 H     1.0000    0     1.008    0.219284   -4.102457    4.226136
  14 H     1.0000    0     1.008    1.550704   -1.420464    5.788492
  15 H     1.0000    0     1.008   -1.788010   -1.763800    5.595708
  16 C     6.0000    0    12.011   -0.002923   -2.082945   -4.580031
  17 H     1.0000    0     1.008    1.550704   -1.420464   -5.788492
  18 H     1.0000    0     1.008    0.219284   -4.102457   -4.226136
  19 H     1.0000    0     1.008   -1.788010   -1.763800   -5.595708

--------------------------------
INTERNAL COORDINATES (ANGSTROEM)
--------------------------------
 C      0   0   0     0.000000000000     0.00000000     0.00000000
 C      1   0   0     2.514567380296     0.00000000     0.00000000
 C      1   2   0     2.491148000000    60.30761226     0.00000000
 C      1   2   3     1.524601890795    86.79027768   335.50119508
 H      1   2   3     1.102198779463   109.84372875    86.56693051
 H      3   1   2     1.097855771163   144.92629435   242.91089821
 H      4   1   2     1.101054398075   109.52888919   278.49283108
 N      2   1   3     1.349548379456    28.47048244   179.39445168
 N      2   1   3     1.349548379456    87.85394421     0.28886694
 H      3   1   2     1.102198779463    96.84687204   108.97188154
 H      4   1   2     1.098991796571   110.16966959   160.01812316
 H      1   2   3     1.097855771163   129.25032196   221.34871218
 C      8   2   1     1.458521536653   119.39212663   175.38965140
 H     13   8   2     1.091317928698   108.82294918     2.58898764
 H     13   8   2     1.098984777754   110.82334629   122.88670851
 H     13   8   2     1.099872356373   110.71712975   242.72054181
 C      9   2   1     1.458521536653   119.39212663   184.08884637
 H     17   9   2     1.098984777754   110.82334629   237.11329149
 H     17   9   2     1.091317928698   108.82294918   357.41101236
 H     17   9   2     1.099872356373   110.71712975   117.27945819

---------------------------
INTERNAL COORDINATES (A.U.)
---------------------------
 C      0   0   0     0.000000000000     0.00000000     0.00000000
 C      1   0   0     4.751843694051     0.00000000     0.00000000
 C      1   2   0     4.707587479066    60.30761226     0.00000000
 C      1   2   3     2.881080036862    86.79027768   335.50119508
 H      1   2   3     2.082853838328   109.84372875    86.56693051
 H      3   1   2     2.074646742043   144.92629435   242.91089821
 H      4   1   2     2.080691270911   109.52888919   278.49283108
 N      2   1   3     2.550276841648    28.47048244   179.39445168
 N      2   1   3     2.550276841648    87.85394421     0.28886694
 H      3   1   2     2.082853838328    96.84687204   108.97188154
 H      4   1   2     2.076793518945   110.16966959   160.01812316
 H      1   2   3     2.074646742043   129.25032196   221.34871218
 C      8   2   1     2.756206264701   119.39212663   175.38965140
 H     13   8   2     2.062292010278   108.82294918     2.58898764
 H     13   8   2     2.076780255304   110.82334629   122.88670851
 H     13   8   2     2.078457535816   110.71712975   242.72054181
 C      9   2   1     2.756206264701   119.39212663   184.08884637
 H     17   9   2     2.076780255304   110.82334629   237.11329149
 H     17   9   2     2.062292010278   108.82294918   357.41101236
 H     17   9   2     2.078457535816   110.71712975   117.27945819

---------------------
BASIS SET INFORMATION
---------------------
There are 3 groups of distinct atoms

 Group   1 Type C   : 7s4p1d contracted to 3s2p1d pattern {511/31/1}
 Group   2 Type H   : 4s1p contracted to 2s1p pattern {31/1}
 Group   3 Type N   : 7s4p1d contracted to 3s2p1d pattern {511/31/1}

Atom   0C    basis set group =>   1
Atom   1C    basis set group =>   1
Atom   2C    basis set group =>   1
Atom   3C    basis set group =>   1
Atom   4H    basis set group =>   2
Atom   5H    basis set group =>   2
Atom   6H    basis set group =>   2
Atom   7N    basis set group =>   3
Atom   8N    basis set group =>   3
Atom   9H    basis set group =>   2
Atom  10H    basis set group =>   2
Atom  11H    basis set group =>   2
Atom  12C    basis set group =>   1
Atom  13H    basis set group =>   2
Atom  14H    basis set group =>   2
Atom  15H    basis set group =>   2
Atom  16C    basis set group =>   1
Atom  17H    basis set group =>   2
Atom  18H    basis set group =>   2
Atom  19H    basis set group =>   2
---------------------------------
AUXILIARY/J BASIS SET INFORMATION
---------------------------------
There are 3 groups of distinct atoms

 Group   1 Type C   : 12s5p4d2f1g contracted to 6s4p3d1f1g pattern {711111/2111/211/2/1}
 Group   2 Type H   : 5s2p1d contracted to 3s1p1d pattern {311/2/1}
 Group   3 Type N   : 12s5p4d2f1g contracted to 6s4p3d1f1g pattern {711111/2111/211/2/1}

Atom   0C    basis set group =>   1
Atom   1C    basis set group =>   1
Atom   2C    basis set group =>   1
Atom   3C    basis set group =>   1
Atom   4H    basis set group =>   2
Atom   5H    basis set group =>   2
Atom   6H    basis set group =>   2
Atom   7N    basis set group =>   3
Atom   8N    basis set group =>   3
Atom   9H    basis set group =>   2
Atom  10H    basis set group =>   2
Atom  11H    basis set group =>   2
Atom  12C    basis set group =>   1
Atom  13H    basis set group =>   2
Atom  14H    basis set group =>   2
Atom  15H    basis set group =>   2
Atom  16C    basis set group =>   1
Atom  17H    basis set group =>   2
Atom  18H    basis set group =>   2
Atom  19H    basis set group =>   2


           ************************************************************
           *        Program running with 4 parallel MPI-processes     *
           *              working on a common directory               *
           ************************************************************
------------------------------------------------------------------------------
                           ORCA GTO INTEGRAL CALCULATION
                           -- RI-GTO INTEGRALS CHOSEN --
------------------------------------------------------------------------------
------------------------------------------------------------------------------
                   ___                                                        
                  /   \      - P O W E R E D   B Y -                         
                 /     \                                                     
                 |  |  |   _    _      __       _____    __    __             
                 |  |  |  | |  | |    /  \     |  _  \  |  |  /  |          
                  \  \/   | |  | |   /    \    | | | |  |  | /  /          
                 / \  \   | |__| |  /  /\  \   | |_| |  |  |/  /          
                |  |  |   |  __  | /  /__\  \  |    /   |      \           
                |  |  |   | |  | | |   __   |  |    \   |  |\   \          
                \     /   | |  | | |  |  |  |  | |\  \  |  | \   \       
                 \___/    |_|  |_| |__|  |__|  |_| \__\ |__|  \__/        
                                                                              
                      - O R C A' S   B I G   F R I E N D -                    
                                      &                                       
                       - I N T E G R A L  F E E D E R -                       
                                                                              
 v1 FN, 2020, v2 2021                                                         
------------------------------------------------------------------------------


Reading SHARK input file 10_Water.SHARKINP.tmp ... ok
----------------------
SHARK INTEGRAL PACKAGE
----------------------

Number of atoms                             ...     20
Number of basis functions                   ...    172
Number of shells                            ...     84
Maximum angular momentum                    ...      2
Integral batch strategy                     ... SHARK/LIBINT Hybrid
RI-J (if used) integral strategy            ... SPLIT-RIJ (Revised 2003 algorithm where possible)
Printlevel                                  ...      1
Contraction scheme used                     ... SEGMENTED contraction
Coulomb Range Separation                    ... NOT USED
Exchange Range Separation                   ... Long Range
   Mu parameter                             ...  0.300000
   Scaling (regular/separated)              ...  0.157706  0.842294
Finite Nucleus Model                        ... NOT USED
Auxiliary Coulomb fitting basis             ... AVAILABLE
   # of basis functions in Aux-J            ...    524
   # of shells in Aux-J                     ...    180
   Maximum angular momentum in Aux-J        ...      4
Auxiliary J/K fitting basis                 ... NOT available
Auxiliary Correlation fitting basis         ... NOT available
Auxiliary 'external' fitting basis          ... NOT available
Integral threshold                          ...     2.500000e-11
Primitive cut-off                           ...     2.500000e-12
Primitive pair pre-selection threshold      ...     2.500000e-12

Calculating pre-screening integrals         ... done (  0.0 sec) Dimension = 84
Organizing shell pair data                  ... done (  0.0 sec)
Shell pair information
Total number of shell pairs                 ...      3570
Shell pairs after pre-screening             ...      3367
Total number of primitive shell pairs       ...     12386
Primitive shell pairs kept                  ...      8667
          la=0 lb=0:   1124 shell pairs
          la=1 lb=0:   1259 shell pairs
          la=1 lb=1:    370 shell pairs
          la=2 lb=0:    366 shell pairs
          la=2 lb=1:    212 shell pairs
          la=2 lb=2:     36 shell pairs

Calculating one electron integrals          ... done (  0.0 sec)
Calculating RI/J V-Matrix + Cholesky decomp.... done (  0.0 sec)
Calculating Nuclear repulsion               ... done (  0.0 sec) ENN=    393.673483766428 Eh

SHARK setup successfully completed in   0.4 seconds

Maximum memory used throughout the entire GTOINT-calculation: 12.0 MB


           ************************************************************
           *        Program running with 4 parallel MPI-processes     *
           *              working on a common directory               *
           ************************************************************
-------------------------------------------------------------------------------
                                 ORCA SCF
-------------------------------------------------------------------------------

------------
SCF SETTINGS
------------
Hamiltonian:
 Density Functional     Method          .... DFT(GTOs)
 Exchange Functional    Exchange        .... WB97X
 Correlation Functional Correlation     .... WB97X
 Gradients option       PostSCFGGA      .... off
 Hybrid DFT is turned on
   Fraction HF Exchange ScalHFX         ....  0.157706
   Scaling of DF-GGA-X  ScalDFX         ....  0.000000
   Scaling of DF-GGA-C  ScalDFC         ....  1.000000
   Scaling of DF-LDA-C  ScalLDAC        ....  1.000000
   Perturbative correction              ....  0.000000
   Density functional embedding theory  .... OFF
 Long-range corrected/Screened/Range-Separated Hybrid DFT is turned on
   Amount of maximum screened exact exchange              ....  0.842294
   Range separation parameter mu (erf(mu*r12)/r12)        ....  0.300000
 RI-approximation to the Coulomb term is turned on
   Number of AuxJ basis functions       .... 524
   RIJ-COSX (HFX calculated with COS-X)).... on


General Settings:
 Integral files         IntName         .... 10_Water
 Hartree-Fock type      HFTyp           .... RHF
 Total Charge           Charge          ....    0
 Multiplicity           Mult            ....    1
 Number of Electrons    NEL             ....   62
 Basis Dimension        Dim             ....  172
 Nuclear Repulsion      ENuc            ....    393.6734837664 Eh

Convergence Acceleration:
 DIIS                   CNVDIIS         .... on
   Start iteration      DIISMaxIt       ....     0
   Startup error        DIISStart       ....  0.200000
   # of expansion vecs  DIISMaxEq       ....     5
   Bias factor          DIISBfac        ....   1.050
   Max. coefficient     DIISMaxC        ....  10.000
 Trust-Rad. Augm. Hess. CNVTRAH         .... auto
   Auto Start mean grad. ratio tolernc. ....  1.125000
   Auto Start start iteration           ....    20
   Auto Start num. interpolation iter.  ....    10
   Max. Number of Micro iterations      ....    16
   Max. Number of Macro iterations      .... Maxiter - #DIIS iter
   Number of Davidson start vectors     ....     2
   Converg. threshold I  (grad. norm)   ....   1.000e-05
   Converg. threshold II (energy diff.) ....   1.000e-08
   Grad. Scal. Fac. for Micro threshold ....   0.100
   Minimum threshold for Micro iter.    ....   0.010
   NR start threshold (gradient norm)   ....   0.001
   Initial trust radius                 ....   0.400
   Minimum AH scaling param. (alpha)    ....   1.000
   Maximum AH scaling param. (alpha)    .... 1000.000
   Orbital update algorithm             .... Taylor
   White noise on init. David. guess    .... on
   Maximum white noise                  ....   0.010
   Quad. conv. algorithm                .... NR
 SOSCF                  CNVSOSCF        .... on
   Start iteration      SOSCFMaxIt      ....   150
   Startup grad/error   SOSCFStart      ....  0.001000
 Level Shifting         CNVShift        .... on
   Level shift para.    LevelShift      ....    0.2500
   Turn off err/grad.   ShiftErr        ....    0.0000
 Zerner damping         CNVZerner       .... off
 Static damping         CNVDamp         .... on
   Fraction old density DampFac         ....    0.8500
   Max. Damping (<1)    DampMax         ....    0.9800
   Min. Damping (>=0)   DampMin         ....    0.0000
   Turn off err/grad.   DampErr         ....    0.0300
 Fernandez-Rico         CNVRico         .... off

SCF Procedure:
 Maximum # iterations   MaxIter         ....   125
 SCF integral mode      SCFMode         .... Direct
   Integral package                     .... SHARK and LIBINT hybrid scheme
 Reset frequency        DirectResetFreq ....    20
 Integral Threshold     Thresh          ....  2.500e-11 Eh
 Primitive CutOff       TCut            ....  2.500e-12 Eh

Convergence Tolerance:
 Convergence Check Mode ConvCheckMode   .... Total+1el-Energy
 Convergence forced     ConvForced      .... 0
 Energy Change          TolE            ....  1.000e-08 Eh
 1-El. energy change                    ....  1.000e-05 Eh
 Orbital Gradient       TolG            ....  1.000e-05
 Orbital Rotation angle TolX            ....  1.000e-05
 DIIS Error             TolErr          ....  5.000e-07


Diagonalization of the overlap matrix:
Smallest eigenvalue                        ... 2.117e-03
Time for diagonalization                   ...    0.006 sec
Threshold for overlap eigenvalues          ... 1.000e-08
Number of eigenvalues below threshold      ... 0
Time for construction of square roots      ...    0.004 sec
Total time needed                          ...    0.010 sec

Time for model grid setup =    0.137 sec

------------------------------
INITIAL GUESS: MODEL POTENTIAL
------------------------------
Loading Hartree-Fock densities                     ... done
Calculating cut-offs                               ... done
Initializing the effective Hamiltonian             ... done
Setting up the integral package (SHARK)            ... done
Starting the Coulomb interaction                   ... done (   0.2 sec)
Reading the grid                                   ... done
Mapping shells                                     ... done
Starting the XC term evaluation                    ... done (   0.1 sec)
  promolecular density results
     # of electrons  =     61.995169094
     EX              =    -47.303053050
     EC              =     -2.047708004
     EX+EC           =    -49.350761054
Transforming the Hamiltonian                       ... done (   0.0 sec)
Diagonalizing the Hamiltonian                      ... done (   0.0 sec)
Back transforming the eigenvectors                 ... done (   0.0 sec)
Now organizing SCF variables                       ... done
                      ------------------
                      INITIAL GUESS DONE (   0.4 sec)
                      ------------------
-------------------
DFT GRID GENERATION
-------------------

General Integration Accuracy     IntAcc      ... 4.388
Radial Grid Type                 RadialGrid  ... OptM3 with GC (2021)
Angular Grid (max. ang.)         AngularGrid ... 4 (Lebedev-302)
Angular grid pruning method      GridPruning ... 4 (adaptive)
Weight generation scheme         WeightScheme... Becke
Basis function cutoff            BFCut       ... 1.0000e-11
Integration weight cutoff        WCut        ... 1.0000e-14
Angular grids for H and He will be reduced by one unit
Partially contracted basis set               ... off
Rotationally invariant grid construction     ... off

Total number of grid points                  ...    86474
Total number of batches                      ...     1360
Average number of points per batch           ...       63
Average number of grid points per atom       ...     4324
Time for grid setup =    0.553 sec

--------------------
COSX GRID GENERATION
--------------------

GRIDX 1
-------
General Integration Accuracy     IntAcc      ... 3.816
Radial Grid Type                 RadialGrid  ... OptM3 with GC (2021)
Angular Grid (max. ang.)         AngularGrid ... 1 (Lebedev-50)
Angular grid pruning method      GridPruning ... 4 (adaptive)
Weight generation scheme         WeightScheme... Becke
Basis function cutoff            BFCut       ... 1.0000e-11
Integration weight cutoff        WCut        ... 1.0000e-14
Angular grids for H and He will be reduced by one unit
Partially contracted basis set               ... on
Rotationally invariant grid construction     ... off

Total number of grid points                  ...    11111
Total number of batches                      ...      185
Average number of points per batch           ...       60
Average number of grid points per atom       ...      556
UseSFitting                                  ... on

GRIDX 2
-------
General Integration Accuracy     IntAcc      ... 4.020
Radial Grid Type                 RadialGrid  ... OptM3 with GC (2021)
Angular Grid (max. ang.)         AngularGrid ... 2 (Lebedev-110)
Angular grid pruning method      GridPruning ... 4 (adaptive)
Weight generation scheme         WeightScheme... Becke
Basis function cutoff            BFCut       ... 1.0000e-11
Integration weight cutoff        WCut        ... 1.0000e-14
Angular grids for H and He will be reduced by one unit
Partially contracted basis set               ... on
Rotationally invariant grid construction     ... off

Total number of grid points                  ...    23346
Total number of batches                      ...      375
Average number of points per batch           ...       62
Average number of grid points per atom       ...     1167
UseSFitting                                  ... on

GRIDX 3
-------
General Integration Accuracy     IntAcc      ... 4.338
Radial Grid Type                 RadialGrid  ... OptM3 with GC (2021)
Angular Grid (max. ang.)         AngularGrid ... 3 (Lebedev-194)
Angular grid pruning method      GridPruning ... 4 (adaptive)
Weight generation scheme         WeightScheme... Becke
Basis function cutoff            BFCut       ... 1.0000e-11
Integration weight cutoff        WCut        ... 1.0000e-14
Angular grids for H and He will be reduced by one unit
Partially contracted basis set               ... on
Rotationally invariant grid construction     ... off

Total number of grid points                  ...    51010
Total number of batches                      ...      806
Average number of points per batch           ...       63
Average number of grid points per atom       ...     2550
UseSFitting                                  ... on

Time for X-Grid setup             =    0.647 sec


--------------------
CPCM SOLVATION MODEL
--------------------
CPCM parameters:
  Epsilon                                         ...      80.4000
  Refrac                                          ...       1.3300
  Rsolv                                           ...       1.3000
  Surface type                                    ... GAUSSIAN VDW
  Epsilon function type                           ...         CPCM
Radii:
 Radius for C  used is    3.8550 Bohr (=   2.0400 Ang.)
 Radius for H  used is    2.4944 Bohr (=   1.3200 Ang.)
 Radius for N  used is    3.5149 Bohr (=   1.8600 Ang.)
Calculating surface                               ...        done! (  0.0s)
GEPOL surface points                              ...         1103
GEPOL Volume                                      ...    1050.6423
GEPOL Surface-area                                ...     598.6491
Calculating surface distance matrix               ...        done! (  0.0s)
Performing Cholesky decomposition & store         ...        done! (  0.0s)
Overall time for CPCM initialization              ...                 0.1s
--------------
SCF ITERATIONS
--------------
ITER       Energy         Delta-E        Max-DP      RMS-DP      [F,P]     Damp
               ***  Starting incremental Fock matrix formation  ***
  0   -344.8345319028   0.000000000000 0.03615020  0.00079894  0.1269372 0.8500
  1   -344.8657127775  -0.031180874653 0.03869569  0.00077029  0.1036927 0.8500
                               ***Turning on DIIS***
  2   -344.8897785876  -0.024065810065 0.03399103  0.00063593  0.0810070 0.8500
  3   -344.9078878221  -0.018109234513 0.02737503  0.00045579  0.0625797 0.8500
  4   -344.9219860196  -0.014098197496 0.02228141  0.00034763  0.0502749 0.8500
  5   -344.9331625626  -0.011176543054 0.01857297  0.00028423  0.0417254 0.8500
  6   -344.9422821179  -0.009119555265 0.01572428  0.00023977  0.0351761 0.8500
  7   -344.9498484535  -0.007566335650 0.08997478  0.00138002  0.0298505 0.0000
  8   -344.9905038779  -0.040655424362 0.00187125  0.00006111  0.0014096 0.0000
                      *** Initiating the SOSCF procedure ***
                           *** Shutting down DIIS ***
                      *** Re-Reading the Fockian *** 
                      *** Removing any level shift *** 
ITER      Energy       Delta-E        Grad      Rot      Max-DP    RMS-DP
  9   -344.99052592  -0.0000220404  0.000455  0.000455  0.000937  0.000034
               *** Restarting incremental Fock matrix formation ***
 10   -344.99052012   0.0000058002  0.000374  0.000702  0.001294  0.000024
 11   -344.99052144  -0.0000013190  0.000101  0.000257  0.000456  0.000014
 12   -344.99052187  -0.0000004324  0.000016  0.000033  0.000156  0.000003
 13   -344.99052189  -0.0000000173  0.000005  0.000009  0.000018  0.000001
                  ***Gradient check signals convergence***
              ***Rediagonalizing the Fockian in SOSCF/NRSCF***

               *****************************************************
               *                     SUCCESS                       *
               *           SCF CONVERGED AFTER  14 CYCLES          *
               *****************************************************

Old exchange energy                            =    -15.806856652 Eh
New exchange energy                            =    -15.806816966 Eh
Exchange energy change after final integration =      0.000039686 Eh
Total energy after final integration           =   -344.990482205 Eh
Final COS-X integration done in                =     7.291 sec

----------------
TOTAL SCF ENERGY
----------------

Total Energy       :         -344.99048220 Eh           -9387.66828 eV

Components:
Nuclear Repulsion  :          393.67348377 Eh           10712.40010 eV
Electronic Energy  :         -738.66396597 Eh          -20100.06838 eV
One Electron Energy:        -1245.16551545 Eh          -33882.67624 eV
Two Electron Energy:          506.50154948 Eh           13782.60786 eV
Max COSX asymmetry :            0.00000386 Eh               0.00011 eV
CPCM Dielectric    :           -0.01415811 Eh              -0.38526 eV

Virial components:
Potential Energy   :         -685.78393388 Eh          -18661.12955 eV
Kinetic Energy     :          340.79345168 Eh            9273.46127 eV
Virial Ratio       :            2.01231547


DFT components:
N(Alpha)           :       31.000065132228 electrons
N(Beta)            :       31.000065132228 electrons
N(Total)           :       62.000130264456 electrons
E(XC)              :      -34.913616493713 Eh       
DFET-embed. en.    :        0.000000000000 Eh       
CPCM Solvation Model Properties:
Surface-charge          :           -0.02362139
Charge-correction       :           -0.00060041 Eh              -0.01634 eV
Free-energy (cav+disp)  :  This term is not implemented in the current solvation scheme

---------------
SCF CONVERGENCE
---------------

  Last Energy change         ...   -4.2283e-09  Tolerance :   1.0000e-08
  Last MAX-Density change    ...    3.1134e-15  Tolerance :   1.0000e-07
  Last RMS-Density change    ...    4.3020e-17  Tolerance :   5.0000e-09
  Last Orbital Gradient      ...    1.8446e-06  Tolerance :   1.0000e-05
  Last Orbital Rotation      ...    4.8939e-06  Tolerance :   1.0000e-05

             **** THE GBW FILE WAS UPDATED (10_Water.gbw) ****
             **** DENSITY 10_Water.scfp WAS UPDATED ****
             **** ENERGY FILE WAS UPDATED (10_Water.en.tmp) ****
             **** THE GBW FILE WAS UPDATED (10_Water.gbw) ****
             **** DENSITY 10_Water.scfp WAS UPDATED ****
----------------
ORBITAL ENERGIES
----------------

  NO   OCC          E(Eh)            E(eV) 
   0   2.0000     -14.421260      -392.4224 
   1   2.0000     -14.421253      -392.4223 
   2   2.0000     -10.296957      -280.1944 
   3   2.0000     -10.296957      -280.1944 
   4   2.0000     -10.287996      -279.9506 
   5   2.0000     -10.287974      -279.9500 
   6   2.0000     -10.280226      -279.7392 
   7   2.0000     -10.270664      -279.4790 
   8   2.0000      -1.089260       -29.6403 
   9   2.0000      -1.022332       -27.8191 
  10   2.0000      -0.908914       -24.7328 
  11   2.0000      -0.836801       -22.7705 
  12   2.0000      -0.819249       -22.2929 
  13   2.0000      -0.750034       -20.4095 
  14   2.0000      -0.741609       -20.1802 
  15   2.0000      -0.632625       -17.2146 
  16   2.0000      -0.603561       -16.4237 
  17   2.0000      -0.603106       -16.4113 
  18   2.0000      -0.576713       -15.6932 
  19   2.0000      -0.560056       -15.2399 
  20   2.0000      -0.535886       -14.5822 
  21   2.0000      -0.528972       -14.3941 
  22   2.0000      -0.515020       -14.0144 
  23   2.0000      -0.499781       -13.5997 
  24   2.0000      -0.481259       -13.0957 
  25   2.0000      -0.464422       -12.6376 
  26   2.0000      -0.451929       -12.2976 
  27   2.0000      -0.437916       -11.9163 
  28   2.0000      -0.406842       -11.0707 
  29   2.0000      -0.311333        -8.4718 
  30   2.0000      -0.299257        -8.1432 
  31   0.0000       0.126019         3.4292 
  32   0.0000       0.149228         4.0607 
  33   0.0000       0.169498         4.6123 
  34   0.0000       0.189719         5.1625 
  35   0.0000       0.200602         5.4587 
  36   0.0000       0.215894         5.8748 
  37   0.0000       0.224893         6.1196 
  38   0.0000       0.231287         6.2936 
  39   0.0000       0.235904         6.4193 
  40   0.0000       0.238989         6.5032 
  41   0.0000       0.245860         6.6902 
  42   0.0000       0.247790         6.7427 
  43   0.0000       0.259237         7.0542 
  44   0.0000       0.269420         7.3313 
  45   0.0000       0.274572         7.4715 
  46   0.0000       0.304650         8.2900 
  47   0.0000       0.335416         9.1271 
  48   0.0000       0.341741         9.2992 
  49   0.0000       0.351131         9.5547 
  50   0.0000       0.405088        11.0230 
  51   0.0000       0.460900        12.5417 
  52   0.0000       0.506352        13.7785 
  53   0.0000       0.512663        13.9503 
  54   0.0000       0.526568        14.3287 
  55   0.0000       0.529841        14.4177 
  56   0.0000       0.560632        15.2556 
  57   0.0000       0.572738        15.5850 
  58   0.0000       0.585539        15.9333 
  59   0.0000       0.615260        16.7421 
  60   0.0000       0.644529        17.5385 
  61   0.0000       0.652331        17.7508 
  62   0.0000       0.676481        18.4080 
  63   0.0000       0.687232        18.7005 
  64   0.0000       0.721539        19.6341 
  65   0.0000       0.729222        19.8431 
  66   0.0000       0.737552        20.0698 
  67   0.0000       0.746630        20.3168 
  68   0.0000       0.748900        20.3786 
  69   0.0000       0.758020        20.6268 
  70   0.0000       0.765143        20.8206 
  71   0.0000       0.782626        21.2963 
  72   0.0000       0.785367        21.3709 
  73   0.0000       0.791651        21.5419 
  74   0.0000       0.793579        21.5944 
  75   0.0000       0.799277        21.7494 
  76   0.0000       0.803943        21.8764 
  77   0.0000       0.811338        22.0776 
  78   0.0000       0.813017        22.1233 
  79   0.0000       0.816612        22.2212 
  80   0.0000       0.820575        22.3290 
  81   0.0000       0.830751        22.6059 
  82   0.0000       0.839260        22.8374 
  83   0.0000       0.891895        24.2697 
  84   0.0000       0.927880        25.2489 
  85   0.0000       0.993784        27.0422 
  86   0.0000       1.056672        28.7535 
  87   0.0000       1.062574        28.9141 
  88   0.0000       1.093205        29.7476 
  89   0.0000       1.105219        30.0745 
  90   0.0000       1.164024        31.6747 
  91   0.0000       1.230574        33.4856 
  92   0.0000       1.242371        33.8066 
  93   0.0000       1.310293        35.6549 
  94   0.0000       1.316288        35.8180 
  95   0.0000       1.330468        36.2039 
  96   0.0000       1.336088        36.3568 
  97   0.0000       1.393215        37.9113 
  98   0.0000       1.428947        38.8836 
  99   0.0000       1.481729        40.3199 
 100   0.0000       1.508860        41.0582 
 101   0.0000       1.597245        43.4633 
 102   0.0000       1.611078        43.8397 
 103   0.0000       1.646325        44.7988 
 104   0.0000       1.647228        44.8234 
 105   0.0000       1.675031        45.5799 
 106   0.0000       1.706241        46.4292 
 107   0.0000       1.737132        47.2698 
 108   0.0000       1.769235        48.1433 
 109   0.0000       1.778002        48.3819 
 110   0.0000       1.849853        50.3371 
 111   0.0000       1.850163        50.3455 
 112   0.0000       1.878061        51.1046 
 113   0.0000       1.880432        51.1692 
 114   0.0000       1.880673        51.1757 
 115   0.0000       1.900773        51.7227 
 116   0.0000       1.916786        52.1584 
 117   0.0000       1.917114        52.1673 
 118   0.0000       1.923860        52.3509 
 119   0.0000       1.936298        52.6893 
 120   0.0000       1.943162        52.8761 
 121   0.0000       1.947144        52.9845 
 122   0.0000       1.973278        53.6956 
 123   0.0000       1.984865        54.0109 
 124   0.0000       2.010870        54.7185 
 125   0.0000       2.014759        54.8244 
 126   0.0000       2.026595        55.1465 
 127   0.0000       2.077039        56.5191 
 128   0.0000       2.083798        56.7030 
 129   0.0000       2.094650        56.9983 
 130   0.0000       2.136119        58.1268 
 131   0.0000       2.152450        58.5711 
 132   0.0000       2.168411        59.0055 
 133   0.0000       2.182964        59.4015 
 134   0.0000       2.234920        60.8153 
 135   0.0000       2.281095        62.0717 
 136   0.0000       2.288037        62.2606 
 137   0.0000       2.306286        62.7572 
 138   0.0000       2.367033        64.4102 
 139   0.0000       2.380826        64.7856 
 140   0.0000       2.428001        66.0693 
 141   0.0000       2.431112        66.1539 
 142   0.0000       2.458519        66.8997 
 143   0.0000       2.462815        67.0166 
 144   0.0000       2.531938        68.8975 
 145   0.0000       2.552395        69.4542 
 146   0.0000       2.569239        69.9126 
 147   0.0000       2.617936        71.2377 
 148   0.0000       2.647898        72.0530 
 149   0.0000       2.689805        73.1933 
 150   0.0000       2.727875        74.2293 
 151   0.0000       2.752827        74.9082 
 152   0.0000       2.761883        75.1547 
 153   0.0000       2.773748        75.4775 
 154   0.0000       2.827736        76.9466 
 155   0.0000       2.851625        77.5967 
 156   0.0000       2.889093        78.6162 
 157   0.0000       2.923267        79.5461 
 158   0.0000       2.985346        81.2354 
 159   0.0000       2.997590        81.5686 
 160   0.0000       3.018461        82.1365 
 161   0.0000       3.034329        82.5683 
 162   0.0000       3.044028        82.8322 
 163   0.0000       3.057745        83.2055 
 164   0.0000       3.068311        83.4930 
 165   0.0000       3.113766        84.7299 
 166   0.0000       3.138088        85.3917 
 167   0.0000       3.154842        85.8476 
 168   0.0000       3.204141        87.1891 
 169   0.0000       3.247733        88.3753 
 170   0.0000       3.377113        91.8959 
 171   0.0000       3.509479        95.4978 

                    ********************************
                    * MULLIKEN POPULATION ANALYSIS *
                    ********************************

-----------------------
MULLIKEN ATOMIC CHARGES
-----------------------
   0 C :    0.117026
   1 C :   -0.179367
   2 C :    0.117027
   3 C :   -0.062416
   4 H :    0.040434
   5 H :    0.041873
   6 H :    0.042857
   7 N :   -0.345215
   8 N :   -0.345215
   9 H :    0.040434
  10 H :    0.050979
  11 H :    0.041873
  12 C :    0.115269
  13 H :    0.030623
  14 H :    0.038973
  15 H :    0.034990
  16 C :    0.115269
  17 H :    0.038973
  18 H :    0.030623
  19 H :    0.034990
Sum of atomic charges:   -0.0000000

--------------------------------
MULLIKEN REDUCED ORBITAL CHARGES
--------------------------------
  0 C s       :     2.994993  s :     2.994993
      pz      :     1.018153  p :     2.840959
      px      :     1.022060
      py      :     0.800747
      dz2     :     0.009774  d :     0.047022
      dxz     :     0.005874
      dyz     :     0.007531
      dx2y2   :     0.014574
      dxy     :     0.009269
  1 C s       :     3.553114  s :     3.553114
      pz      :     0.697010  p :     2.558375
      px      :     0.623625
      py      :     1.237741
      dz2     :     0.009888  d :     0.067878
      dxz     :     0.019574
      dyz     :     0.025080
      dx2y2   :     0.005758
      dxy     :     0.007578
  2 C s       :     2.994993  s :     2.994993
      pz      :     1.018153  p :     2.840959
      px      :     1.022059
      py      :     0.800747
      dz2     :     0.009774  d :     0.047022
      dxz     :     0.005874
      dyz     :     0.007531
      dx2y2   :     0.014574
      dxy     :     0.009269
  3 C s       :     3.041993  s :     3.041993
      pz      :     0.955436  p :     2.986303
      px      :     1.017407
      py      :     1.013460
      dz2     :     0.009528  d :     0.034120
      dxz     :     0.006392
      dyz     :     0.006150
      dx2y2   :     0.008988
      dxy     :     0.003062
  4 H s       :     0.937806  s :     0.937806
      pz      :     0.004041  p :     0.021760
      px      :     0.014749
      py      :     0.002970
  5 H s       :     0.935970  s :     0.935970
      pz      :     0.011297  p :     0.022157
      px      :     0.007063
      py      :     0.003796
  6 H s       :     0.934814  s :     0.934814
      pz      :     0.003339  p :     0.022329
      px      :     0.014912
      py      :     0.004079
  7 N s       :     3.421380  s :     3.421380
      pz      :     1.144232  p :     3.895503
      px      :     1.622242
      py      :     1.129029
      dz2     :     0.008240  d :     0.028332
      dxz     :     0.003749
      dyz     :     0.009093
      dx2y2   :     0.004139
      dxy     :     0.003111
  8 N s       :     3.421380  s :     3.421380
      pz      :     1.144233  p :     3.895503
      px      :     1.622242
      py      :     1.129029
      dz2     :     0.008240  d :     0.028332
      dxz     :     0.003749
      dyz     :     0.009093
      dx2y2   :     0.004139
      dxy     :     0.003111
  9 H s       :     0.937806  s :     0.937806
      pz      :     0.004041  p :     0.021760
      px      :     0.014749
      py      :     0.002970
 10 H s       :     0.926242  s :     0.926242
      pz      :     0.003574  p :     0.022779
      px      :     0.004923
      py      :     0.014282
 11 H s       :     0.935970  s :     0.935970
      pz      :     0.011297  p :     0.022157
      px      :     0.007063
      py      :     0.003796
 12 C s       :     2.990954  s :     2.990954
      pz      :     0.841955  p :     2.854177
      px      :     1.028818
      py      :     0.983405
      dz2     :     0.008015  d :     0.039600
      dxz     :     0.013140
      dyz     :     0.008728
      dx2y2   :     0.007218
      dxy     :     0.002499
 13 H s       :     0.946109  s :     0.946109
      pz      :     0.003469  p :     0.023268
      px      :     0.004946
      py      :     0.014854
 14 H s       :     0.938060  s :     0.938060
      pz      :     0.006868  p :     0.022966
      px      :     0.010940
      py      :     0.005158
 15 H s       :     0.942034  s :     0.942034
      pz      :     0.005777  p :     0.022976
      px      :     0.012731
      py      :     0.004468
 16 C s       :     2.990954  s :     2.990954
      pz      :     0.841955  p :     2.854178
      px      :     1.028818
      py      :     0.983405
      dz2     :     0.008015  d :     0.039600
      dxz     :     0.013140
      dyz     :     0.008728
      dx2y2   :     0.007218
      dxy     :     0.002499
 17 H s       :     0.938060  s :     0.938060
      pz      :     0.006868  p :     0.022966
      px      :     0.010940
      py      :     0.005158
 18 H s       :     0.946109  s :     0.946109
      pz      :     0.003469  p :     0.023268
      px      :     0.004946
      py      :     0.014854
 19 H s       :     0.942035  s :     0.942035
      pz      :     0.005777  p :     0.022976
      px      :     0.012731
      py      :     0.004468


                     *******************************
                     * LOEWDIN POPULATION ANALYSIS *
                     *******************************

----------------------
LOEWDIN ATOMIC CHARGES
----------------------
   0 C :    0.037042
   1 C :   -0.271641
   2 C :    0.037042
   3 C :   -0.046130
   4 H :    0.024211
   5 H :    0.030106
   6 H :    0.032103
   7 N :   -0.061807
   8 N :   -0.061807
   9 H :    0.024211
  10 H :    0.040669
  11 H :    0.030106
  12 C :    0.026846
  13 H :    0.022698
  14 H :    0.021822
  15 H :    0.021582
  16 C :    0.026846
  17 H :    0.021822
  18 H :    0.022698
  19 H :    0.021582

-------------------------------
LOEWDIN REDUCED ORBITAL CHARGES
-------------------------------
  0 C s       :     2.834055  s :     2.834055
      pz      :     1.050673  p :     3.016024
      px      :     1.071242
      py      :     0.894110
      dz2     :     0.024019  d :     0.112879
      dxz     :     0.014301
      dyz     :     0.018445
      dx2y2   :     0.034793
      dxy     :     0.021321
  1 C s       :     3.163671  s :     3.163671
      pz      :     0.867743  p :     2.955524
      px      :     0.673701
      py      :     1.414080
      dz2     :     0.032611  d :     0.152446
      dxz     :     0.042571
      dyz     :     0.057368
      dx2y2   :     0.009136
      dxy     :     0.010760
  2 C s       :     2.834055  s :     2.834055
      pz      :     1.050673  p :     3.016025
      px      :     1.071242
      py      :     0.894110
      dz2     :     0.024019  d :     0.112878
      dxz     :     0.014301
      dyz     :     0.018445
      dx2y2   :     0.034793
      dxy     :     0.021321
  3 C s       :     2.834497  s :     2.834497
      pz      :     1.017353  p :     3.125250
      px      :     1.058980
      py      :     1.048917
      dz2     :     0.023984  d :     0.086383
      dxz     :     0.014924
      dyz     :     0.016767
      dx2y2   :     0.023622
      dxy     :     0.007085
  4 H s       :     0.910365  s :     0.910365
      pz      :     0.013188  p :     0.065425
      px      :     0.040684
      py      :     0.011553
  5 H s       :     0.904176  s :     0.904176
      pz      :     0.032761  p :     0.065718
      px      :     0.019593
      py      :     0.013365
  6 H s       :     0.901994  s :     0.901994
      pz      :     0.012562  p :     0.065903
      px      :     0.040884
      py      :     0.012458
  7 N s       :     3.074510  s :     3.074510
      pz      :     1.192172  p :     3.921491
      px      :     1.554458
      py      :     1.174861
      dz2     :     0.019838  d :     0.065806
      dxz     :     0.006586
      dyz     :     0.024743
      dx2y2   :     0.009150
      dxy     :     0.005489
  8 N s       :     3.074510  s :     3.074510
      pz      :     1.192172  p :     3.921491
      px      :     1.554458
      py      :     1.174861
      dz2     :     0.019838  d :     0.065806
      dxz     :     0.006586
      dyz     :     0.024743
      dx2y2   :     0.009150
      dxy     :     0.005489
  9 H s       :     0.910365  s :     0.910365
      pz      :     0.013188  p :     0.065425
      px      :     0.040684
      py      :     0.011553
 10 H s       :     0.893221  s :     0.893221
      pz      :     0.012876  p :     0.066110
      px      :     0.014134
      py      :     0.039100
 11 H s       :     0.904175  s :     0.904175
      pz      :     0.032761  p :     0.065718
      px      :     0.019593
      py      :     0.013365
 12 C s       :     2.835599  s :     2.835599
      pz      :     0.927755  p :     3.039418
      px      :     1.077169
      py      :     1.034494
      dz2     :     0.018685  d :     0.098137
      dxz     :     0.033866
      dyz     :     0.020835
      dx2y2   :     0.019489
      dxy     :     0.005263
 13 H s       :     0.910978  s :     0.910978
      pz      :     0.010617  p :     0.066324
      px      :     0.013006
      py      :     0.042701
 14 H s       :     0.913895  s :     0.913895
      pz      :     0.020717  p :     0.064283
      px      :     0.029299
      py      :     0.014267
 15 H s       :     0.914128  s :     0.914128
      pz      :     0.017606  p :     0.064289
      px      :     0.034355
      py      :     0.012329
 16 C s       :     2.835599  s :     2.835599
      pz      :     0.927755  p :     3.039418
      px      :     1.077169
      py      :     1.034494
      dz2     :     0.018685  d :     0.098137
      dxz     :     0.033866
      dyz     :     0.020835
      dx2y2   :     0.019489
      dxy     :     0.005263
 17 H s       :     0.913895  s :     0.913895
      pz      :     0.020717  p :     0.064283
      px      :     0.029299
      py      :     0.014267
 18 H s       :     0.910978  s :     0.910978
      pz      :     0.010617  p :     0.066324
      px      :     0.013006
      py      :     0.042701
 19 H s       :     0.914128  s :     0.914128
      pz      :     0.017606  p :     0.064289
      px      :     0.034355
      py      :     0.012329


                      *****************************
                      * MAYER POPULATION ANALYSIS *
                      *****************************

  NA   - Mulliken gross atomic population
  ZA   - Total nuclear charge
  QA   - Mulliken gross atomic charge
  VA   - Mayer's total valence
  BVA  - Mayer's bonded valence
  FA   - Mayer's free valence

  ATOM       NA         ZA         QA         VA         BVA        FA
  0 C      5.8830     6.0000     0.1170     3.9568     3.9568     0.0000
  1 C      6.1794     6.0000    -0.1794     2.7532     2.7532     0.0000
  2 C      5.8830     6.0000     0.1170     3.9568     3.9568     0.0000
  3 C      6.0624     6.0000    -0.0624     4.0897     4.0897    -0.0000
  4 H      0.9596     1.0000     0.0404     0.9841     0.9841    -0.0000
  5 H      0.9581     1.0000     0.0419     0.9872     0.9872     0.0000
  6 H      0.9571     1.0000     0.0429     0.9820     0.9820    -0.0000
  7 N      7.3452     7.0000    -0.3452     3.2596     3.2596     0.0000
  8 N      7.3452     7.0000    -0.3452     3.2596     3.2596    -0.0000
  9 H      0.9596     1.0000     0.0404     0.9841     0.9841    -0.0000
 10 H      0.9490     1.0000     0.0510     0.9832     0.9832    -0.0000
 11 H      0.9581     1.0000     0.0419     0.9872     0.9872     0.0000
 12 C      5.8847     6.0000     0.1153     3.8932     3.8932     0.0000
 13 H      0.9694     1.0000     0.0306     1.0296     1.0296     0.0000
 14 H      0.9610     1.0000     0.0390     0.9910     0.9910    -0.0000
 15 H      0.9650     1.0000     0.0350     0.9898     0.9898    -0.0000
 16 C      5.8847     6.0000     0.1153     3.8932     3.8932     0.0000
 17 H      0.9610     1.0000     0.0390     0.9910     0.9910    -0.0000
 18 H      0.9694     1.0000     0.0306     1.0296     1.0296     0.0000
 19 H      0.9650     1.0000     0.0350     0.9898     0.9898    -0.0000

  Mayer bond orders larger than 0.100000
B(  0-C ,  3-C ) :   1.0700 B(  0-C ,  4-H ) :   0.9570 B(  0-C ,  7-N ) :   0.9147 
B(  0-C , 11-H ) :   0.9550 B(  1-C ,  7-N ) :   1.2872 B(  1-C ,  8-N ) :   1.2872 
B(  2-C ,  3-C ) :   1.0700 B(  2-C ,  5-H ) :   0.9550 B(  2-C ,  8-N ) :   0.9147 
B(  2-C ,  9-H ) :   0.9570 B(  3-C ,  6-H ) :   0.9509 B(  3-C , 10-H ) :   0.9495 
B(  7-N , 12-C ) :   0.9715 B(  8-N , 16-C ) :   0.9715 B( 12-C , 13-H ) :   0.9707 
B( 12-C , 14-H ) :   0.9762 B( 12-C , 15-H ) :   0.9744 B( 16-C , 17-H ) :   0.9762 
B( 16-C , 18-H ) :   0.9707 B( 16-C , 19-H ) :   0.9744 

-------
TIMINGS
-------

Total SCF time: 0 days 0 hours 0 min 52 sec 

Total time                  ....      52.997 sec
Sum of individual times     ....      52.130 sec  ( 98.4%)

Fock matrix formation       ....      50.299 sec  ( 94.9%)
  Split-RI-J                ....       2.159 sec  (  4.3% of F)
  Chain of spheres X        ....      37.517 sec  ( 74.6% of F)
  XC integration            ....       6.057 sec  ( 12.0% of F)
    Basis function eval.    ....       1.756 sec  ( 29.0% of XC)
    Density eval.           ....       1.095 sec  ( 18.1% of XC)
    XC-Functional eval.     ....       0.728 sec  ( 12.0% of XC)
    XC-Potential eval.      ....       1.291 sec  ( 21.3% of XC)
Diagonalization             ....       0.074 sec  (  0.1%)
Density matrix formation    ....       0.006 sec  (  0.0%)
Population analysis         ....       0.076 sec  (  0.1%)
Initial guess               ....       0.256 sec  (  0.5%)
Orbital Transformation      ....       0.000 sec  (  0.0%)
Orbital Orthonormalization  ....       0.000 sec  (  0.0%)
DIIS solution               ....       0.052 sec  (  0.1%)
SOSCF solution              ....       0.030 sec  (  0.1%)
Grid generation             ....       1.338 sec  (  2.5%)

Maximum memory used throughout the entire SCF-calculation: 54.8 MB


-------------------------------------------------------------------------------
                          DFT DISPERSION CORRECTION                            
                                                                               
                                 DFTD4 V2.5                                    
-------------------------------------------------------------------------------
The WB97X functional is recognized
Active option DFTDOPT                   ...         5   

Starting D4
-------------------------   ----------------
Dispersion correction           -0.002570583
-------------------------   ----------------


-------------------------   --------------------
FINAL SINGLE POINT ENERGY      -344.993052787640
-------------------------   --------------------



           ************************************************************
           *        Program running with 4 parallel MPI-processes     *
           *              working on a common directory               *
           ************************************************************
------------------------------------------------------------------------------
                         ORCA SCF GRADIENT CALCULATION
------------------------------------------------------------------------------

 ... reading COSX grid (gridx3)
Gradient of the Kohn-Sham DFT energy:
Kohn-Sham wavefunction type      ... RKS
Hartree-Fock exchange scaling    ...    0.158
Number of operators              ...    1
Number of atoms                  ...   20
Basis set dimensions             ...  172
Integral neglect threshold       ... 2.5e-11
Integral primitive cutoff        ... 2.5e-12
SHARK Integral package           ... ON

Nuc. rep. gradient       (SHARK) ... done (  0.0 sec)
HCore & Overlap gradient (SHARK) ... done (  0.1 sec)
RI-J gradient            (SHARK) ... done (  0.5 sec)
COSX-gradient                    ... done (  7.5 sec)
Exchange-correlation gradient    ... done
Dispersion correction            ... Starting D4
Starting D4
Starting D4
Starting D4


------------------- 
Dispersion Gradient 
------------------- 
   1  :   -0.000005618    0.000024769    0.000025090
   2  :    0.000000664   -0.000013917    0.000000000
   3  :   -0.000005618    0.000024769   -0.000025090
   4  :    0.000008678    0.000037001    0.000000000
   5  :    0.000002660    0.000000710    0.000002681
   6  :    0.000000163    0.000000546   -0.000003187
   7  :   -0.000002499    0.000004450    0.000000000
   8  :   -0.000000437   -0.000004321    0.000019719
   9  :   -0.000000437   -0.000004321   -0.000019719
  10  :    0.000002660    0.000000710   -0.000002681
  11  :    0.000000616    0.000009020    0.000000000
  12  :    0.000000163    0.000000546    0.000003187
  13  :   -0.000000519   -0.000023652    0.000051848
  14  :   -0.000000018   -0.000004402    0.000010183
  15  :   -0.000000763   -0.000006170    0.000008496
  16  :    0.000000802   -0.000005758    0.000008843
  17  :   -0.000000519   -0.000023652   -0.000051848
  18  :   -0.000000763   -0.000006170   -0.000008496
  19  :   -0.000000018   -0.000004402   -0.000010183
  20  :    0.000000802   -0.000005758   -0.000008843

  |G| =    0.000066280

done

------------------
CARTESIAN GRADIENT
------------------

   1   C   :   -0.003379330    0.008457571    0.006747959
   2   C   :    0.000730963   -0.005190393   -0.000000014
   3   C   :   -0.003379330    0.008457610   -0.006748099
   4   C   :    0.004196115    0.004714813    0.000000068
   5   H   :    0.002086650   -0.000884799   -0.000237862
   6   H   :   -0.001029619   -0.000865528    0.002027027
   7   H   :   -0.000792430   -0.000066131    0.000000002
   8   N   :    0.000504423   -0.002683772    0.000270330
   9   N   :    0.000504454   -0.002683788   -0.000270291
  10   H   :    0.002086636   -0.000884820    0.000237867
  11   H   :   -0.000150794   -0.000644761   -0.000000001
  12   H   :   -0.001029614   -0.000865521   -0.002027004
  13   C   :    0.000180989   -0.006250205    0.008024236
  14   H   :   -0.000333061    0.003649206    0.000752571
  15   H   :   -0.002167915   -0.000635021   -0.001893832
  16   H   :    0.002226788   -0.000267429   -0.001458104
  17   C   :    0.000180974   -0.006250248   -0.008024248
  18   H   :   -0.002167924   -0.000635016    0.001893841
  19   H   :   -0.000333058    0.003649198   -0.000752580
  20   H   :    0.002226788   -0.000267423    0.001458164

Difference to translation invariance:
           :    0.0001617058   -0.0001464550    0.0000000308

Difference to rotation invariance:
           :   -0.0000002300    0.0000000905    0.0002487643

Norm of the cartesian gradient     ...    0.0250856908
RMS gradient                       ...    0.0032385488
MAX gradient                       ...    0.0084576098

-------
TIMINGS
-------

Total SCF gradient time            ...       10.639 sec

One electron gradient       ....       0.080 sec  (  0.8%)
RI-J Coulomb gradient       ....       0.470 sec  (  4.4%)
COSX gradient               ....       7.538 sec  ( 70.9%)
XC gradient                 ....       1.716 sec  ( 16.1%)
CPCM gradient               ....       0.256 sec  (  2.4%)
   A-Matrix (El+Nuc)        ....       0.060 sec  (  0.6%)
   Potential                ....       0.197 sec  (  1.8%)

Maximum memory used throughout the entire SCFGRAD-calculation: 42.5 MB
------------------------------------------------------------------------------
                         ORCA GEOMETRY RELAXATION STEP
------------------------------------------------------------------------------

Reading the OPT-File                    .... done
Getting information on internals        .... done
Copying old internal coords+grads       .... done
Making the new internal coordinates     .... (new redundants).... done
Validating the new internal coordinates .... (new redundants).... done
Calculating the B-matrix                .... done
Calculating the G,G- and P matrices     .... done
Transforming gradient to internals      .... done
Projecting the internal gradient        .... done
Number of atoms                         ....  20
Number of internal coordinates          .... 103
Current Energy                          ....  -344.993052788 Eh
Current gradient norm                   ....     0.025085691 Eh/bohr
Maximum allowed component of the step   ....  0.300
Current trust radius                    ....  0.300
Evaluating the initial hessian          ....  (Almloef) done
Projecting the Hessian                  .... done
Forming the augmented Hessian           .... done
Diagonalizing the augmented Hessian     .... done
Last element of RFO vector              ....  0.998523355
Lowest eigenvalues of augmented Hessian:
 -0.001076972  0.015536121  0.015676414  0.016138323  0.016140404
Length of the computed step             ....  0.054404455
The final length of the internal step   ....  0.054404455
Converting the step to cartesian space:
 Initial RMS(Int)=    0.0053606302
Transforming coordinates:
 Iter   0:  RMS(Cart)=    0.0123853489 RMS(Int)=    0.0053612958
 Iter   1:  RMS(Cart)=    0.0000127910 RMS(Int)=    0.0000089182
 Iter   2:  RMS(Cart)=    0.0000000575 RMS(Int)=    0.0000000330
done
Storing new coordinates                 .... done

                                .--------------------.
          ----------------------|Geometry convergence|-------------------------
          Item                value                   Tolerance       Converged
          ---------------------------------------------------------------------
          RMS gradient        0.0020993622            0.0001000000      NO
          MAX gradient        0.0087396786            0.0003000000      NO
          RMS step            0.0053606302            0.0020000000      NO
          MAX step            0.0213886987            0.0040000000      NO
          ........................................................
          Max(Bonds)      0.0113      Max(Angles)    0.19
          Max(Dihed)        0.26      Max(Improp)    0.00
          ---------------------------------------------------------------------

The optimization has not yet converged - more geometry cycles are needed


    ---------------------------------------------------------------------------
                         Redundant Internal Coordinates
                            (Angstroem and degrees)

        Definition                    Value    dE/dq     Step     New-Value
    ----------------------------------------------------------------------------
     1. B(C   3,C   2)                1.5246  0.005183 -0.0069    1.5177   
     2. B(C   3,C   0)                1.5246  0.005183 -0.0069    1.5177   
     3. B(H   4,C   0)                1.1022 -0.002230  0.0034    1.1056   
     4. B(H   5,C   2)                1.0979 -0.002428  0.0037    1.1015   
     5. B(H   6,C   3)                1.1011 -0.000791  0.0012    1.1023   
     6. B(N   7,C   1)                1.3495  0.006187 -0.0052    1.3444   
     7. B(N   7,C   0)                1.4758  0.008740 -0.0113    1.4645   
     8. B(N   8,C   2)                1.4758  0.008740 -0.0113    1.4645   
     9. B(N   8,C   1)                1.3495  0.006187 -0.0052    1.3444   
    10. B(H   9,C   2)                1.1022 -0.002230  0.0034    1.1056   
    11. B(H  10,C   3)                1.0990 -0.000580  0.0009    1.0999   
    12. B(H  11,C   0)                1.0979 -0.002428  0.0037    1.1015   
    13. B(C  12,N   7)                1.4585  0.006428 -0.0078    1.4507   
    14. B(H  13,C  12)                1.0913 -0.003747  0.0055    1.0968   
    15. B(H  14,C  12)                1.0990 -0.002933  0.0044    1.1034   
    16. B(H  15,C  12)                1.0999 -0.002655  0.0040    1.1039   
    17. B(C  16,N   8)                1.4585  0.006428 -0.0078    1.4507   
    18. B(H  17,C  16)                1.0990 -0.002933  0.0044    1.1034   
    19. B(H  18,C  16)                1.0913 -0.003747  0.0055    1.0968   
    20. B(H  19,C  16)                1.0999 -0.002655  0.0040    1.1039   
    21. A(C   3,C   0,H  11)          110.60  0.000026   -0.02    110.58   
    22. A(C   3,C   0,H   4)          110.89  0.000022   -0.03    110.86   
    23. A(H   4,C   0,H  11)          107.36  0.000111   -0.04    107.31   
    24. A(C   3,C   0,N   7)          110.10  0.000319   -0.02    110.08   
    25. A(H   4,C   0,N   7)          109.54 -0.000388    0.13    109.66   
    26. A(N   7,C   0,H  11)          108.28 -0.000106   -0.01    108.27   
[...]
     28       0.000774   0.031123   0.130355  -0.126214   0.008495   0.024068
     29       0.000895  -0.018025  -0.067443   0.065811  -0.006261  -0.014438
     30      -0.000000   0.000435   0.000001  -0.011712  -0.129320   0.000001
     31       0.000000  -0.004334  -0.000002   0.043189   0.466146  -0.000003
     32       0.000974   0.000000   0.005756   0.000000   0.000000  -0.000777
     33       0.002070   0.039419  -0.135413  -0.127469  -0.064350   0.148346
     34      -0.000086   0.022823  -0.084831  -0.080198  -0.046934   0.102407
     35       0.003094   0.062694  -0.212727  -0.203070  -0.108305   0.257583
     36      -0.002925  -0.002486  -0.001566  -0.002363   0.000553  -0.058574
     37      -0.001939  -0.002220   0.000169  -0.000603  -0.000217  -0.004060
     38       0.036884   0.035685   0.000409   0.010330  -0.000361  -0.003030
     39      -0.022811  -0.022052  -0.000151  -0.006126  -0.000130  -0.005568
     40       0.245810   0.238311  -0.001319   0.063083   0.000198  -0.014599
     41       0.044056   0.042839  -0.001000   0.010227   0.000195  -0.002258
     42      -0.352825  -0.341252   0.004732  -0.087259  -0.000761   0.338121
     43      -0.138478  -0.133798   0.002471  -0.033148   0.000063   0.140865
     44      -0.252522  -0.245027   0.003145  -0.063799  -0.000820   0.255818
     45       0.410216   0.393450   0.012141   0.119875  -0.006169   0.363408
     46      -0.078348  -0.074982  -0.001488  -0.021529   0.001298  -0.077394
     47      -0.232125  -0.223104  -0.008566  -0.070554   0.003811  -0.217377
     48       0.002924  -0.002486   0.001566  -0.002363   0.000553   0.058583
     49       0.001939  -0.002220  -0.000169  -0.000603  -0.000217   0.004061
     50       0.036882  -0.035687   0.000411  -0.010330   0.000361  -0.003031
     51       0.352802  -0.341278  -0.004715  -0.087262  -0.000761  -0.338175
     52       0.138468  -0.133807  -0.002464  -0.033149   0.000063  -0.140887
     53      -0.252505   0.245045   0.003133   0.063801   0.000820   0.255858
     54       0.022808  -0.022053   0.000152  -0.006126  -0.000130   0.005569
     55      -0.245793   0.238328   0.001307   0.063084   0.000198   0.014598
     56       0.044053  -0.042842  -0.000998  -0.010227  -0.000195  -0.002258
     57      -0.410187   0.393477  -0.012161   0.119876  -0.006169  -0.363465
     58       0.078344  -0.074988   0.001492  -0.021530   0.001298   0.077408
     59      -0.232109   0.223121  -0.008577   0.070555  -0.003811  -0.217412
                 54         55         56         57         58         59    
      0      -0.012820   0.041902   0.043585  -0.006692   0.000504   0.000491
      1      -0.004407   0.011884   0.012265   0.000223  -0.000324  -0.000285
      2      -0.013663   0.037718   0.040767  -0.001131   0.000001   0.000076
      3      -0.000790   0.000000   0.000456  -0.000161  -0.000029  -0.000000
      4       0.000186  -0.000000  -0.000513  -0.000119   0.000010   0.000000
      5       0.000000  -0.000621   0.000000  -0.000000  -0.000003   0.000829
      6      -0.012816  -0.041901   0.043588  -0.006692   0.000507  -0.000488
      7      -0.004406  -0.011884   0.012266   0.000222  -0.000326   0.000283
      8       0.013659   0.037716  -0.040769   0.001132  -0.000002   0.000076
      9      -0.003689   0.000000   0.008148  -0.058636  -0.000182  -0.000001
     10      -0.003798   0.000000   0.013098   0.072925  -0.000099  -0.000000
     11       0.000000  -0.000740   0.000000   0.000000  -0.000000   0.000074
     12       0.059872  -0.224323  -0.233220   0.058944  -0.004348  -0.004334
     13      -0.014333   0.047698   0.048977  -0.011545   0.000319   0.000557
     14      -0.008526   0.031357   0.033072  -0.009369   0.000642   0.000652
     15       0.095045   0.272974  -0.287980   0.016861  -0.000535   0.000771
     16       0.065897   0.185154  -0.194229   0.009925  -0.001799   0.001721
     17      -0.165457  -0.473454   0.500058  -0.027298   0.000445  -0.001230
     18       0.053538  -0.000006  -0.126581   0.492828   0.001603   0.000005
     19      -0.002819   0.000000   0.006512  -0.024839  -0.000039  -0.000000
     20      -0.000000   0.001773   0.000000  -0.000000   0.000000  -0.000110
     21       0.000449  -0.000012  -0.000116   0.000116  -0.000078  -0.000113
     22      -0.000013  -0.000099  -0.000125  -0.000415   0.000145   0.000456
     23      -0.000038   0.000136   0.000011   0.000194   0.000688   0.000596
     24       0.000449   0.000012  -0.000116   0.000116  -0.000079   0.000113
     25      -0.000013   0.000099  -0.000125  -0.000415   0.000148  -0.000455
     26       0.000038   0.000136  -0.000011  -0.000194  -0.000691   0.000591
     27       0.059853   0.224317  -0.233237   0.058944  -0.004376   0.004306
     28      -0.014329  -0.047697   0.048980  -0.011545   0.000323  -0.000555
     29       0.008523   0.031355  -0.033074   0.009369  -0.000646   0.000648
     30      -0.011792   0.000001   0.038843   0.211684  -0.000046  -0.000000
     31       0.046643  -0.000004  -0.155206  -0.832543   0.001409   0.000005
     32      -0.000000   0.000627   0.000000  -0.000000   0.000002  -0.000512
     33       0.095074  -0.272988  -0.287967   0.016860  -0.000530  -0.000775
     34       0.065916  -0.185163  -0.194220   0.009924  -0.001787  -0.001733
     35       0.165507  -0.473477  -0.500033   0.027296  -0.000437  -0.001233
     36      -0.063212  -0.031369  -0.020558   0.000517  -0.005235  -0.005278
     37      -0.004452  -0.002644  -0.001840   0.000042   0.060825   0.061243
     38      -0.003544  -0.001733  -0.000629   0.000234   0.023040   0.023147
     39      -0.006151  -0.004329  -0.003414   0.000074   0.059008   0.059424
     40      -0.016223  -0.003697   0.000719   0.000347  -0.647288  -0.651766
     41      -0.002649  -0.001437  -0.000825   0.000034  -0.114560  -0.115397
     42       0.366721   0.179992   0.113233  -0.004212  -0.136839  -0.137324
     43       0.153176   0.077289   0.049436  -0.001757  -0.050812  -0.050924
     44       0.277206   0.134634   0.084022  -0.003215  -0.095919  -0.096252
     45       0.390028   0.194145   0.131210  -0.001656   0.140647   0.141300
     46      -0.083184  -0.041595  -0.028034   0.000572  -0.023530  -0.023617
     47      -0.232985  -0.114851  -0.077342   0.000598  -0.077454  -0.077847
     48      -0.063204   0.031366  -0.020559   0.000517  -0.005270   0.005243
     49      -0.004451   0.002644  -0.001840   0.000042   0.061226  -0.060842
     50       0.003543  -0.001733   0.000629  -0.000234  -0.023192   0.022995
     51       0.366677  -0.179978   0.113242  -0.004212  -0.137737   0.136420
     52       0.153157  -0.077282   0.049440  -0.001757  -0.051144   0.050587
     53      -0.277172   0.134622  -0.084028   0.003215   0.096547  -0.095618
     54      -0.006151   0.004329  -0.003415   0.000074   0.059396  -0.059033
     55      -0.016217   0.003694   0.000721   0.000347  -0.651558   0.647498
     56       0.002648  -0.001437   0.000825  -0.000034   0.115316  -0.114642
     57       0.389979  -0.194128   0.131218  -0.001656   0.141574  -0.140374
     58      -0.083175   0.041592  -0.028037   0.000572  -0.023686   0.023462
     59       0.232957  -0.114841   0.077347  -0.000598   0.077965  -0.077338


-----------
IR SPECTRUM
-----------

 Mode   freq       eps      Int      T**2         TX        TY        TZ
       cm**-1   L/(mol*cm) km/mol    a.u.
----------------------------------------------------------------------------
  6:     99.62   0.000009    0.05  0.000029  (-0.000001 -0.000000  0.005413)
  7:    114.74   0.001263    6.38  0.003434  (-0.057843 -0.009413 -0.000001)
  8:    138.29   0.000126    0.64  0.000285  ( 0.000004  0.000000 -0.016869)
  9:    205.94   0.001867    9.43  0.002829  ( 0.052980  0.004660  0.000000)
 10:    279.74   0.002226   11.25  0.002483  (-0.049827  0.000671 -0.000000)
 11:    295.11   0.000009    0.05  0.000010  (-0.000002 -0.000000  0.003126)
 12:    329.89   0.000805    4.07  0.000761  ( 0.019328  0.019689 -0.000000)
 13:    438.47   0.000280    1.41  0.000199  ( 0.000000  0.000000  0.014105)
 14:    459.70   0.000122    0.62  0.000083  (-0.004101 -0.008136 -0.000000)
 15:    485.13   0.005724   28.93  0.003682  (-0.000000  0.000000  0.060680)
 16:    527.14   0.000779    3.94  0.000461  ( 0.001600  0.021421 -0.000000)
 17:    622.13   0.000061    0.31  0.000031  (-0.003665 -0.004158 -0.000000)
 18:    810.66   0.000778    3.93  0.000300  ( 0.001539  0.017242 -0.000000)
 19:    886.05   0.001725    8.72  0.000607  (-0.000000  0.000000 -0.024647)
 20:    912.66   0.001341    6.78  0.000458  (-0.000000 -0.000000 -0.021411)
 21:    950.89   0.000189    0.96  0.000062  ( 0.007815 -0.001027 -0.000000)
 22:   1040.89   0.005250   26.53  0.001574  (-0.012804  0.037552  0.000000)
 23:   1075.95   0.000153    0.78  0.000044  (-0.000000  0.000000  0.006669)
 24:   1087.09   0.000343    1.73  0.000099  ( 0.000936  0.009882 -0.000000)
 25:   1114.18   0.001615    8.16  0.000452  (-0.018460 -0.010569  0.000001)
 26:   1121.11   0.005659   28.60  0.001575  ( 0.000000  0.000000  0.039690)
 27:   1143.92   0.000022    0.11  0.000006  ( 0.000000  0.000000  0.002471)
 28:   1159.37   0.001346    6.80  0.000362  ( 0.018017  0.006141  0.000000)
 29:   1210.72   0.000459    2.32  0.000118  (-0.000000  0.000000  0.010877)
 30:   1240.66   0.017917   90.55  0.004507  ( 0.000000  0.000000 -0.067132)
 31:   1276.03   0.004806   24.29  0.001175  ( 0.013983  0.031303 -0.000001)
 32:   1278.86   0.003336   16.86  0.000814  ( 0.000000  0.000001  0.028530)
 33:   1333.85   0.001132    5.72  0.000265  ( 0.008389 -0.013943 -0.000000)
 34:   1352.89   0.017861   90.26  0.004120  ( 0.000000  0.000000  0.064186)
 35:   1396.01   0.012507   63.21  0.002796  (-0.000000  0.000000 -0.052876)
 36:   1412.78   0.005337   26.97  0.001179  (-0.002888  0.034212  0.000000)
 37:   1419.45   0.007294   36.86  0.001603  ( 0.000000 -0.000000 -0.040044)
 38:   1429.46   0.002550   12.89  0.000557  (-0.006588  0.022656 -0.000001)
 39:   1444.89   0.001832    9.26  0.000396  (-0.019824 -0.001635  0.000000)
 40:   1450.94   0.001957    9.89  0.000421  ( 0.000002 -0.000000  0.020518)
 41:   1452.76   0.003630   18.34  0.000780  (-0.027570  0.004432  0.000001)
 42:   1460.44   0.006347   32.08  0.001356  ( 0.010462  0.035308 -0.000326)
 43:   1460.46   0.007593   38.37  0.001622  ( 0.000085  0.000286  0.040278)
 44:   1466.76   0.001916    9.68  0.000408  ( 0.000000  0.000000 -0.020188)
 45:   1475.59   0.000110    0.55  0.000023  ( 0.003717 -0.003058 -0.000000)
 46:   1509.49   0.003724   18.82  0.000770  (-0.009469  0.026083  0.000000)
 47:   1598.65   0.096504  487.69  0.018838  (-0.000000 -0.000000  0.137252)
 48:   3038.25   0.039022  197.20  0.004008  ( 0.000000 -0.000001  0.063309)
 49:   3040.38   0.002787   14.09  0.000286  ( 0.006719 -0.015522 -0.000002)
 50:   3043.75   0.010515   53.14  0.001078  ( 0.000001 -0.000001  0.032834)
 51:   3048.26   0.017158   86.71  0.001756  (-0.036288  0.020968  0.000001)
 52:   3086.79   0.003769   19.05  0.000381  (-0.015923 -0.011289  0.000000)
 53:   3116.91   0.002310   11.67  0.000231  ( 0.000004  0.000001 -0.015206)
 54:   3117.50   0.026049  131.64  0.002608  (-0.050344 -0.008544 -0.000001)
 55:   3122.54   0.004134   20.89  0.000413  (-0.000000  0.000000  0.020325)
 56:   3124.70   0.003338   16.87  0.000333  ( 0.013980  0.011743 -0.000000)
 57:   3161.14   0.005258   26.57  0.000519  (-0.016159  0.016060  0.000000)
 58:   3202.16   0.004277   21.61  0.000417  (-0.001393  0.020368 -0.000025)
 59:   3202.21   0.000614    3.10  0.000060  (-0.000005  0.000067  0.007738)

* The epsilon (eps) is given for a Dirac delta lineshape.
** The dipole moment derivative (T) already includes vibrational overlap.

The first frequency considered to be a vibration is 6
The total number of vibrations considered is 54


--------------------------
THERMOCHEMISTRY AT 298.15K
--------------------------

Temperature         ... 298.15 K
Pressure            ... 1.00 atm
Total Mass          ... 112.18 AMU

Throughout the following assumptions are being made:
  (1) The electronic state is orbitally nondegenerate
  (2) There are no thermally accessible electronically excited states
  (3) Hindered rotations indicated by low frequency modes are not
      treated as such but are treated as vibrations and this may
      cause some error
  (4) All equations used are the standard statistical mechanics
      equations for an ideal gas
  (5) All vibrations are strictly harmonic

freq.      99.62  E(vib)   ...       0.46 
freq.     114.74  E(vib)   ...       0.44 
freq.     138.29  E(vib)   ...       0.42 
freq.     205.94  E(vib)   ...       0.35 
freq.     279.74  E(vib)   ...       0.28 
freq.     295.11  E(vib)   ...       0.27 
freq.     329.89  E(vib)   ...       0.24 
freq.     438.47  E(vib)   ...       0.17 
freq.     459.70  E(vib)   ...       0.16 
freq.     485.13  E(vib)   ...       0.15 
freq.     527.14  E(vib)   ...       0.13 
freq.     622.13  E(vib)   ...       0.09 
freq.     810.66  E(vib)   ...       0.05 
freq.     886.05  E(vib)   ...       0.04 
freq.     912.66  E(vib)   ...       0.03 
freq.     950.89  E(vib)   ...       0.03 
freq.    1040.89  E(vib)   ...       0.02 
freq.    1075.95  E(vib)   ...       0.02 
freq.    1087.09  E(vib)   ...       0.02 
freq.    1114.18  E(vib)   ...       0.01 
freq.    1121.11  E(vib)   ...       0.01 
freq.    1143.92  E(vib)   ...       0.01 
freq.    1159.37  E(vib)   ...       0.01 
freq.    1210.72  E(vib)   ...       0.01 
freq.    1240.66  E(vib)   ...       0.01 
freq.    1276.03  E(vib)   ...       0.01 
freq.    1278.86  E(vib)   ...       0.01 
freq.    1333.85  E(vib)   ...       0.01 
freq.    1352.89  E(vib)   ...       0.01 
freq.    1396.01  E(vib)   ...       0.00 
freq.    1412.78  E(vib)   ...       0.00 
freq.    1419.45  E(vib)   ...       0.00 
freq.    1429.46  E(vib)   ...       0.00 
freq.    1444.89  E(vib)   ...       0.00 
freq.    1450.94  E(vib)   ...       0.00 
freq.    1452.76  E(vib)   ...       0.00 
freq.    1460.44  E(vib)   ...       0.00 
freq.    1460.46  E(vib)   ...       0.00 
freq.    1466.76  E(vib)   ...       0.00 
freq.    1475.59  E(vib)   ...       0.00 
freq.    1509.49  E(vib)   ...       0.00 
freq.    1598.65  E(vib)   ...       0.00 
freq.    3038.25  E(vib)   ...       0.00 
freq.    3040.38  E(vib)   ...       0.00 
freq.    3043.75  E(vib)   ...       0.00 
freq.    3048.26  E(vib)   ...       0.00 
freq.    3086.79  E(vib)   ...       0.00 
freq.    3116.91  E(vib)   ...       0.00 
freq.    3117.50  E(vib)   ...       0.00 
freq.    3122.54  E(vib)   ...       0.00 
freq.    3124.70  E(vib)   ...       0.00 
freq.    3161.14  E(vib)   ...       0.00 
freq.    3202.16  E(vib)   ...       0.00 
freq.    3202.21  E(vib)   ...       0.00 

------------
INNER ENERGY
------------

The inner energy is: U= E(el) + E(ZPE) + E(vib) + E(rot) + E(trans)
    E(el)   - is the total energy from the electronic structure calculation
              = E(kin-el) + E(nuc-el) + E(el-el) + E(nuc-nuc)
    E(ZPE)  - the the zero temperature vibrational energy from the frequency calculation
    E(vib)  - the the finite temperature correction to E(ZPE) due to population
              of excited vibrational states
    E(rot)  - is the rotational thermal energy
    E(trans)- is the translational thermal energy

Summary of contributions to the inner energy U:
Electronic energy                ...   -344.99369945 Eh
Zero point energy                ...      0.18059939 Eh     113.33 kcal/mol
Thermal vibrational correction   ...      0.00558312 Eh       3.50 kcal/mol
Thermal rotational correction    ...      0.00141627 Eh       0.89 kcal/mol
Thermal translational correction ...      0.00141627 Eh       0.89 kcal/mol
-----------------------------------------------------------------------
Total thermal energy                   -344.80468440 Eh


Summary of corrections to the electronic energy:
(perhaps to be used in another calculation)
Total thermal correction                  0.00841566 Eh       5.28 kcal/mol
Non-thermal (ZPE) correction              0.18059939 Eh     113.33 kcal/mol
-----------------------------------------------------------------------
Total correction                          0.18901505 Eh     118.61 kcal/mol


--------
ENTHALPY
--------

The enthalpy is H = U + kB*T
                kB is Boltzmann's constant
Total free energy                 ...   -344.80468440 Eh 
Thermal Enthalpy correction       ...      0.00094421 Eh       0.59 kcal/mol
-----------------------------------------------------------------------
Total Enthalpy                    ...   -344.80374019 Eh


Note: Rotational entropy computed according to Herzberg 
Infrared and Raman Spectra, Chapter V,1, Van Nostrand Reinhold, 1945 
Point Group:  Cs, Symmetry Number:   1  
Rotational constants in cm-1:     0.111006     0.059433     0.040820 

Vibrational entropy computed according to the QRRHO of S. Grimme
Chem.Eur.J. 2012 18 9955


-------
ENTROPY
-------

The entropy contributions are T*S = T*(S(el)+S(vib)+S(rot)+S(trans))
     S(el)   - electronic entropy
     S(vib)  - vibrational entropy
     S(rot)  - rotational entropy
     S(trans)- translational entropy
The entropies will be listed as multiplied by the temperature to get
units of energy

Electronic entropy                ...      0.00000000 Eh      0.00 kcal/mol
Vibrational entropy               ...      0.00948839 Eh      5.95 kcal/mol
Rotational entropy                ...      0.01339124 Eh      8.40 kcal/mol
Translational entropy             ...      0.01903397 Eh     11.94 kcal/mol
-----------------------------------------------------------------------
Final entropy term                ...      0.04191360 Eh     26.30 kcal/mol

In case the symmetry of your molecule has not been determined correctly
or in case you have a reason to use a different symmetry number we print 
out the resulting rotational entropy values for sn=1,12 :
 --------------------------------------------------------
|  sn= 1 | S(rot)=       0.01339124 Eh      8.40 kcal/mol|
|  sn= 2 | S(rot)=       0.01273678 Eh      7.99 kcal/mol|
|  sn= 3 | S(rot)=       0.01235395 Eh      7.75 kcal/mol|
|  sn= 4 | S(rot)=       0.01208233 Eh      7.58 kcal/mol|
|  sn= 5 | S(rot)=       0.01187164 Eh      7.45 kcal/mol|
|  sn= 6 | S(rot)=       0.01169950 Eh      7.34 kcal/mol|
|  sn= 7 | S(rot)=       0.01155395 Eh      7.25 kcal/mol|
|  sn= 8 | S(rot)=       0.01142787 Eh      7.17 kcal/mol|
|  sn= 9 | S(rot)=       0.01131666 Eh      7.10 kcal/mol|
|  sn=10 | S(rot)=       0.01121718 Eh      7.04 kcal/mol|
|  sn=11 | S(rot)=       0.01112719 Eh      6.98 kcal/mol|
|  sn=12 | S(rot)=       0.01104504 Eh      6.93 kcal/mol|
 --------------------------------------------------------


-------------------
GIBBS FREE ENERGY
-------------------

The Gibbs free energy is G = H - T*S

Total enthalpy                    ...   -344.80374019 Eh 
Total entropy correction          ...     -0.04191360 Eh    -26.30 kcal/mol
-----------------------------------------------------------------------
Final Gibbs free energy         ...   -344.84565379 Eh

For completeness - the Gibbs free energy minus the electronic energy
G-E(el)                           ...      0.14804566 Eh     92.90 kcal/mol


Timings for individual modules:

Sum of individual times         ...      478.783 sec (=   7.980 min)
GTO integral calculation        ...        6.287 sec (=   0.105 min)   1.3 %
SCF iterations                  ...      221.703 sec (=   3.695 min)  46.3 %
SCF Gradient evaluation         ...       55.649 sec (=   0.927 min)  11.6 %
Geometry relaxation             ...        0.280 sec (=   0.005 min)   0.1 %
Analytical frequency calculation...      194.864 sec (=   3.248 min)  40.7 %
                             ****ORCA TERMINATED NORMALLY****
TOTAL RUN TIME: 0 days 0 hours 8 minutes 1 seconds 198 msec
