
                                 *****************
                                 * O   R   C   A *
                                 *****************

                                            #,                                       
                                            ###                                      
                                            ####                                     
                                            #####                                    
                                            ######                                   
                                           ########,                                 
                                     ,,################,,,,,                         
                               ,,#################################,,                 
                          ,,##########################################,,             
                       ,#########################################, ''#####,          
                    ,#############################################,,   '####,        
                  ,##################################################,,,,####,       
                ,###########''''           ''''###############################       
              ,#####''   ,,,,##########,,,,          '''####'''          '####       
            ,##' ,,,,###########################,,,                        '##       
           ' ,,###''''                  '''############,,,                           
         ,,##''                                '''############,,,,        ,,,,,,###''
      ,#''                                            '''#######################'''  
     '                                                          ''''####''''         
             ,#######,   #######,   ,#######,      ##                                
            ,#'     '#,  ##    ##  ,#'     '#,    #''#        ######   ,####,        
            ##       ##  ##   ,#'  ##            #'  '#       #        #'  '#        
            ##       ##  #######   ##           ,######,      #####,   #    #        
            '#,     ,#'  ##    ##  '#,     ,#' ,#      #,         ##   #,  ,#        
             '#######'   ##     ##  '#######'  #'      '#     #####' # '####'        



                  #######################################################
                  #                        -***-                        #
                  #          Department of theory and spectroscopy      #
                  #    Directorship and core code : Frank Neese         #
                  #        Max Planck Institute fuer Kohlenforschung    #
                  #                Kaiser Wilhelm Platz 1               #
                  #                 D-45470 Muelheim/Ruhr               #
                  #                      Germany                        #
                  #                                                     #
                  #                  All rights reserved                #
                  #                        -***-                        #
                  #######################################################


                         Program Version 5.0.4 -  RELEASE  -


 With contributions from (in alphabetic order):
   Daniel Aravena         : Magnetic Suceptibility
   Michael Atanasov       : Ab Initio Ligand Field Theory (pilot matlab implementation)
   Alexander A. Auer      : GIAO ZORA, VPT2 properties, NMR spectrum
   Ute Becker             : Parallelization
   Giovanni Bistoni       : ED, misc. LED, open-shell LED, HFLD
   Martin Brehm           : Molecular dynamics
   Dmytro Bykov           : SCF Hessian
   Vijay G. Chilkuri      : MRCI spin determinant printing, contributions to CSF-ICE
   Dipayan Datta          : RHF DLPNO-CCSD density
   Achintya Kumar Dutta   : EOM-CC, STEOM-CC
   Dmitry Ganyushin       : Spin-Orbit,Spin-Spin,Magnetic field MRCI
   Miquel Garcia          : C-PCM and meta-GGA Hessian, CC/C-PCM, Gaussian charge scheme
   Yang Guo               : DLPNO-NEVPT2, F12-NEVPT2, CIM, IAO-localization
   Andreas Hansen         : Spin unrestricted coupled pair/coupled cluster methods
   Benjamin Helmich-Paris : MC-RPA, TRAH-SCF, COSX integrals
   Lee Huntington         : MR-EOM, pCC
   Robert Izsak           : Overlap fitted RIJCOSX, COSX-SCS-MP3, EOM
   Marcus Kettner         : VPT2
   Christian Kollmar      : KDIIS, OOCD, Brueckner-CCSD(T), CCSD density, CASPT2, CASPT2-K
   Simone Kossmann        : Meta GGA functionals, TD-DFT gradient, OOMP2, MP2 Hessian
   Martin Krupicka        : Initial AUTO-CI
   Lucas Lang             : DCDCAS
   Marvin Lechner         : AUTO-CI (C++ implementation), FIC-MRCC
   Dagmar Lenk            : GEPOL surface, SMD
   Dimitrios Liakos       : Extrapolation schemes; Compound Job, initial MDCI parallelization
   Dimitrios Manganas     : Further ROCIS development; embedding schemes
   Dimitrios Pantazis     : SARC Basis sets
   Anastasios Papadopoulos: AUTO-CI, single reference methods and gradients
   Taras Petrenko         : DFT Hessian,TD-DFT gradient, ASA, ECA, R-Raman, ABS, FL, XAS/XES, NRVS
   Peter Pinski           : DLPNO-MP2, DLPNO-MP2 Gradient
   Christoph Reimann      : Effective Core Potentials
   Marius Retegan         : Local ZFS, SOC
   Christoph Riplinger    : Optimizer, TS searches, QM/MM, DLPNO-CCSD(T), (RO)-DLPNO pert. Triples
   Tobias Risthaus        : Range-separated hybrids, TD-DFT gradient, RPA, STAB
   Michael Roemelt        : Original ROCIS implementation
   Masaaki Saitow         : Open-shell DLPNO-CCSD energy and density
   Barbara Sandhoefer     : DKH picture change effects
   Avijit Sen             : IP-ROCIS
   Kantharuban Sivalingam : CASSCF convergence, NEVPT2, FIC-MRCI
   Bernardo de Souza      : ESD, SOC TD-DFT
   Georgi Stoychev        : AutoAux, RI-MP2 NMR, DLPNO-MP2 response
   Willem Van den Heuvel  : Paramagnetic NMR
   Boris Wezisla          : Elementary symmetry handling
   Frank Wennmohs         : Technical directorship


 We gratefully acknowledge several colleagues who have allowed us to
 interface, adapt or use parts of their codes:
   Stefan Grimme, W. Hujo, H. Kruse, P. Pracht,  : VdW corrections, initial TS optimization,
                  C. Bannwarth, S. Ehlert          DFT functionals, gCP, sTDA/sTD-DF
   Ed Valeev, F. Pavosevic, A. Kumar             : LibInt (2-el integral package), F12 methods
   Garnet Chan, S. Sharma, J. Yang, R. Olivares  : DMRG
   Ulf Ekstrom                                   : XCFun DFT Library
   Mihaly Kallay                                 : mrcc  (arbitrary order and MRCC methods)
   Jiri Pittner, Ondrej Demel                    : Mk-CCSD
   Frank Weinhold                                : gennbo (NPA and NBO analysis)
   Christopher J. Cramer and Donald G. Truhlar   : smd solvation model
   Lars Goerigk                                  : TD-DFT with DH, B97 family of functionals
   V. Asgeirsson, H. Jonsson                     : NEB implementation
   FAccTs GmbH                                   : IRC, NEB, NEB-TS, DLPNO-Multilevel, CI-OPT
                                                   MM, QMMM, 2- and 3-layer-ONIOM, Crystal-QMMM,
                                                   LR-CPCM, SF, NACMEs, symmetry and pop. for TD-DFT,
                                                   nearIR, NL-DFT gradient (VV10), updates on ESD,
                                                   ML-optimized integration grids
   S Lehtola, MJT Oliveira, MAL Marques          : LibXC Library
   Liviu Ungur et al                             : ANISO software


 Your calculation uses the libint2 library for the computation of 2-el integrals
 For citations please refer to: http://libint.valeyev.net

 Your ORCA version has been built with support for libXC version: 5.1.0
 For citations please refer to: https://tddft.org/programs/libxc/

 This ORCA versions uses:
   CBLAS   interface :  Fast vector & matrix operations
   LAPACKE interface :  Fast linear algebra routines
   SCALAPACK package :  Parallel linear algebra routines
   Shared memory     :  Shared parallel matrices
   BLAS/LAPACK       :  OpenBLAS 0.3.15  USE64BITINT DYNAMIC_ARCH NO_AFFINITY SkylakeX SINGLE_THREADED
        Core in use  :  SkylakeX
   Copyright (c) 2011-2014, The OpenBLAS Project




***************************************
The coordinates will be read from file: 1.xyz
***************************************


Your calculation utilizes the atom-pairwise dispersion correction
based on tight binding partial charges (D4)
Cite in your paper:
E.Caldeweyher, C.Bannwarth, S.Grimme, J.Chem.Phys., (2017), 147, 034112.
E.Caldeweyher, S.Ehlert, A.Hansen, H.Neugebauer, S.Grimme, J.Chem.Phys., (2018), in progress.
   

XCFun DFT library Copyright 2009-2010 Ulf Ekstrom and contributors.
See http://admol.org/xcfun for more information.
This is free software; see the source code for copying conditions.
There is ABSOLUTELY NO WARRANTY; not even for MERCHANTABILITY or FITNESS FOR A PARTICULAR PURPOSE.
For details see the documentation.
Scientific users of this library should cite U. Ekstrom, L. Visscher, R. Bast, A. J. Thorvaldsen and K. Ruud;
J.Chem.Theor.Comp. 2010, DOI: 10.1021/ct100117s
XCFun Version 0.99 

================================================================================

----- Orbital basis set information -----
Your calculation utilizes the basis: def2-SVP
   F. Weigend and R. Ahlrichs, Phys. Chem. Chem. Phys. 7, 3297 (2005).

----- AuxJ basis set information -----
Your calculation utilizes the auxiliary basis: def2/J
   F. Weigend, Phys. Chem. Chem. Phys. 8, 1057 (2006).

================================================================================
                                        WARNINGS
                       Please study these warnings very carefully!
================================================================================


INFO   : the flag for use of the SHARK integral package has been found!

================================================================================
                                       INPUT FILE
================================================================================
NAME = 1.inp
|  1> # ORCA 5.0.4 - 1.inp # write input file
|  2> # Basic Mode
|  3> #
|  4> ! Freq wB97X Def2-SVP D4 SlowConv TightSCF DEFGRID2 Def2/J RIJCOSX 
|  5> 
|  6> 
|  7> 
|  8> %maxcore 4500
|  9> 
| 10> %geom
| 11> Maxiter 150
| 12> END
| 13> 
| 14> * xyzfile 0 1 1.xyz
| 15> 
| 16>                          ****END OF INPUT****
================================================================================

                       ****************************
                       * Single Point Calculation *
                       ****************************

---------------------------------
CARTESIAN COORDINATES (ANGSTROEM)
---------------------------------
  C     -0.000000    0.677842   -1.193646
  C     -0.000001   -0.677842   -1.193646
  N     -0.000000    1.061586    0.137045
  N     -0.000000   -1.061586    0.137045
  C     -0.000000    0.000000    0.987229
  H      0.000000    1.393293   -2.014719
  H     -0.000001   -1.393293   -2.014719
  C      0.000000    2.446994    0.565798
  C      0.000000   -2.446994    0.565798
  H     -0.894579    2.968333    0.194027
  H     -0.894579   -2.968332    0.194028
  H      0.894580   -2.968332    0.194028
  H      0.894580    2.968332    0.194029
  H     -0.000001    2.468747    1.662105
  H      0.000000   -2.468748    1.662105

----------------------------
CARTESIAN COORDINATES (A.U.)
----------------------------
  NO LB      ZA    FRAG     MASS         X           Y           Z
   0 C     6.0000    0    12.011   -0.000000    1.280936   -2.255664
   1 C     6.0000    0    12.011   -0.000002   -1.280936   -2.255664
   2 N     7.0000    0    14.007   -0.000000    2.006107    0.258978
   3 N     7.0000    0    14.007   -0.000000   -2.006107    0.258978
   4 C     6.0000    0    12.011   -0.000000    0.000000    1.865592
   5 H     1.0000    0     1.008    0.000000    2.632942   -3.807267
   6 H     1.0000    0     1.008   -0.000002   -2.632942   -3.807267
   7 C     6.0000    0    12.011    0.000000    4.624149    1.069203
   8 C     6.0000    0    12.011    0.000000   -4.624149    1.069203
   9 H     1.0000    0     1.008   -1.690509    5.609336    0.366658
  10 H     1.0000    0     1.008   -1.690509   -5.609335    0.366660
  11 H     1.0000    0     1.008    1.690511   -5.609335    0.366660
  12 H     1.0000    0     1.008    1.690511    5.609335    0.366662
  13 H     1.0000    0     1.008   -0.000002    4.665256    3.140923
  14 H     1.0000    0     1.008    0.000000   -4.665258    3.140923

--------------------------------
INTERNAL COORDINATES (ANGSTROEM)
--------------------------------
 C      0   0   0     0.000000000000     0.00000000     0.00000000
 C      1   0   0     1.355684000000     0.00000000     0.00000000
 N      1   2   0     1.384918046318   106.08647667     0.00000000
 N      2   1   3     1.384918046318   106.08647667     0.00000000
 C      3   1   2     1.360065318009   112.60343786     0.00000000
 H      1   2   3     1.089050506051   131.06762425   180.00004902
 H      2   1   3     1.089050506051   131.06762425   180.00002463
 C      3   1   2     1.450236001992   123.28261143   180.00004399
 C      4   2   1     1.450236001992   123.28261143   180.00002876
 H      8   3   1     1.100127091114   110.65854402    60.34719272
 H      9   4   2     1.100126279290   110.65852325   299.65279626
 H      9   4   2     1.100127092451   110.65850728    60.34733026
 H      8   3   1     1.100126754517   110.65853037   299.65267302
 H      8   3   1     1.096522791035   108.33285245   179.99994495
 H      9   4   2     1.096522810873   108.33290470   180.00004949

---------------------------
INTERNAL COORDINATES (A.U.)
---------------------------
 C      0   0   0     0.000000000000     0.00000000     0.00000000
 C      1   0   0     2.561871484140     0.00000000     0.00000000
 N      1   2   0     2.617115825466   106.08647667     0.00000000
 N      2   1   3     2.617115825467   106.08647667     0.00000000
 C      3   1   2     2.570150975282   112.60343786     0.00000000
 H      1   2   3     2.058007202445   131.06762425   180.00004902
 H      2   1   3     2.058007202445   131.06762425   180.00002463
 C      3   1   2     2.740548873317   123.28261143   180.00004399
 C      4   2   1     2.740548873317   123.28261143   180.00002876
 H      8   3   1     2.078938914713   110.65854402    60.34719272
 H      9   4   2     2.078937380588   110.65852325   299.65279626
 H      9   4   2     2.078938917239   110.65850728    60.34733026
 H      8   3   1     2.078938278638   110.65853037   299.65267302
 H      8   3   1     2.072127774659   108.33285245   179.99994495
 H      9   4   2     2.072127812148   108.33290470   180.00004949

---------------------
BASIS SET INFORMATION
---------------------
There are 3 groups of distinct atoms

 Group   1 Type C   : 7s4p1d contracted to 3s2p1d pattern {511/31/1}
 Group   2 Type N   : 7s4p1d contracted to 3s2p1d pattern {511/31/1}
 Group   3 Type H   : 4s1p contracted to 2s1p pattern {31/1}

Atom   0C    basis set group =>   1
Atom   1C    basis set group =>   1
Atom   2N    basis set group =>   2
Atom   3N    basis set group =>   2
Atom   4C    basis set group =>   1
Atom   5H    basis set group =>   3
Atom   6H    basis set group =>   3
Atom   7C    basis set group =>   1
Atom   8C    basis set group =>   1
Atom   9H    basis set group =>   3
Atom  10H    basis set group =>   3
Atom  11H    basis set group =>   3
Atom  12H    basis set group =>   3
Atom  13H    basis set group =>   3
Atom  14H    basis set group =>   3
---------------------------------
AUXILIARY/J BASIS SET INFORMATION
---------------------------------
There are 3 groups of distinct atoms

 Group   1 Type C   : 12s5p4d2f1g contracted to 6s4p3d1f1g pattern {711111/2111/211/2/1}
 Group   2 Type N   : 12s5p4d2f1g contracted to 6s4p3d1f1g pattern {711111/2111/211/2/1}
 Group   3 Type H   : 5s2p1d contracted to 3s1p1d pattern {311/2/1}

Atom   0C    basis set group =>   1
Atom   1C    basis set group =>   1
Atom   2N    basis set group =>   2
Atom   3N    basis set group =>   2
Atom   4C    basis set group =>   1
Atom   5H    basis set group =>   3
Atom   6H    basis set group =>   3
Atom   7C    basis set group =>   1
Atom   8C    basis set group =>   1
Atom   9H    basis set group =>   3
Atom  10H    basis set group =>   3
Atom  11H    basis set group =>   3
Atom  12H    basis set group =>   3
Atom  13H    basis set group =>   3
Atom  14H    basis set group =>   3
------------------------------------------------------------------------------
                           ORCA GTO INTEGRAL CALCULATION
                           -- RI-GTO INTEGRALS CHOSEN --
------------------------------------------------------------------------------
------------------------------------------------------------------------------
                   ___                                                        
                  /   \      - P O W E R E D   B Y -                         
                 /     \                                                     
                 |  |  |   _    _      __       _____    __    __             
                 |  |  |  | |  | |    /  \     |  _  \  |  |  /  |          
                  \  \/   | |  | |   /    \    | | | |  |  | /  /          
                 / \  \   | |__| |  /  /\  \   | |_| |  |  |/  /          
                |  |  |   |  __  | /  /__\  \  |    /   |      \           
                |  |  |   | |  | | |   __   |  |    \   |  |\   \          
                \     /   | |  | | |  |  |  |  | |\  \  |  | \   \       
                 \___/    |_|  |_| |__|  |__|  |_| \__\ |__|  \__/        
                                                                              
                      - O R C A' S   B I G   F R I E N D -                    
                                      &                                       
                       - I N T E G R A L  F E E D E R -                       
                                                                              
 v1 FN, 2020, v2 2021                                                         
------------------------------------------------------------------------------


Reading SHARK input file 1.SHARKINP.tmp ... ok
----------------------
SHARK INTEGRAL PACKAGE
----------------------

Number of atoms                             ...     15
Number of basis functions                   ...    138
Number of shells                            ...     66
Maximum angular momentum                    ...      2
Integral batch strategy                     ... SHARK/LIBINT Hybrid
RI-J (if used) integral strategy            ... SPLIT-RIJ (Revised 2003 algorithm where possible)
Printlevel                                  ...      1
Contraction scheme used                     ... SEGMENTED contraction
Coulomb Range Separation                    ... NOT USED
Exchange Range Separation                   ... Long Range
   Mu parameter                             ...  0.300000
   Scaling (regular/separated)              ...  0.157706  0.842294
Finite Nucleus Model                        ... NOT USED
Auxiliary Coulomb fitting basis             ... AVAILABLE
   # of basis functions in Aux-J            ...    431
   # of shells in Aux-J                     ...    145
   Maximum angular momentum in Aux-J        ...      4
Auxiliary J/K fitting basis                 ... NOT available
Auxiliary Correlation fitting basis         ... NOT available
Auxiliary 'external' fitting basis          ... NOT available
Integral threshold                          ...     2.500000e-11
Primitive cut-off                           ...     2.500000e-12
Primitive pair pre-selection threshold      ...     2.500000e-12

Calculating pre-screening integrals         ... done (  0.0 sec) Dimension = 66
Organizing shell pair data                  ... done (  0.0 sec)
Shell pair information
Total number of shell pairs                 ...      2211
Shell pairs after pre-screening             ...      2093
Total number of primitive shell pairs       ...      7865
Primitive shell pairs kept                  ...      5635
          la=0 lb=0:    673 shell pairs
          la=1 lb=0:    766 shell pairs
          la=1 lb=1:    234 shell pairs
          la=2 lb=0:    245 shell pairs
          la=2 lb=1:    148 shell pairs
          la=2 lb=2:     27 shell pairs

Calculating one electron integrals          ... done (  0.0 sec)
Calculating RI/J V-Matrix + Cholesky decomp.... done (  0.0 sec)
Calculating Nuclear repulsion               ... done (  0.0 sec) ENN=    295.260153753753 Eh

SHARK setup successfully completed in   0.2 seconds

Maximum memory used throughout the entire GTOINT-calculation: 17.2 MB
-------------------------------------------------------------------------------
                                 ORCA SCF
-------------------------------------------------------------------------------

------------
SCF SETTINGS
------------
Hamiltonian:
 Density Functional     Method          .... DFT(GTOs)
 Exchange Functional    Exchange        .... WB97X
 Correlation Functional Correlation     .... WB97X
 Gradients option       PostSCFGGA      .... off
 Hybrid DFT is turned on
   Fraction HF Exchange ScalHFX         ....  0.157706
   Scaling of DF-GGA-X  ScalDFX         ....  0.000000
   Scaling of DF-GGA-C  ScalDFC         ....  1.000000
   Scaling of DF-LDA-C  ScalLDAC        ....  1.000000
   Perturbative correction              ....  0.000000
   Density functional embedding theory  .... OFF
 Long-range corrected/Screened/Range-Separated Hybrid DFT is turned on
   Amount of maximum screened exact exchange              ....  0.842294
   Range separation parameter mu (erf(mu*r12)/r12)        ....  0.300000
 RI-approximation to the Coulomb term is turned on
   Number of AuxJ basis functions       .... 431
   RIJ-COSX (HFX calculated with COS-X)).... on


General Settings:
 Integral files         IntName         .... 1
 Hartree-Fock type      HFTyp           .... RHF
 Total Charge           Charge          ....    0
 Multiplicity           Mult            ....    1
 Number of Electrons    NEL             ....   52
 Basis Dimension        Dim             ....  138
 Nuclear Repulsion      ENuc            ....    295.2601537538 Eh

Convergence Acceleration:
 DIIS                   CNVDIIS         .... on
   Start iteration      DIISMaxIt       ....     0
   Startup error        DIISStart       ....  0.200000
   # of expansion vecs  DIISMaxEq       ....     5
   Bias factor          DIISBfac        ....   1.050
   Max. coefficient     DIISMaxC        ....  10.000
 Trust-Rad. Augm. Hess. CNVTRAH         .... auto
   Auto Start mean grad. ratio tolernc. ....  1.125000
   Auto Start start iteration           ....    20
   Auto Start num. interpolation iter.  ....    10
   Max. Number of Micro iterations      ....    16
   Max. Number of Macro iterations      .... Maxiter - #DIIS iter
   Number of Davidson start vectors     ....     2
   Converg. threshold I  (grad. norm)   ....   1.000e-05
   Converg. threshold II (energy diff.) ....   1.000e-08
   Grad. Scal. Fac. for Micro threshold ....   0.100
   Minimum threshold for Micro iter.    ....   0.010
   NR start threshold (gradient norm)   ....   0.001
   Initial trust radius                 ....   0.400
   Minimum AH scaling param. (alpha)    ....   1.000
   Maximum AH scaling param. (alpha)    .... 1000.000
   Orbital update algorithm             .... Taylor
   White noise on init. David. guess    .... on
   Maximum white noise                  ....   0.010
   Quad. conv. algorithm                .... NR
 SOSCF                  CNVSOSCF        .... on
   Start iteration      SOSCFMaxIt      ....   150
   Startup grad/error   SOSCFStart      ....  0.001000
 Level Shifting         CNVShift        .... on
   Level shift para.    LevelShift      ....    0.2500
   Turn off err/grad.   ShiftErr        ....    0.0000
 Zerner damping         CNVZerner       .... off
 Static damping         CNVDamp         .... on
   Fraction old density DampFac         ....    0.8500
   Max. Damping (<1)    DampMax         ....    0.9800
   Min. Damping (>=0)   DampMin         ....    0.0000
   Turn off err/grad.   DampErr         ....    0.0300
 Fernandez-Rico         CNVRico         .... off

SCF Procedure:
 Maximum # iterations   MaxIter         ....   125
 SCF integral mode      SCFMode         .... Direct
   Integral package                     .... SHARK and LIBINT hybrid scheme
 Reset frequency        DirectResetFreq ....    20
 Integral Threshold     Thresh          ....  2.500e-11 Eh
 Primitive CutOff       TCut            ....  2.500e-12 Eh

Convergence Tolerance:
 Convergence Check Mode ConvCheckMode   .... Total+1el-Energy
 Convergence forced     ConvForced      .... 0
 Energy Change          TolE            ....  1.000e-08 Eh
 1-El. energy change                    ....  1.000e-05 Eh
 Orbital Gradient       TolG            ....  1.000e-05
 Orbital Rotation angle TolX            ....  1.000e-05
 DIIS Error             TolErr          ....  5.000e-07


Diagonalization of the overlap matrix:
Smallest eigenvalue                        ... 1.534e-03
Time for diagonalization                   ...    0.003 sec
Threshold for overlap eigenvalues          ... 1.000e-08
Number of eigenvalues below threshold      ... 0
Time for construction of square roots      ...    0.002 sec
Total time needed                          ...    0.005 sec

Time for model grid setup =    0.154 sec

------------------------------
INITIAL GUESS: MODEL POTENTIAL
------------------------------
Loading Hartree-Fock densities                     ... done
Calculating cut-offs                               ... done
Initializing the effective Hamiltonian             ... done
Setting up the integral package (SHARK)            ... done
Starting the Coulomb interaction                   ... done (   0.1 sec)
Reading the grid                                   ... done
Mapping shells                                     ... done
Starting the XC term evaluation                    ... done (   0.2 sec)
  promolecular density results
     # of electrons  =     51.996705706
     EX              =    -41.014925638
     EC              =     -1.719136057
     EX+EC           =    -42.734061694
Transforming the Hamiltonian                       ... done (   0.0 sec)
Diagonalizing the Hamiltonian                      ... done (   0.0 sec)
Back transforming the eigenvectors                 ... done (   0.0 sec)
Now organizing SCF variables                       ... done
                      ------------------
                      INITIAL GUESS DONE (   0.5 sec)
                      ------------------
-------------------
DFT GRID GENERATION
-------------------

General Integration Accuracy     IntAcc      ... 4.388
Radial Grid Type                 RadialGrid  ... OptM3 with GC (2021)
Angular Grid (max. ang.)         AngularGrid ... 4 (Lebedev-302)
Angular grid pruning method      GridPruning ... 4 (adaptive)
Weight generation scheme         WeightScheme... Becke
Basis function cutoff            BFCut       ... 1.0000e-11
Integration weight cutoff        WCut        ... 1.0000e-14
Angular grids for H and He will be reduced by one unit
Partially contracted basis set               ... off
Rotationally invariant grid construction     ... off

Total number of grid points                  ...    68057
Total number of batches                      ...     1069
Average number of points per batch           ...       63
Average number of grid points per atom       ...     4537
Time for grid setup =    0.624 sec

--------------------
COSX GRID GENERATION
--------------------

GRIDX 1
-------
General Integration Accuracy     IntAcc      ... 3.816
Radial Grid Type                 RadialGrid  ... OptM3 with GC (2021)
Angular Grid (max. ang.)         AngularGrid ... 1 (Lebedev-50)
Angular grid pruning method      GridPruning ... 4 (adaptive)
Weight generation scheme         WeightScheme... Becke
Basis function cutoff            BFCut       ... 1.0000e-11
Integration weight cutoff        WCut        ... 1.0000e-14
Angular grids for H and He will be reduced by one unit
Partially contracted basis set               ... on
Rotationally invariant grid construction     ... off

Total number of grid points                  ...     8711
Total number of batches                      ...      144
Average number of points per batch           ...       60
Average number of grid points per atom       ...      581
UseSFitting                                  ... on

GRIDX 2
-------
General Integration Accuracy     IntAcc      ... 4.020
Radial Grid Type                 RadialGrid  ... OptM3 with GC (2021)
Angular Grid (max. ang.)         AngularGrid ... 2 (Lebedev-110)
Angular grid pruning method      GridPruning ... 4 (adaptive)
Weight generation scheme         WeightScheme... Becke
Basis function cutoff            BFCut       ... 1.0000e-11
Integration weight cutoff        WCut        ... 1.0000e-14
Angular grids for H and He will be reduced by one unit
Partially contracted basis set               ... on
Rotationally invariant grid construction     ... off

Total number of grid points                  ...    18787
Total number of batches                      ...      299
Average number of points per batch           ...       62
Average number of grid points per atom       ...     1252
UseSFitting                                  ... on

GRIDX 3
-------
General Integration Accuracy     IntAcc      ... 4.338
Radial Grid Type                 RadialGrid  ... OptM3 with GC (2021)
Angular Grid (max. ang.)         AngularGrid ... 3 (Lebedev-194)
Angular grid pruning method      GridPruning ... 4 (adaptive)
Weight generation scheme         WeightScheme... Becke
Basis function cutoff            BFCut       ... 1.0000e-11
Integration weight cutoff        WCut        ... 1.0000e-14
Angular grids for H and He will be reduced by one unit
Partially contracted basis set               ... on
Rotationally invariant grid construction     ... off

Total number of grid points                  ...    41213
Total number of batches                      ...      654
Average number of points per batch           ...       63
Average number of grid points per atom       ...     2748
UseSFitting                                  ... on

Time for X-Grid setup             =    0.766 sec

--------------
SCF ITERATIONS
--------------
ITER       Energy         Delta-E        Max-DP      RMS-DP      [F,P]     Damp
               ***  Starting incremental Fock matrix formation  ***
  0   -304.3790157062   0.000000000000 0.03841387  0.00087200  0.1200221 0.8500
  1   -304.4024487333  -0.023433027082 0.04149735  0.00085930  0.0983308 0.8500
                               ***Turning on DIIS***
  2   -304.4207066694  -0.018257936175 0.03665407  0.00071882  0.0771167 0.8500
  3   -304.4345431191  -0.013836449641 0.02969006  0.00052831  0.0598415 0.8500
  4   -304.4453573622  -0.010814243094 0.02447512  0.00040903  0.0482258 0.8500
  5   -304.4539510875  -0.008593725334 0.02070853  0.00033662  0.0401092 0.8500
  6   -304.4609646923  -0.007013604752 0.01773069  0.00028452  0.0338542 0.8500
  7   -304.4667809279  -0.005816235643 0.10240526  0.00163533  0.0287458 0.0000
  8   -304.4979810216  -0.031200093701 0.00213612  0.00006496  0.0012091 0.0000
                      *** Initiating the SOSCF procedure ***
                           *** Shutting down DIIS ***
                      *** Re-Reading the Fockian *** 
                      *** Removing any level shift *** 
ITER      Energy       Delta-E        Grad      Rot      Max-DP    RMS-DP
  9   -304.49800055  -0.0000195289  0.000693  0.000693  0.001261  0.000035
               *** Restarting incremental Fock matrix formation ***
 10   -304.49807839  -0.0000778373  0.000479  0.001027  0.000831  0.000025
 11   -304.49808055  -0.0000021623  0.000136  0.000802  0.000497  0.000022
 12   -304.49808128  -0.0000007330  0.000054  0.000108  0.000294  0.000005
 13   -304.49808134  -0.0000000615  0.000006  0.000012  0.000097  0.000001
 14   -304.49808135  -0.0000000015  0.000003  0.000007  0.000033  0.000000
                  ***Gradient check signals convergence***
              ***Rediagonalizing the Fockian in SOSCF/NRSCF***

               *****************************************************
               *                     SUCCESS                       *
               *           SCF CONVERGED AFTER  15 CYCLES          *
               *****************************************************

Old exchange energy                            =    -13.453585629 Eh
New exchange energy                            =    -13.453636946 Eh
Exchange energy change after final integration =     -0.000051317 Eh
Total energy after final integration           =   -304.498132666 Eh
Final COS-X integration done in                =    14.554 sec

----------------
TOTAL SCF ENERGY
----------------

Total Energy       :         -304.49813267 Eh           -8285.81543 eV

Components:
Nuclear Repulsion  :          295.26015375 Eh            8034.43725 eV
Electronic Energy  :         -599.75828642 Eh          -16320.25268 eV
One Electron Energy:         -994.80031069 Eh          -27069.89266 eV
Two Electron Energy:          395.04202427 Eh           10749.63998 eV
Max COSX asymmetry :            0.00000205 Eh               0.00006 eV

Virial components:
Potential Energy   :         -605.56704811 Eh          -16478.31712 eV
Kinetic Energy     :          301.06891544 Eh            8192.50169 eV
Virial Ratio       :            2.01139014


DFT components:
N(Alpha)           :       26.000027545757 electrons
N(Beta)            :       26.000027545757 electrons
N(Total)           :       52.000055091514 electrons
E(XC)              :      -30.333617117696 Eh       
DFET-embed. en.    :        0.000000000000 Eh       

---------------
SCF CONVERGENCE
---------------

  Last Energy change         ...   -2.8835e-09  Tolerance :   1.0000e-08
  Last MAX-Density change    ...    2.2204e-15  Tolerance :   1.0000e-07
  Last RMS-Density change    ...    4.2595e-17  Tolerance :   5.0000e-09
  Last Orbital Gradient      ...    5.9547e-07  Tolerance :   1.0000e-05
  Last Orbital Rotation      ...    1.9476e-06  Tolerance :   1.0000e-05

             **** THE GBW FILE WAS UPDATED (1.gbw) ****
             **** DENSITY 1.scfp WAS UPDATED ****
             **** ENERGY FILE WAS UPDATED (1.en.tmp) ****
             **** THE GBW FILE WAS UPDATED (1.gbw) ****
             **** DENSITY 1.scfp WAS UPDATED ****
----------------
ORBITAL ENERGIES
----------------

  NO   OCC          E(Eh)            E(eV) 
   0   2.0000     -14.444365      -393.0511 
   1   2.0000     -14.444362      -393.0511 
   2   2.0000     -10.304161      -280.3905 
   3   2.0000     -10.304131      -280.3896 
   4   2.0000     -10.294865      -280.1375 
   5   2.0000     -10.294285      -280.1217 
   6   2.0000     -10.264398      -279.3085 
   7   2.0000      -1.142403       -31.0864 
   8   2.0000      -1.031113       -28.0580 
   9   2.0000      -0.892695       -24.2915 
  10   2.0000      -0.843604       -22.9556 
  11   2.0000      -0.798951       -21.7406 
  12   2.0000      -0.709091       -19.2953 
  13   2.0000      -0.678611       -18.4659 
  14   2.0000      -0.633217       -17.2307 
  15   2.0000      -0.586780       -15.9671 
  16   2.0000      -0.560371       -15.2485 
  17   2.0000      -0.551544       -15.0083 
  18   2.0000      -0.541206       -14.7270 
  19   2.0000      -0.537070       -14.6144 
  20   2.0000      -0.493308       -13.4236 
  21   2.0000      -0.484361       -13.1801 
  22   2.0000      -0.483593       -13.1592 
  23   2.0000      -0.368838       -10.0366 
  24   2.0000      -0.320578        -8.7234 
  25   2.0000      -0.303395        -8.2558 
  26   0.0000       0.118665         3.2290 
  27   0.0000       0.145840         3.9685 
  28   0.0000       0.161331         4.3901 
  29   0.0000       0.163876         4.4593 
  30   0.0000       0.190468         5.1829 
  31   0.0000       0.215981         5.8771 
  32   0.0000       0.224489         6.1087 
  33   0.0000       0.224899         6.1198 
  34   0.0000       0.234436         6.3793 
  35   0.0000       0.246781         6.7152 
  36   0.0000       0.247173         6.7259 
  37   0.0000       0.277189         7.5427 
  38   0.0000       0.327527         8.9125 
  39   0.0000       0.354314         9.6414 
  40   0.0000       0.364131         9.9085 
  41   0.0000       0.443055        12.0561 
  42   0.0000       0.476211        12.9584 
  43   0.0000       0.477283        12.9875 
  44   0.0000       0.495646        13.4872 
  45   0.0000       0.502946        13.6859 
  46   0.0000       0.549010        14.9393 
  47   0.0000       0.556412        15.1407 
  48   0.0000       0.572041        15.5660 
  49   0.0000       0.610730        16.6188 
  50   0.0000       0.618706        16.8358 
  51   0.0000       0.636239        17.3130 
  52   0.0000       0.683474        18.5983 
  53   0.0000       0.690621        18.7927 
  54   0.0000       0.709391        19.3035 
  55   0.0000       0.717590        19.5266 
  56   0.0000       0.732898        19.9432 
  57   0.0000       0.749908        20.4060 
  58   0.0000       0.754902        20.5419 
  59   0.0000       0.758406        20.6373 
  60   0.0000       0.766944        20.8696 
  61   0.0000       0.774427        21.0732 
  62   0.0000       0.788152        21.4467 
  63   0.0000       0.791922        21.5493 
  64   0.0000       0.792558        21.5666 
  65   0.0000       0.814903        22.1746 
  66   0.0000       0.829235        22.5646 
  67   0.0000       0.902015        24.5451 
  68   0.0000       0.963876        26.2284 
  69   0.0000       1.006187        27.3797 
  70   0.0000       1.010657        27.5014 
  71   0.0000       1.044584        28.4246 
  72   0.0000       1.062171        28.9031 
  73   0.0000       1.083585        29.4859 
  74   0.0000       1.234686        33.5975 
  75   0.0000       1.249092        33.9895 
  76   0.0000       1.265146        34.4264 
  77   0.0000       1.296809        35.2880 
  78   0.0000       1.344553        36.5872 
  79   0.0000       1.345019        36.5998 
  80   0.0000       1.357941        36.9515 
  81   0.0000       1.477586        40.2072 
  82   0.0000       1.567252        42.6471 
  83   0.0000       1.578752        42.9600 
  84   0.0000       1.590039        43.2672 
  85   0.0000       1.630210        44.3603 
  86   0.0000       1.631542        44.3965 
  87   0.0000       1.670675        45.4614 
  88   0.0000       1.729417        47.0598 
  89   0.0000       1.733610        47.1739 
  90   0.0000       1.734308        47.1929 
  91   0.0000       1.861869        50.6640 
  92   0.0000       1.865299        50.7574 
  93   0.0000       1.877446        51.0879 
  94   0.0000       1.886875        51.3445 
  95   0.0000       1.890428        51.4412 
  96   0.0000       1.910433        51.9855 
  97   0.0000       1.920324        52.2547 
  98   0.0000       1.923526        52.3418 
  99   0.0000       1.987941        54.0946 
 100   0.0000       2.009661        54.6857 
 101   0.0000       2.026123        55.1336 
 102   0.0000       2.039378        55.4943 
 103   0.0000       2.111364        57.4531 
 104   0.0000       2.121523        57.7296 
 105   0.0000       2.163551        58.8732 
 106   0.0000       2.163861        58.8817 
 107   0.0000       2.191639        59.6375 
 108   0.0000       2.228229        60.6332 
 109   0.0000       2.272529        61.8386 
 110   0.0000       2.333173        63.4889 
 111   0.0000       2.354888        64.0798 
 112   0.0000       2.399669        65.2983 
 113   0.0000       2.419885        65.8484 
 114   0.0000       2.436991        66.3139 
 115   0.0000       2.445587        66.5478 
 116   0.0000       2.509154        68.2776 
 117   0.0000       2.554109        69.5008 
 118   0.0000       2.591751        70.5251 
 119   0.0000       2.601332        70.7858 
 120   0.0000       2.699780        73.4647 
 121   0.0000       2.722884        74.0934 
 122   0.0000       2.792896        75.9986 
 123   0.0000       2.827428        76.9382 
 124   0.0000       2.861071        77.8537 
 125   0.0000       2.874646        78.2231 
 126   0.0000       2.904244        79.0285 
 127   0.0000       2.948924        80.2443 
 128   0.0000       2.953586        80.3712 
 129   0.0000       3.013604        82.0043 
 130   0.0000       3.036982        82.6405 
 131   0.0000       3.042874        82.8008 
 132   0.0000       3.055593        83.1469 
 133   0.0000       3.118284        84.8528 
 134   0.0000       3.262708        88.7828 
 135   0.0000       3.420614        93.0796 
 136   0.0000       3.421715        93.1096 
 137   0.0000       3.647073        99.2419 

                    ********************************
                    * MULLIKEN POPULATION ANALYSIS *
                    ********************************

-----------------------
MULLIKEN ATOMIC CHARGES
-----------------------
   0 C :    0.032370
   1 C :    0.032370
   2 N :   -0.245141
   3 N :   -0.245141
   4 C :   -0.123519
   5 H :    0.029849
   6 H :    0.029849
   7 C :    0.105040
   8 C :    0.105040
   9 H :    0.039772
  10 H :    0.039772
  11 H :    0.039772
  12 H :    0.039772
  13 H :    0.060096
  14 H :    0.060096
Sum of atomic charges:   -0.0000000

--------------------------------
MULLIKEN REDUCED ORBITAL CHARGES
--------------------------------
  0 C s       :     3.126200  s :     3.126200
      pz      :     0.798088  p :     2.793830
      px      :     1.085664
      py      :     0.910077
      dz2     :     0.014258  d :     0.047601
      dxz     :     0.007838
      dyz     :     0.012772
      dx2y2   :     0.004813
      dxy     :     0.007919
  1 C s       :     3.126200  s :     3.126200
      pz      :     0.798087  p :     2.793829
      px      :     1.085664
      py      :     0.910077
      dz2     :     0.014258  d :     0.047601
      dxz     :     0.007838
      dyz     :     0.012772
      dx2y2   :     0.004813
      dxy     :     0.007919
  2 N s       :     3.398101  s :     3.398101
      pz      :     1.119078  p :     3.814553
      px      :     1.532647
      py      :     1.162829
      dz2     :     0.009103  d :     0.032487
      dxz     :     0.005363
      dyz     :     0.008739
      dx2y2   :     0.005077
      dxy     :     0.004204
  3 N s       :     3.398101  s :     3.398101
      pz      :     1.119078  p :     3.814553
      px      :     1.532647
      py      :     1.162829
      dz2     :     0.009103  d :     0.032487
      dxz     :     0.005363
      dyz     :     0.008739
      dx2y2   :     0.005077
      dxy     :     0.004204
  4 C s       :     3.638779  s :     3.638779
      pz      :     1.118595  p :     2.418383
      px      :     0.658392
      py      :     0.641396
      dz2     :     0.008759  d :     0.066357
      dxz     :     0.010101
      dyz     :     0.028977
      dx2y2   :     0.007043
      dxy     :     0.011478
  5 H s       :     0.946316  s :     0.946316
      pz      :     0.010183  p :     0.023835
      px      :     0.005501
      py      :     0.008151
  6 H s       :     0.946316  s :     0.946316
      pz      :     0.010183  p :     0.023835
      px      :     0.005501
      py      :     0.008151
  7 C s       :     2.991768  s :     2.991768
      pz      :     1.044514  p :     2.864346
      px      :     1.019405
      py      :     0.800427
      dz2     :     0.008276  d :     0.038846
      dxz     :     0.003007
      dyz     :     0.006285
      dx2y2   :     0.009636
      dxy     :     0.011642
  8 C s       :     2.991768  s :     2.991768
      pz      :     1.044514  p :     2.864346
      px      :     1.019405
      py      :     0.800427
      dz2     :     0.008276  d :     0.038846
      dxz     :     0.003007
      dyz     :     0.006285
      dx2y2   :     0.009636
      dxy     :     0.011642
  9 H s       :     0.937378  s :     0.937378
      pz      :     0.005733  p :     0.022850
      px      :     0.011953
      py      :     0.005164
 10 H s       :     0.937377  s :     0.937377
      pz      :     0.005733  p :     0.022850
      px      :     0.011953
      py      :     0.005164
 11 H s       :     0.937377  s :     0.937377
      pz      :     0.005733  p :     0.022850
      px      :     0.011953
      py      :     0.005164
 12 H s       :     0.937378  s :     0.937378
      pz      :     0.005733  p :     0.022850
      px      :     0.011953
      py      :     0.005164
 13 H s       :     0.916819  s :     0.916819
      pz      :     0.015946  p :     0.023085
      px      :     0.004704
      py      :     0.002435
 14 H s       :     0.916819  s :     0.916819
      pz      :     0.015946  p :     0.023085
      px      :     0.004704
      py      :     0.002435


                     *******************************
                     * LOEWDIN POPULATION ANALYSIS *
                     *******************************

----------------------
LOEWDIN ATOMIC CHARGES
----------------------
   0 C :   -0.037577
   1 C :   -0.037577
   2 N :    0.015422
   3 N :    0.015422
   4 C :   -0.253601
   5 H :    0.027626
   6 H :    0.027626
   7 C :    0.031507
   8 C :    0.031507
   9 H :    0.024990
  10 H :    0.024990
  11 H :    0.024990
  12 H :    0.024990
  13 H :    0.039843
  14 H :    0.039843

-------------------------------
LOEWDIN REDUCED ORBITAL CHARGES
-------------------------------
  0 C s       :     2.859598  s :     2.859598
      pz      :     0.936801  p :     3.059638
      px      :     1.070458
      py      :     1.052379
      dz2     :     0.038111  d :     0.118341
      dxz     :     0.015564
      dyz     :     0.035048
      dx2y2   :     0.013762
      dxy     :     0.015856
  1 C s       :     2.859598  s :     2.859598
      pz      :     0.936801  p :     3.059638
      px      :     1.070458
      py      :     1.052379
      dz2     :     0.038111  d :     0.118341
      dxz     :     0.015564
      dyz     :     0.035048
      dx2y2   :     0.013762
      dxy     :     0.015856
  2 N s       :     3.065591  s :     3.065591
      pz      :     1.195732  p :     3.844024
      px      :     1.458263
      py      :     1.190030
      dz2     :     0.023149  d :     0.074962
      dxz     :     0.010438
      dyz     :     0.024055
      dx2y2   :     0.010570
      dxy     :     0.006751
  3 N s       :     3.065591  s :     3.065591
      pz      :     1.195732  p :     3.844024
      px      :     1.458263
      py      :     1.190030
      dz2     :     0.023149  d :     0.074962
      dxz     :     0.010438
      dyz     :     0.024055
      dx2y2   :     0.010570
      dxy     :     0.006751
  4 C s       :     3.214789  s :     3.214789
      pz      :     1.368649  p :     2.896515
      px      :     0.716260
      py      :     0.811605
      dz2     :     0.013894  d :     0.142298
      dxz     :     0.014184
      dyz     :     0.067186
      dx2y2   :     0.021646
      dxy     :     0.025387
  5 H s       :     0.902091  s :     0.902091
      pz      :     0.030049  p :     0.070283
      px      :     0.016989
      py      :     0.023245
  6 H s       :     0.902091  s :     0.902091
      pz      :     0.030049  p :     0.070283
      px      :     0.016989
      py      :     0.023245
  7 C s       :     2.832333  s :     2.832333
      pz      :     1.073374  p :     3.040355
      px      :     1.074598
      py      :     0.892382
      dz2     :     0.022208  d :     0.095805
      dxz     :     0.006890
      dyz     :     0.014271
      dx2y2   :     0.022818
      dxy     :     0.029617
  8 C s       :     2.832333  s :     2.832333
      pz      :     1.073374  p :     3.040355
      px      :     1.074598
      py      :     0.892382
      dz2     :     0.022208  d :     0.095805
      dxz     :     0.006890
      dyz     :     0.014271
      dx2y2   :     0.022818
      dxy     :     0.029617
  9 H s       :     0.911142  s :     0.911142
      pz      :     0.015555  p :     0.063868
      px      :     0.032148
      py      :     0.016165
 10 H s       :     0.911142  s :     0.911142
      pz      :     0.015555  p :     0.063868
      px      :     0.032148
      py      :     0.016165
 11 H s       :     0.911142  s :     0.911142
      pz      :     0.015555  p :     0.063868
      px      :     0.032148
      py      :     0.016165
 12 H s       :     0.911142  s :     0.911142
      pz      :     0.015555  p :     0.063868
      px      :     0.032148
      py      :     0.016165
 13 H s       :     0.894521  s :     0.894521
      pz      :     0.044882  p :     0.065636
      px      :     0.012203
      py      :     0.008551
 14 H s       :     0.894521  s :     0.894521
      pz      :     0.044882  p :     0.065636
      px      :     0.012203
      py      :     0.008551


                      *****************************
                      * MAYER POPULATION ANALYSIS *
                      *****************************

  NA   - Mulliken gross atomic population
  ZA   - Total nuclear charge
  QA   - Mulliken gross atomic charge
  VA   - Mayer's total valence
  BVA  - Mayer's bonded valence
  FA   - Mayer's free valence

  ATOM       NA         ZA         QA         VA         BVA        FA
  0 C      5.9676     6.0000     0.0324     3.8606     3.8606    -0.0000
  1 C      5.9676     6.0000     0.0324     3.8606     3.8606    -0.0000
  2 N      7.2451     7.0000    -0.2451     3.3767     3.3767    -0.0000
  3 N      7.2451     7.0000    -0.2451     3.3767     3.3767     0.0000
  4 C      6.1235     6.0000    -0.1235     2.6544     2.6544     0.0000
  5 H      0.9702     1.0000     0.0298     1.0000     1.0000     0.0000
  6 H      0.9702     1.0000     0.0298     1.0000     1.0000    -0.0000
  7 C      5.8950     6.0000     0.1050     3.8978     3.8978     0.0000
  8 C      5.8950     6.0000     0.1050     3.8978     3.8978     0.0000
  9 H      0.9602     1.0000     0.0398     0.9903     0.9903    -0.0000
 10 H      0.9602     1.0000     0.0398     0.9903     0.9903     0.0000
 11 H      0.9602     1.0000     0.0398     0.9903     0.9903    -0.0000
 12 H      0.9602     1.0000     0.0398     0.9903     0.9903    -0.0000
 13 H      0.9399     1.0000     0.0601     1.0185     1.0185    -0.0000
 14 H      0.9399     1.0000     0.0601     1.0185     1.0185     0.0000

  Mayer bond orders larger than 0.100000
B(  0-C ,  1-C ) :   1.6444 B(  0-C ,  2-N ) :   1.1259 B(  0-C ,  5-H ) :   0.9886 
B(  1-C ,  3-N ) :   1.1259 B(  1-C ,  6-H ) :   0.9886 B(  2-N ,  4-C ) :   1.2241 
B(  2-N ,  7-C ) :   0.9560 B(  3-N ,  4-C ) :   1.2241 B(  3-N ,  8-C ) :   0.9560 
B(  7-C ,  9-H ) :   0.9797 B(  7-C , 12-H ) :   0.9797 B(  7-C , 13-H ) :   0.9728 
B(  8-C , 10-H ) :   0.9797 B(  8-C , 11-H ) :   0.9797 B(  8-C , 14-H ) :   0.9728 


-------
TIMINGS
-------

Total SCF time: 0 days 0 hours 1 min 41 sec 

Total time                  ....     101.907 sec
Sum of individual times     ....     101.744 sec  ( 99.8%)

Fock matrix formation       ....      99.817 sec  ( 97.9%)
  Split-RI-J                ....       3.847 sec  (  3.9% of F)
  Chain of spheres X        ....      82.534 sec  ( 82.7% of F)
  XC integration            ....      13.308 sec  ( 13.3% of F)
    Basis function eval.    ....       4.835 sec  ( 36.3% of XC)
    Density eval.           ....       2.685 sec  ( 20.2% of XC)
    XC-Functional eval.     ....       2.369 sec  ( 17.8% of XC)
    XC-Potential eval.      ....       3.055 sec  ( 23.0% of XC)
Diagonalization             ....       0.035 sec  (  0.0%)
Density matrix formation    ....       0.005 sec  (  0.0%)
Population analysis         ....       0.006 sec  (  0.0%)
Initial guess               ....       0.310 sec  (  0.3%)
Orbital Transformation      ....       0.000 sec  (  0.0%)
Orbital Orthonormalization  ....       0.000 sec  (  0.0%)
DIIS solution               ....       0.012 sec  (  0.0%)
SOSCF solution              ....       0.015 sec  (  0.0%)
Grid generation             ....       1.544 sec  (  1.5%)

Maximum memory used throughout the entire SCF-calculation: 63.4 MB


-------------------------------------------------------------------------------
                          DFT DISPERSION CORRECTION                            
                                                                               
                                 DFTD4 V2.5                                    
-------------------------------------------------------------------------------
The WB97X functional is recognized
Active option DFTDOPT                   ...         5   

Starting D4
-------------------------   ----------------
Dispersion correction           -0.001728038
-------------------------   ----------------


-------------------------   --------------------
FINAL SINGLE POINT ENERGY      -304.499860704394
-------------------------   --------------------


                            ***************************************
                            *     ORCA property calculations      *
                            ***************************************

                                    ---------------------
                                    Active property flags
                                    ---------------------
   (+) Dipole Moment


------------------------------------------------------------------------------
                       ORCA ELECTRIC PROPERTIES CALCULATION
------------------------------------------------------------------------------

Dipole Moment Calculation                       ... on
Quadrupole Moment Calculation                   ... off
Polarizability Calculation                      ... off
GBWName                                         ... 1.gbw
Electron density                                ... 1.scfp
The origin for moment calculation is the CENTER OF MASS  = (-0.000000,  0.000000  0.013486)

-------------
DIPOLE MOMENT
-------------
                                X             Y             Z
Electronic contribution:     -0.00000      -0.00000      -1.00550
Nuclear contribution   :      0.00000       0.00000       0.01437
                        -----------------------------------------
Total Dipole Moment    :     -0.00000      -0.00000      -0.99113
                        -----------------------------------------
Magnitude (a.u.)       :      0.99113
Magnitude (Debye)      :      2.51924



--------------------
Rotational spectrum 
--------------------
 
Rotational constants in cm-1:     0.236516     0.069833     0.055051 
Rotational constants in MHz :  7090.572248  2093.537370  1650.373682 

 Dipole components along the rotational axes: 
x,y,z [a.u.] :    -0.000000     0.991127    -0.000000 
x,y,z [Debye]:    -0.000001     2.519244    -0.000000 

 

-------------------------------------------------------------------------------
                               ORCA SCF HESSIAN
-------------------------------------------------------------------------------

                   --------- SHARK INITIALIZATION DONE ---------

Hessian of the Kohn-Sham DFT energy:
Kohn-Sham wavefunction type                      ... RKS
Hartree-Fock exchange scaling                    ...    0.158
Number of operators                              ...    1
Number of atoms                                  ...   15
Basis set dimensions                             ...  138
Integral neglect threshold                       ... 2.5e-11
Integral primitive cutoff                        ... 2.5e-12

Setting up DFT Hessian calculations              ... 

HESS GRID
---------

General Integration Accuracy     IntAcc      ... 4.629
Radial Grid Type                 RadialGrid  ... OptM3 with GC (2021)
Angular Grid (max. ang.)         AngularGrid ... 5 (Lebedev-434)
Angular grid pruning method      GridPruning ... 4 (adaptive)
Weight generation scheme         WeightScheme... Becke
Basis function cutoff            BFCut       ... 1.0000e-11
Integration weight cutoff        WCut        ... 1.0000e-14
Angular grids for H and He will be reduced by one unit
Partially contracted basis set               ... off
Rotationally invariant grid construction     ... off

Total number of grid points                  ...   105682
Total number of batches                      ...     1660
Average number of points per batch           ...       63
Average number of grid points per atom       ...     7045

Building densities                               ... done   (      0.0 sec)
Calculating rho(r) on the grid                   ... done   (      0.7 sec)
Building xc-kernel on the grid                   ... done   (      0.9 sec)
                                                     done   (      2.8 sec)

Nuclear repulsion Hessian  (SHARK)               ... done   (      0.0 sec)

----------------------------------------------
Forming right-hand sides of CP-SCF equations     ...
----------------------------------------------
One electron integral derivatives  (SHARK)       ... done   (      0.2 sec)
Transforming the overlap derivative matrices     ... done   (      0.0 sec)
Making the Q(x) pseudodensities                  ... done   (      0.0 sec)
Adding the E*S(x)*S(y) terms to the Hessian      ... done   (      0.0 sec)
Calculating energy weighted overlap derivatives  ... done   (      0.0 sec)
Two electron integral derivatives (SHARK-RI)     ... done   (     15.8 sec)
Exchange-correlation integral derivatives        ... done   (     60.7 sec)
tr(F(y)Q(x)) contribution to the Hessian         ... done   (      0.0 sec)
Response fock operator R(S(x)) (SHARK-RIJCOSX)   ... done   (     15.5 sec)
XC Response fock operator R(S(x))                ... done   (     22.1 sec)
tr(F(y)S(x)) contribution to the Hessian         ... done   (      0.0 sec)
Transforming and finalizing RHSs                 ... done   (      0.0 sec)

----------------------------------------------
Solving the CP-SCF equations (RIJCOSX)           ...
----------------------------------------------
     CP-SCF ITERATION   0:   1.3547e-01 (   7.6 sec   0/ 45 done)
     CP-SCF ITERATION   1:   8.7769e-02 (   7.6 sec   0/ 45 done)
     CP-SCF ITERATION   2:   2.1688e-02 (   7.6 sec   0/ 45 done)
     CP-SCF ITERATION   3:   8.5911e-03 (   7.5 sec   0/ 45 done)
     CP-SCF ITERATION   4:   4.6568e-03 (   7.6 sec   2/ 45 done)
     CP-SCF ITERATION   5:   1.3805e-03 (   7.4 sec   4/ 45 done)
     CP-SCF ITERATION   6:   4.7962e-04 (   7.1 sec  33/ 45 done)
     CP-SCF ITERATION   7:   1.6731e-04 (   3.9 sec  35/ 45 done)
     CP-SCF ITERATION   8:   5.5363e-05 (   3.6 sec  45/ 45 done)
                    *** THE CP-SCF HAS CONVERGED ***

                                                 ... done   (     60.3 sec)
Forming perturbed density Hessian contributions  ... done   (      0.0 sec)
2nd integral derivative contribs (SHARK-RI)      ... done   (     75.2 sec)
Exchange-correlation Hessian                     ... done   (     53.2 sec)
Dispersion correction in the Hessian             ... Starting D4


------------------- 
Dispersion Gradient 
------------------- 
   1  :    0.000000016    0.000010422   -0.000015461
   2  :   -0.000000001   -0.000010422   -0.000015461
   3  :   -0.000000007    0.000012014   -0.000000520
   4  :   -0.000000003   -0.000012014   -0.000000519
   5  :    0.000000001   -0.000000000    0.000006196
   6  :    0.000000006    0.000002629   -0.000002513
   7  :    0.000000001   -0.000002629   -0.000002513
   8  :   -0.000000001    0.000040419    0.000009416
   9  :   -0.000000003   -0.000040419    0.000009416
  10  :    0.000000934    0.000005939    0.000002475
  11  :    0.000000933   -0.000005938    0.000002475
  12  :   -0.000000937   -0.000005937    0.000002474
  13  :   -0.000000936    0.000005936    0.000002474
  14  :   -0.000000001    0.000007112    0.000001031
  15  :   -0.000000002   -0.000007112    0.000001031

  |G| =    0.000063501

Starting D4


------------------- 
Dispersion Gradient 
------------------- 
   1  :   -0.000000016    0.000010422   -0.000015461
   2  :    0.000000001   -0.000010422   -0.000015461
   3  :    0.000000007    0.000012014   -0.000000520
   4  :    0.000000003   -0.000012014   -0.000000519
   5  :   -0.000000001   -0.000000000    0.000006196
   6  :   -0.000000006    0.000002629   -0.000002513
   7  :   -0.000000001   -0.000002629   -0.000002513
   8  :    0.000000001    0.000040419    0.000009416
   9  :    0.000000003   -0.000040419    0.000009416
  10  :    0.000000936    0.000005936    0.000002474
  11  :    0.000000937   -0.000005937    0.000002474
  12  :   -0.000000933   -0.000005938    0.000002475
  13  :   -0.000000934    0.000005939    0.000002475
  14  :    0.000000001    0.000007112    0.000001031
  15  :    0.000000002   -0.000007112    0.000001031

  |G| =    0.000063506

Starting D4


------------------- 
Dispersion Gradient 
------------------- 
   1  :   -0.000000000    0.000010492   -0.000015499
   2  :   -0.000000000   -0.000010423   -0.000015464
   3  :    0.000000000    0.000012002   -0.000000514
   4  :    0.000000000   -0.000012039   -0.000000497
   5  :   -0.000000000   -0.000000008    0.000006225
   6  :    0.000000000    0.000002640   -0.000002519
   7  :   -0.000000000   -0.000002631   -0.000002514
   8  :   -0.000000000    0.000040409    0.000009409
   9  :    0.000000000   -0.000040428    0.000009419
  10  :    0.000000935    0.000005934    0.000002472
  11  :    0.000000935   -0.000005940    0.000002475
  12  :   -0.000000935   -0.000005940    0.000002475
  13  :   -0.000000935    0.000005934    0.000002472
  14  :    0.000000000    0.000007109    0.000001031
  15  :    0.000000000   -0.000007113    0.000001031

  |G| =    0.000063518

Starting D4


------------------- 
Dispersion Gradient 
------------------- 
   1  :   -0.000000000    0.000010352   -0.000015421
   2  :   -0.000000000   -0.000010422   -0.000015457
   3  :    0.000000000    0.000012025   -0.000000525
   4  :    0.000000000   -0.000011988   -0.000000543
   5  :   -0.000000000    0.000000008    0.000006165
   6  :    0.000000000    0.000002617   -0.000002506
   7  :   -0.000000000   -0.000002627   -0.000002512
   8  :   -0.000000000    0.000040428    0.000009422
   9  :    0.000000000   -0.000040410    0.000009412
  10  :    0.000000936    0.000005940    0.000002478
  11  :    0.000000936   -0.000005934    0.000002475
  12  :   -0.000000936   -0.000005934    0.000002475
  13  :   -0.000000936    0.000005940    0.000002478
  14  :    0.000000000    0.000007114    0.000001030
  15  :    0.000000000   -0.000007110    0.000001030

  |G| =    0.000063489

Starting D4


------------------- 
Dispersion Gradient 
------------------- 
   1  :   -0.000000000    0.000010383   -0.000015360
   2  :   -0.000000000   -0.000010419   -0.000015461
   3  :    0.000000000    0.000012016   -0.000000518
   4  :    0.000000000   -0.000011977   -0.000000549
   5  :   -0.000000000    0.000000012    0.000006140
   6  :    0.000000000    0.000002625   -0.000002502
   7  :   -0.000000000   -0.000002633   -0.000002512
   8  :   -0.000000000    0.000040411    0.000009402
   9  :    0.000000000   -0.000040416    0.000009412
  10  :    0.000000935    0.000005937    0.000002474
  11  :    0.000000936   -0.000005937    0.000002473
  12  :   -0.000000936   -0.000005937    0.000002473
  13  :   -0.000000935    0.000005937    0.000002474
  14  :    0.000000000    0.000007110    0.000001027
  15  :    0.000000000   -0.000007112    0.000001028

  |G| =    0.000063483

Starting D4


------------------- 
Dispersion Gradient 
------------------- 
   1  :   -0.000000000    0.000010460   -0.000015557
   2  :   -0.000000000   -0.000010426   -0.000015460
   3  :    0.000000000    0.000012012   -0.000000521
   4  :    0.000000000   -0.000012048   -0.000000492
   5  :   -0.000000000   -0.000000011    0.000006247
   6  :    0.000000000    0.000002631   -0.000002522
   7  :   -0.000000000   -0.000002624   -0.000002513
   8  :   -0.000000000    0.000040426    0.000009429
   9  :    0.000000000   -0.000040421    0.000009419
  10  :    0.000000936    0.000005937    0.000002475
  11  :    0.000000934   -0.000005938    0.000002476
  12  :   -0.000000934   -0.000005938    0.000002476
  13  :   -0.000000936    0.000005937    0.000002475
  14  :    0.000000000    0.000007114    0.000001034
  15  :    0.000000000   -0.000007111    0.000001033

  |G| =    0.000063523

Starting D4


------------------- 
Dispersion Gradient 
------------------- 
   1  :   -0.000000001    0.000010422   -0.000015461
   2  :    0.000000016   -0.000010422   -0.000015461
   3  :   -0.000000003    0.000012014   -0.000000519
   4  :   -0.000000007   -0.000012014   -0.000000520
   5  :    0.000000001    0.000000000    0.000006196
   6  :    0.000000001    0.000002629   -0.000002513
   7  :    0.000000006   -0.000002629   -0.000002513
   8  :   -0.000000003    0.000040419    0.000009416
   9  :   -0.000000001   -0.000040419    0.000009416
  10  :    0.000000933    0.000005938    0.000002475
  11  :    0.000000934   -0.000005939    0.000002475
  12  :   -0.000000936   -0.000005936    0.000002474
  13  :   -0.000000937    0.000005937    0.000002474
  14  :   -0.000000002    0.000007112    0.000001031
  15  :   -0.000000001   -0.000007112    0.000001031

  |G| =    0.000063501

Starting D4


------------------- 
Dispersion Gradient 
------------------- 
   1  :    0.000000001    0.000010422   -0.000015461
   2  :   -0.000000016   -0.000010422   -0.000015461
   3  :    0.000000003    0.000012014   -0.000000519
   4  :    0.000000007   -0.000012014   -0.000000520
   5  :   -0.000000001    0.000000000    0.000006196
   6  :   -0.000000001    0.000002629   -0.000002513
   7  :   -0.000000006   -0.000002629   -0.000002513
   8  :    0.000000003    0.000040419    0.000009416
   9  :    0.000000001   -0.000040419    0.000009416
  10  :    0.000000937    0.000005937    0.000002474
  11  :    0.000000936   -0.000005936    0.000002474
  12  :   -0.000000934   -0.000005939    0.000002475
  13  :   -0.000000933    0.000005938    0.000002475
  14  :    0.000000002    0.000007112    0.000001031
  15  :    0.000000001   -0.000007112    0.000001031

  |G| =    0.000063506

Starting D4


------------------- 
Dispersion Gradient 
------------------- 
   1  :   -0.000000000    0.000010422   -0.000015457
   2  :   -0.000000000   -0.000010352   -0.000015421
   3  :    0.000000000    0.000011988   -0.000000543
   4  :    0.000000000   -0.000012025   -0.000000525
   5  :   -0.000000000   -0.000000008    0.000006165
   6  :    0.000000000    0.000002627   -0.000002512
   7  :   -0.000000000   -0.000002617   -0.000002506
   8  :   -0.000000000    0.000040410    0.000009412
   9  :    0.000000000   -0.000040428    0.000009422
  10  :    0.000000936    0.000005934    0.000002475
  11  :    0.000000936   -0.000005940    0.000002478
  12  :   -0.000000936   -0.000005940    0.000002478
  13  :   -0.000000936    0.000005934    0.000002475
  14  :    0.000000000    0.000007110    0.000001030
  15  :    0.000000000   -0.000007114    0.000001030

  |G| =    0.000063489

Starting D4


------------------- 
Dispersion Gradient 
------------------- 
   1  :   -0.000000000    0.000010423   -0.000015464
   2  :   -0.000000000   -0.000010492   -0.000015499
   3  :    0.000000000    0.000012039   -0.000000497
   4  :    0.000000000   -0.000012002   -0.000000514
   5  :   -0.000000000    0.000000008    0.000006225
   6  :    0.000000000    0.000002631   -0.000002514
   7  :   -0.000000000   -0.000002640   -0.000002519
   8  :   -0.000000000    0.000040428    0.000009419
   9  :    0.000000000   -0.000040409    0.000009409
  10  :    0.000000935    0.000005940    0.000002475
  11  :    0.000000935   -0.000005934    0.000002472
  12  :   -0.000000935   -0.000005934    0.000002472
  13  :   -0.000000935    0.000005940    0.000002475
  14  :    0.000000000    0.000007113    0.000001031
  15  :    0.000000000   -0.000007109    0.000001031

  |G| =    0.000063518

Starting D4


------------------- 
Dispersion Gradient 
------------------- 
   1  :   -0.000000000    0.000010419   -0.000015461
   2  :   -0.000000000   -0.000010383   -0.000015360
   3  :    0.000000000    0.000011977   -0.000000549
   4  :    0.000000000   -0.000012016   -0.000000518
   5  :   -0.000000000   -0.000000012    0.000006140
   6  :    0.000000000    0.000002633   -0.000002512
   7  :   -0.000000000   -0.000002625   -0.000002502
   8  :   -0.000000000    0.000040416    0.000009412
   9  :    0.000000000   -0.000040411    0.000009402
  10  :    0.000000936    0.000005937    0.000002473
  11  :    0.000000935   -0.000005937    0.000002474
  12  :   -0.000000935   -0.000005937    0.000002474
  13  :   -0.000000936    0.000005937    0.000002473
  14  :    0.000000000    0.000007112    0.000001028
  15  :    0.000000000   -0.000007110    0.000001027

  |G| =    0.000063483

Starting D4


------------------- 
Dispersion Gradient 
------------------- 
   1  :   -0.000000000    0.000010426   -0.000015460
   2  :   -0.000000000   -0.000010460   -0.000015557
   3  :    0.000000000    0.000012048   -0.000000492
   4  :    0.000000000   -0.000012012   -0.000000521
   5  :   -0.000000000    0.000000011    0.000006247
   6  :    0.000000000    0.000002624   -0.000002513
   7  :   -0.000000000   -0.000002631   -0.000002522
   8  :   -0.000000000    0.000040421    0.000009419
   9  :    0.000000000   -0.000040426    0.000009429
  10  :    0.000000934    0.000005938    0.000002476
  11  :    0.000000936   -0.000005937    0.000002475
  12  :   -0.000000936   -0.000005937    0.000002475
  13  :   -0.000000934    0.000005938    0.000002476
  14  :    0.000000000    0.000007111    0.000001033
  15  :    0.000000000   -0.000007114    0.000001034

  |G| =    0.000063523

Starting D4


------------------- 
Dispersion Gradient 
------------------- 
   1  :   -0.000000007    0.000010422   -0.000015461
   2  :   -0.000000003   -0.000010422   -0.000015461
   3  :    0.000000028    0.000012014   -0.000000519
   4  :    0.000000005   -0.000012014   -0.000000520
   5  :   -0.000000004    0.000000000    0.000006196
   6  :    0.000000003    0.000002629   -0.000002513
   7  :   -0.000000001   -0.000002629   -0.000002513
   8  :   -0.000000013    0.000040419    0.000009416
   9  :   -0.000000005   -0.000040419    0.000009416
  10  :    0.000000935    0.000005941    0.000002475
  11  :    0.000000934   -0.000005938    0.000002475
  12  :   -0.000000937   -0.000005937    0.000002475
  13  :   -0.000000935    0.000005933    0.000002475
  14  :    0.000000002    0.000007112    0.000001031
  15  :   -0.000000001   -0.000007112    0.000001031

  |G| =    0.000063503

Starting D4


------------------- 
Dispersion Gradient 
------------------- 
   1  :    0.000000007    0.000010422   -0.000015461
   2  :    0.000000003   -0.000010422   -0.000015461
   3  :   -0.000000028    0.000012014   -0.000000519
   4  :   -0.000000005   -0.000012014   -0.000000520
   5  :    0.000000004    0.000000000    0.000006196
   6  :   -0.000000003    0.000002629   -0.000002513
   7  :    0.000000001   -0.000002629   -0.000002513
   8  :    0.000000013    0.000040419    0.000009416
   9  :    0.000000005   -0.000040419    0.000009416
  10  :    0.000000935    0.000005933    0.000002475
  11  :    0.000000937   -0.000005937    0.000002475
  12  :   -0.000000934   -0.000005938    0.000002475
  13  :   -0.000000935    0.000005941    0.000002475
  14  :   -0.000000002    0.000007112    0.000001031
  15  :    0.000000001   -0.000007112    0.000001031

  |G| =    0.000063504

Starting D4


------------------- 
Dispersion Gradient 
------------------- 
   1  :   -0.000000000    0.000010411   -0.000015458
   2  :   -0.000000000   -0.000010447   -0.000015495
   3  :    0.000000000    0.000012091   -0.000000509
   4  :    0.000000000   -0.000012045   -0.000000523
   5  :   -0.000000000    0.000000004    0.000006211
   6  :    0.000000000    0.000002630   -0.000002510
   7  :   -0.000000000   -0.000002634   -0.000002516
   8  :   -0.000000000    0.000040444    0.000009428
   9  :    0.000000000   -0.000040432    0.000009419
  10  :    0.000000935    0.000005931    0.000002472
  11  :    0.000000935   -0.000005939    0.000002474
  12  :   -0.000000935   -0.000005939    0.000002474
  13  :   -0.000000935    0.000005931    0.000002472
  14  :    0.000000000    0.000007107    0.000001030
  15  :    0.000000000   -0.000007115    0.000001032

  |G| =    0.000063550

Starting D4


------------------- 
Dispersion Gradient 
------------------- 
   1  :   -0.000000000    0.000010434   -0.000015463
   2  :   -0.000000000   -0.000010396   -0.000015424
   3  :    0.000000000    0.000011936   -0.000000531
   4  :    0.000000000   -0.000011983   -0.000000516
   5  :   -0.000000000   -0.000000004    0.000006179
   6  :    0.000000000    0.000002627   -0.000002516
   7  :   -0.000000000   -0.000002623   -0.000002510
   8  :   -0.000000000    0.000040393    0.000009403
   9  :    0.000000000   -0.000040405    0.000009412
  10  :    0.000000936    0.000005943    0.000002477
  11  :    0.000000936   -0.000005935    0.000002475
  12  :   -0.000000936   -0.000005935    0.000002475
  13  :   -0.000000936    0.000005943    0.000002477
  14  :    0.000000000    0.000007117    0.000001031
  15  :    0.000000000   -0.000007109    0.000001029

  |G| =    0.000063457

Starting D4


------------------- 
Dispersion Gradient 
------------------- 
   1  :   -0.000000000    0.000010428   -0.000015459
   2  :   -0.000000000   -0.000010445   -0.000015489
   3  :    0.000000000    0.000012024   -0.000000485
   4  :    0.000000000   -0.000012010   -0.000000518
   5  :   -0.000000000    0.000000000    0.000006211
   6  :    0.000000000    0.000002628   -0.000002519
   7  :   -0.000000000   -0.000002631   -0.000002517
   8  :   -0.000000000    0.000040429    0.000009409
   9  :    0.000000000   -0.000040418    0.000009414
  10  :    0.000000934    0.000005937    0.000002476
  11  :    0.000000935   -0.000005937    0.000002473
  12  :   -0.000000935   -0.000005937    0.000002473
  13  :   -0.000000934    0.000005937    0.000002476
  14  :    0.000000000    0.000007107    0.000001028
  15  :    0.000000000   -0.000007111    0.000001029

  |G| =    0.000063515

Starting D4


------------------- 
Dispersion Gradient 
------------------- 
   1  :   -0.000000000    0.000010417   -0.000015462
   2  :   -0.000000000   -0.000010399   -0.000015432
   3  :    0.000000000    0.000012003   -0.000000555
   4  :    0.000000000   -0.000012017   -0.000000521
   5  :   -0.000000000   -0.000000000    0.000006179
   6  :    0.000000000    0.000002629   -0.000002507
   7  :   -0.000000000   -0.000002626   -0.000002509
   8  :   -0.000000000    0.000040408    0.000009422
   9  :    0.000000000   -0.000040419    0.000009418
  10  :    0.000000937    0.000005937    0.000002474
  11  :    0.000000935   -0.000005937    0.000002477
  12  :   -0.000000935   -0.000005937    0.000002477
  13  :   -0.000000937    0.000005937    0.000002474
  14  :    0.000000000    0.000007117    0.000001033
  15  :    0.000000000   -0.000007112    0.000001032

  |G| =    0.000063492

Starting D4


------------------- 
Dispersion Gradient 
------------------- 
   1  :   -0.000000003    0.000010422   -0.000015461
   2  :   -0.000000007   -0.000010422   -0.000015461
   3  :    0.000000005    0.000012014   -0.000000520
   4  :    0.000000028   -0.000012014   -0.000000519
   5  :   -0.000000004   -0.000000000    0.000006196
   6  :   -0.000000001    0.000002629   -0.000002513
   7  :    0.000000003   -0.000002629   -0.000002513
   8  :   -0.000000005    0.000040419    0.000009416
   9  :   -0.000000013   -0.000040419    0.000009416
  10  :    0.000000934    0.000005938    0.000002475
  11  :    0.000000935   -0.000005941    0.000002475
  12  :   -0.000000935   -0.000005933    0.000002475
  13  :   -0.000000937    0.000005937    0.000002475
  14  :   -0.000000001    0.000007112    0.000001031
  15  :    0.000000002   -0.000007112    0.000001031

  |G| =    0.000063503

Starting D4


------------------- 
Dispersion Gradient 
------------------- 
   1  :    0.000000003    0.000010422   -0.000015461
   2  :    0.000000007   -0.000010422   -0.000015461
   3  :   -0.000000005    0.000012014   -0.000000520
   4  :   -0.000000028   -0.000012014   -0.000000519
   5  :    0.000000004   -0.000000000    0.000006196
   6  :    0.000000001    0.000002629   -0.000002513
   7  :   -0.000000003   -0.000002629   -0.000002513
   8  :    0.000000005    0.000040419    0.000009416
   9  :    0.000000013   -0.000040419    0.000009416
  10  :    0.000000937    0.000005937    0.000002475
  11  :    0.000000935   -0.000005933    0.000002475
  12  :   -0.000000935   -0.000005941    0.000002475
  13  :   -0.000000934    0.000005938    0.000002475
  14  :    0.000000001    0.000007112    0.000001031
  15  :   -0.000000002   -0.000007112    0.000001031

  |G| =    0.000063504

Starting D4


------------------- 
Dispersion Gradient 
------------------- 
   1  :   -0.000000000    0.000010396   -0.000015424
   2  :   -0.000000000   -0.000010434   -0.000015463
   3  :    0.000000000    0.000011983   -0.000000516
   4  :    0.000000000   -0.000011936   -0.000000531
   5  :   -0.000000000    0.000000004    0.000006179
   6  :    0.000000000    0.000002623   -0.000002510
   7  :   -0.000000000   -0.000002627   -0.000002516
   8  :   -0.000000000    0.000040405    0.000009412
   9  :    0.000000000   -0.000040393    0.000009403
  10  :    0.000000936    0.000005935    0.000002475
  11  :    0.000000936   -0.000005943    0.000002477
  12  :   -0.000000936   -0.000005943    0.000002477
  13  :   -0.000000936    0.000005935    0.000002475
  14  :    0.000000000    0.000007109    0.000001029
  15  :    0.000000000   -0.000007117    0.000001031

  |G| =    0.000063457

Starting D4


------------------- 
Dispersion Gradient 
------------------- 
   1  :   -0.000000000    0.000010447   -0.000015495
   2  :   -0.000000000   -0.000010411   -0.000015458
   3  :    0.000000000    0.000012045   -0.000000523
   4  :    0.000000000   -0.000012091   -0.000000509
   5  :   -0.000000000   -0.000000004    0.000006211
   6  :    0.000000000    0.000002634   -0.000002516
   7  :   -0.000000000   -0.000002630   -0.000002510
   8  :   -0.000000000    0.000040432    0.000009419
   9  :    0.000000000   -0.000040444    0.000009428
  10  :    0.000000935    0.000005939    0.000002474
  11  :    0.000000935   -0.000005931    0.000002472
  12  :   -0.000000935   -0.000005931    0.000002472
  13  :   -0.000000935    0.000005939    0.000002474
  14  :    0.000000000    0.000007115    0.000001032
  15  :    0.000000000   -0.000007107    0.000001030

  |G| =    0.000063550

Starting D4


------------------- 
Dispersion Gradient 
------------------- 
   1  :   -0.000000000    0.000010445   -0.000015489
   2  :   -0.000000000   -0.000010428   -0.000015459
   3  :    0.000000000    0.000012010   -0.000000518
   4  :    0.000000000   -0.000012024   -0.000000485
   5  :   -0.000000000   -0.000000000    0.000006211
   6  :    0.000000000    0.000002631   -0.000002517
   7  :   -0.000000000   -0.000002628   -0.000002519
   8  :   -0.000000000    0.000040418    0.000009414
   9  :    0.000000000   -0.000040429    0.000009409
  10  :    0.000000935    0.000005937    0.000002473
  11  :    0.000000934   -0.000005937    0.000002476
  12  :   -0.000000934   -0.000005937    0.000002476
[...]
      0       0.000000  -0.001232   0.001192   0.000000  -0.000000  -0.000000
      1       0.115179   0.000000  -0.000000   0.016437  -0.023739  -0.100221
      2      -0.033921   0.000000   0.000000   0.040917  -0.023915  -0.133436
      3      -0.000000   0.001232   0.001192   0.000000   0.000000   0.000000
      4      -0.115179   0.000000   0.000000   0.016440   0.023737  -0.100221
      5      -0.033921  -0.000001  -0.000000  -0.040920  -0.023910   0.133436
      6       0.000000   0.011233  -0.011662  -0.000000   0.000000   0.000000
      7       0.277204   0.000000  -0.000000  -0.011511  -0.015224   0.236024
      8       0.015527  -0.000000   0.000000  -0.054627   0.063099   0.047916
      9       0.000000  -0.011233  -0.011663   0.000000   0.000000  -0.000000
     10      -0.277203  -0.000000   0.000000  -0.011508   0.015226   0.236024
     11       0.015527   0.000001   0.000001   0.054635   0.063092  -0.047917
     12       0.000000  -0.000000  -0.000615  -0.000000   0.000000  -0.000000
     13      -0.000000  -0.000000  -0.000000  -0.005657   0.000000  -0.216659
     14       0.108156  -0.000000  -0.000001  -0.000004  -0.056615   0.000000
     15       0.000000   0.004107  -0.001198  -0.000000   0.000000   0.000000
     16       0.128342  -0.000001  -0.000000  -0.066322   0.004868   0.358946
     17      -0.061281  -0.000000  -0.000000  -0.027608   0.001555   0.248021
     18      -0.000000  -0.004108  -0.001198   0.000000   0.000000  -0.000000
     19      -0.128342  -0.000001  -0.000000  -0.066323  -0.004859   0.358946
     20      -0.061282   0.000000   0.000000   0.027608   0.001551  -0.248020
     21      -0.000000   0.034535  -0.034325  -0.000000   0.000000  -0.000000
     22      -0.207290   0.000000   0.000000   0.039496  -0.029961  -0.041666
     23      -0.055533  -0.000000   0.000000  -0.011696   0.010660  -0.012038
     24       0.000000  -0.034534  -0.034326   0.000000   0.000000   0.000000
     25       0.207290   0.000001   0.000001   0.039499   0.029956  -0.041666
     26      -0.055533  -0.000000  -0.000000   0.011697   0.010658   0.012038
     27       0.128646  -0.029899   0.029966  -0.283487   0.280444  -0.120373
     28       0.186965   0.139541  -0.140194  -0.311502   0.324662  -0.278120
     29       0.170128   0.320478  -0.320757   0.207625  -0.196704  -0.047386
     30       0.128648   0.029898   0.029967   0.283521   0.280406   0.120371
     31      -0.186967   0.139534   0.140196  -0.311542  -0.324621  -0.278118
     32       0.170128  -0.320466  -0.320765  -0.207650  -0.196677   0.047385
     33      -0.128649   0.029893   0.029963  -0.283522  -0.280407  -0.120372
     34      -0.186968  -0.139542  -0.140203  -0.311541  -0.324620  -0.278119
     35       0.170124   0.320466   0.320765  -0.207657  -0.196683   0.047386
     36      -0.128646  -0.029895   0.029963   0.283486  -0.280443   0.120373
     37       0.186966  -0.139544   0.140196  -0.311499   0.324660  -0.278120
     38       0.170130  -0.320473   0.320754   0.207631  -0.196709  -0.047385
     39       0.000003  -0.502531   0.501791   0.000003  -0.000003   0.000001
     40       0.412450   0.000003  -0.000002   0.216475  -0.215583  -0.100959
     41      -0.073200  -0.000001   0.000001  -0.011315   0.010298  -0.008735
     42      -0.000004   0.502516   0.501806  -0.000006  -0.000004   0.000000
     43      -0.412446   0.000000   0.000000   0.216504   0.215556  -0.100958
     44      -0.073200  -0.000000  -0.000000   0.011316   0.010297   0.008735
                 36         37         38         39         40         41    
      0      -0.000000   0.000000   0.000000   0.000195   0.000175  -0.000000
      1      -0.412575  -0.000285  -0.000894   0.000000   0.000000  -0.000224
      2      -0.060785  -0.000099  -0.000347   0.000000  -0.000000   0.000399
      3       0.000000   0.000000  -0.000000  -0.000192   0.000179   0.000000
      4       0.412576  -0.000283   0.000895  -0.000000   0.000000   0.000225
      5      -0.060785   0.000098  -0.000347   0.000000  -0.000000   0.000399
      6       0.000000   0.000000   0.000000   0.000287   0.000355  -0.000000
      7       0.138705   0.000057  -0.000247   0.000000   0.000000   0.000288
      8      -0.012138  -0.000264   0.000255  -0.000000  -0.000000   0.000056
      9      -0.000000   0.000000  -0.000000  -0.000279   0.000361   0.000000
     10      -0.138706   0.000057   0.000247  -0.000000   0.000000  -0.000288
     11      -0.012138   0.000264   0.000255  -0.000000   0.000000   0.000056
     12       0.000000  -0.000000   0.000000  -0.000003  -0.000280  -0.000000
     13       0.000000  -0.001474   0.000001  -0.000000   0.000000   0.000000
     14       0.039275   0.000000   0.000476  -0.000000   0.000000  -0.000174
     15      -0.000000  -0.000000  -0.000000  -0.000590  -0.001429  -0.000000
     16       0.120529   0.005332   0.002019   0.000000  -0.000000   0.003284
     17       0.505592  -0.004074  -0.001000  -0.000000   0.000000  -0.002705
     18       0.000000  -0.000000   0.000000   0.000559  -0.001441  -0.000000
     19      -0.120529   0.005328  -0.002029   0.000000  -0.000000  -0.003282
     20       0.505592   0.004072  -0.001008   0.000000  -0.000000  -0.002704
     21      -0.000000  -0.000001  -0.000001  -0.067967  -0.066570   0.000001
     22      -0.024477   0.035726   0.035758  -0.000000  -0.000000   0.013905
     23       0.016971  -0.000419  -0.000358  -0.000001  -0.000001  -0.065074
     24       0.000000  -0.000002   0.000002   0.066544  -0.067993  -0.000002
     25       0.024477   0.035654  -0.035829   0.000001  -0.000001  -0.013894
     26       0.016971   0.000418  -0.000358  -0.000002   0.000002  -0.065023
     27      -0.036431   0.372341   0.371511   0.407783   0.399246   0.171355
     28      -0.118368  -0.207139  -0.207140  -0.235356  -0.230375  -0.093348
     29      -0.033081   0.151840   0.151477   0.176781   0.173139   0.066327
     30      -0.036431  -0.371572   0.372238  -0.399257   0.407796   0.171242
     31       0.118368  -0.206710   0.207543  -0.230436   0.235309   0.093287
     32      -0.033080  -0.151526   0.151773  -0.173083   0.176845   0.066284
     33       0.036431   0.371601  -0.372267  -0.399241   0.407780  -0.171214
     34       0.118369  -0.206727   0.207560   0.230427  -0.235299   0.093271
     35      -0.033081  -0.151538   0.151785   0.173076  -0.176838   0.066272
     36       0.036431  -0.372330  -0.371500   0.407790   0.399254  -0.171366
     37      -0.118368  -0.207133  -0.207133   0.235360   0.230378  -0.093354
     38      -0.033080   0.151834   0.151471  -0.176783  -0.173141   0.066331
     39       0.000000   0.000000   0.000000  -0.009332  -0.009219  -0.000001
     40       0.041536  -0.005377  -0.005297   0.000000   0.000000   0.012910
     41       0.017326  -0.300777  -0.299915   0.000013   0.000013   0.640954
     42      -0.000000  -0.000000   0.000000   0.009135  -0.009414  -0.000000
     43      -0.041536  -0.005366   0.005308  -0.000001   0.000001  -0.012900
     44       0.017326   0.300177  -0.300523   0.000033  -0.000033   0.640450
                 42         43         44    
      0      -0.000000  -0.000000  -0.000000
      1       0.000250  -0.039126  -0.050157
      2       0.000145   0.047303   0.047498
      3      -0.000000  -0.000000   0.000000
      4       0.000250  -0.039126   0.050157
      5      -0.000146  -0.047303   0.047498
      6      -0.000000   0.000000  -0.000000
      7       0.000215  -0.000521  -0.000985
      8      -0.000343  -0.000680  -0.002736
      9      -0.000000   0.000000  -0.000000
     10       0.000215  -0.000521   0.000985
     11       0.000343   0.000680  -0.002736
     12       0.000000   0.000000  -0.000000
     13       0.000157   0.001920   0.000000
     14       0.000000   0.000000  -0.000868
     15       0.000000   0.000000   0.000000
     16       0.001427   0.461348   0.465865
     17      -0.000848  -0.532296  -0.527414
     18       0.000000   0.000000  -0.000000
     19       0.001429   0.461351  -0.465863
     20       0.000850   0.532299  -0.527411
     21       0.000001  -0.000000   0.000000
     22       0.013898  -0.000479  -0.000196
     23      -0.065020   0.000266   0.000654
     24       0.000002  -0.000000   0.000000
     25       0.013910  -0.000479   0.000196
     26       0.065071  -0.000266   0.000654
     27       0.171330  -0.003556  -0.002238
     28      -0.093400   0.002639   0.001768
     29       0.066322  -0.000866  -0.000285
     30      -0.171486   0.003556  -0.002238
     31      -0.093485   0.002639  -0.001767
     32      -0.066383   0.000866  -0.000285
     33       0.171459  -0.003556   0.002238
     34      -0.093469   0.002639  -0.001767
     35      -0.066372   0.000866  -0.000285
     36      -0.171341   0.003556   0.002238
     37      -0.093406   0.002639   0.001767
     38       0.066327  -0.000866  -0.000285
     39      -0.000001  -0.000000   0.000000
     40       0.012866   0.001092   0.001549
     41       0.640359   0.001590  -0.002587
     42       0.000000  -0.000000   0.000000
     43       0.012876   0.001092  -0.001549
     44      -0.640861  -0.001590  -0.002587


-----------
IR SPECTRUM
-----------

 Mode   freq       eps      Int      T**2         TX        TY        TZ
       cm**-1   L/(mol*cm) km/mol    a.u.
----------------------------------------------------------------------------
  6:     46.07   0.000034    0.17  0.000228  (-0.015089  0.000000  0.000000)
  7:     49.77   0.000000    0.00  0.000000  ( 0.000039  0.000000  0.000000)
  8:    196.59   0.003471   17.54  0.005510  ( 0.074231  0.000000  0.000000)
  9:    278.34   0.000000    0.00  0.000000  (-0.000000  0.000000  0.000000)
 10:    295.56   0.000715    3.61  0.000755  (-0.000000  0.000000  0.027472)
 11:    441.80   0.001863    9.41  0.001316  ( 0.000000 -0.036273 -0.000000)
 12:    631.15   0.000011    0.06  0.000006  ( 0.002361  0.000000  0.000000)
 13:    632.52   0.000461    2.33  0.000227  (-0.000000  0.000000  0.015080)
 14:    637.87   0.000000    0.00  0.000000  ( 0.000000 -0.000000 -0.000000)
 15:    737.63   0.009395   47.48  0.003975  ( 0.063044  0.000000  0.000000)
 16:    765.71   0.004765   24.08  0.001942  (-0.000000  0.044068 -0.000000)
 17:    863.08   0.000000    0.00  0.000000  (-0.000000  0.000000  0.000000)
 18:   1023.20   0.000239    1.21  0.000073  (-0.000000  0.008535 -0.000000)
 19:   1037.43   0.000024    0.12  0.000007  (-0.000000  0.000000  0.002710)
 20:   1077.74   0.000632    3.20  0.000183  ( 0.000000 -0.000000 -0.013531)
 21:   1089.52   0.000049    0.25  0.000014  ( 0.000000 -0.003737  0.000000)
 22:   1101.18   0.002047   10.34  0.000580  ( 0.000000 -0.000000  0.024083)
 23:   1145.25   0.000003    0.01  0.000001  (-0.000892  0.000000  0.000000)
 24:   1145.71   0.000000    0.00  0.000000  ( 0.000000 -0.000000 -0.000000)
 25:   1239.02   0.008094   40.90  0.002039  (-0.000000  0.045151 -0.000000)
 26:   1378.05   0.000422    2.13  0.000096  ( 0.000000  0.009775  0.000000)
 27:   1410.83   0.000173    0.87  0.000038  ( 0.000000  0.000000  0.006183)
 28:   1425.58   0.000649    3.28  0.000142  ( 0.000000 -0.000011 -0.011915)
 29:   1425.80   0.002394   12.10  0.000524  ( 0.000000 -0.022890  0.000006)
 30:   1445.17   0.000002    0.01  0.000000  (-0.000000 -0.000000 -0.000678)
 31:   1469.95   0.000000    0.00  0.000000  (-0.000000  0.000000 -0.000000)
 32:   1470.99   0.004011   20.27  0.000851  ( 0.029170  0.000000 -0.000000)
 33:   1487.87   0.003342   16.89  0.000701  (-0.000000  0.026476 -0.000002)
 34:   1491.67   0.005549   28.04  0.001161  (-0.000000 -0.000002 -0.034072)
 35:   1513.63   0.011369   57.45  0.002344  ( 0.000000 -0.048414  0.000000)
 36:   1662.68   0.000086    0.43  0.000016  (-0.000000  0.000000 -0.004008)
 37:   3075.43   0.019228   97.17  0.001951  (-0.000001  0.044171  0.000000)
 38:   3076.25   0.000001    0.00  0.000000  ( 0.000000 -0.000044  0.000301)
 39:   3168.96   0.000001    0.00  0.000000  (-0.000280  0.000000 -0.000000)
 40:   3169.07   0.007126   36.01  0.000702  (-0.026490 -0.000001  0.000000)
 41:   3217.57   0.000375    1.90  0.000036  (-0.000000  0.000001 -0.006031)
 42:   3217.71   0.000157    0.79  0.000015  ( 0.000001  0.003905  0.000002)
 43:   3275.59   0.000245    1.24  0.000023  (-0.000000  0.004829  0.000000)
 44:   3298.35   0.000090    0.45  0.000008  ( 0.000000  0.000000  0.002910)

* The epsilon (eps) is given for a Dirac delta lineshape.
** The dipole moment derivative (T) already includes vibrational overlap.

The first frequency considered to be a vibration is 6
The total number of vibrations considered is 39


--------------------------
THERMOCHEMISTRY AT 298.15K
--------------------------

Temperature         ... 298.15 K
Pressure            ... 1.00 atm
Total Mass          ... 96.13 AMU

Throughout the following assumptions are being made:
  (1) The electronic state is orbitally nondegenerate
  (2) There are no thermally accessible electronically excited states
  (3) Hindered rotations indicated by low frequency modes are not
      treated as such but are treated as vibrations and this may
      cause some error
  (4) All equations used are the standard statistical mechanics
      equations for an ideal gas
  (5) All vibrations are strictly harmonic

freq.      46.07  E(vib)   ...       0.53 
freq.      49.77  E(vib)   ...       0.52 
freq.     196.59  E(vib)   ...       0.36 
freq.     278.34  E(vib)   ...       0.28 
freq.     295.56  E(vib)   ...       0.27 
freq.     441.80  E(vib)   ...       0.17 
freq.     631.15  E(vib)   ...       0.09 
freq.     632.52  E(vib)   ...       0.09 
freq.     637.87  E(vib)   ...       0.09 
freq.     737.63  E(vib)   ...       0.06 
freq.     765.71  E(vib)   ...       0.06 
freq.     863.08  E(vib)   ...       0.04 
freq.    1023.20  E(vib)   ...       0.02 
freq.    1037.43  E(vib)   ...       0.02 
freq.    1077.74  E(vib)   ...       0.02 
freq.    1089.52  E(vib)   ...       0.02 
freq.    1101.18  E(vib)   ...       0.02 
freq.    1145.25  E(vib)   ...       0.01 
freq.    1145.71  E(vib)   ...       0.01 
freq.    1239.02  E(vib)   ...       0.01 
freq.    1378.05  E(vib)   ...       0.01 
freq.    1410.83  E(vib)   ...       0.00 
freq.    1425.58  E(vib)   ...       0.00 
freq.    1425.80  E(vib)   ...       0.00 
freq.    1445.17  E(vib)   ...       0.00 
freq.    1469.95  E(vib)   ...       0.00 
freq.    1470.99  E(vib)   ...       0.00 
freq.    1487.87  E(vib)   ...       0.00 
freq.    1491.67  E(vib)   ...       0.00 
freq.    1513.63  E(vib)   ...       0.00 
freq.    1662.68  E(vib)   ...       0.00 
freq.    3075.43  E(vib)   ...       0.00 
freq.    3076.25  E(vib)   ...       0.00 
freq.    3168.96  E(vib)   ...       0.00 
freq.    3169.07  E(vib)   ...       0.00 
freq.    3217.57  E(vib)   ...       0.00 
freq.    3217.71  E(vib)   ...       0.00 
freq.    3275.59  E(vib)   ...       0.00 
freq.    3298.35  E(vib)   ...       0.00 

------------
INNER ENERGY
------------

The inner energy is: U= E(el) + E(ZPE) + E(vib) + E(rot) + E(trans)
    E(el)   - is the total energy from the electronic structure calculation
              = E(kin-el) + E(nuc-el) + E(el-el) + E(nuc-nuc)
    E(ZPE)  - the the zero temperature vibrational energy from the frequency calculation
    E(vib)  - the the finite temperature correction to E(ZPE) due to population
              of excited vibrational states
    E(rot)  - is the rotational thermal energy
    E(trans)- is the translational thermal energy

Summary of contributions to the inner energy U:
Electronic energy                ...   -304.49986070 Eh
Zero point energy                ...      0.12784237 Eh      80.22 kcal/mol
Thermal vibrational correction   ...      0.00432829 Eh       2.72 kcal/mol
Thermal rotational correction    ...      0.00141627 Eh       0.89 kcal/mol
Thermal translational correction ...      0.00141627 Eh       0.89 kcal/mol
-----------------------------------------------------------------------
Total thermal energy                   -304.36485751 Eh


Summary of corrections to the electronic energy:
(perhaps to be used in another calculation)
Total thermal correction                  0.00716083 Eh       4.49 kcal/mol
Non-thermal (ZPE) correction              0.12784237 Eh      80.22 kcal/mol
-----------------------------------------------------------------------
Total correction                          0.13500319 Eh      84.72 kcal/mol


--------
ENTHALPY
--------

The enthalpy is H = U + kB*T
                kB is Boltzmann's constant
Total free energy                 ...   -304.36485751 Eh 
Thermal Enthalpy correction       ...      0.00094421 Eh       0.59 kcal/mol
-----------------------------------------------------------------------
Total Enthalpy                    ...   -304.36391330 Eh


Note: Rotational entropy computed according to Herzberg 
Infrared and Raman Spectra, Chapter V,1, Van Nostrand Reinhold, 1945 
Point Group:  C2v, Symmetry Number:   2  
Rotational constants in cm-1:     0.236516     0.069833     0.055051 

Vibrational entropy computed according to the QRRHO of S. Grimme
Chem.Eur.J. 2012 18 9955


-------
ENTROPY
-------

The entropy contributions are T*S = T*(S(el)+S(vib)+S(rot)+S(trans))
     S(el)   - electronic entropy
     S(vib)  - vibrational entropy
     S(rot)  - rotational entropy
     S(trans)- translational entropy
The entropies will be listed as multiplied by the temperature to get
units of energy

Electronic entropy                ...      0.00000000 Eh      0.00 kcal/mol
Vibrational entropy               ...      0.00750307 Eh      4.71 kcal/mol
Rotational entropy                ...      0.01216235 Eh      7.63 kcal/mol
Translational entropy             ...      0.01881539 Eh     11.81 kcal/mol
-----------------------------------------------------------------------
Final entropy term                ...      0.03848081 Eh     24.15 kcal/mol

In case the symmetry of your molecule has not been determined correctly
or in case you have a reason to use a different symmetry number we print 
out the resulting rotational entropy values for sn=1,12 :
 --------------------------------------------------------
|  sn= 1 | S(rot)=       0.01281681 Eh      8.04 kcal/mol|
|  sn= 2 | S(rot)=       0.01216235 Eh      7.63 kcal/mol|
|  sn= 3 | S(rot)=       0.01177952 Eh      7.39 kcal/mol|
|  sn= 4 | S(rot)=       0.01150790 Eh      7.22 kcal/mol|
|  sn= 5 | S(rot)=       0.01129721 Eh      7.09 kcal/mol|
|  sn= 6 | S(rot)=       0.01112506 Eh      6.98 kcal/mol|
|  sn= 7 | S(rot)=       0.01097952 Eh      6.89 kcal/mol|
|  sn= 8 | S(rot)=       0.01085344 Eh      6.81 kcal/mol|
|  sn= 9 | S(rot)=       0.01074223 Eh      6.74 kcal/mol|
|  sn=10 | S(rot)=       0.01064275 Eh      6.68 kcal/mol|
|  sn=11 | S(rot)=       0.01055276 Eh      6.62 kcal/mol|
|  sn=12 | S(rot)=       0.01047061 Eh      6.57 kcal/mol|
 --------------------------------------------------------


-------------------
GIBBS FREE ENERGY
-------------------

The Gibbs free energy is G = H - T*S

Total enthalpy                    ...   -304.36391330 Eh 
Total entropy correction          ...     -0.03848081 Eh    -24.15 kcal/mol
-----------------------------------------------------------------------
Final Gibbs free energy         ...   -304.40239411 Eh

For completeness - the Gibbs free energy minus the electronic energy
G-E(el)                           ...      0.09746660 Eh     61.16 kcal/mol


Timings for individual modules:

Sum of individual times         ...      412.269 sec (=   6.871 min)
GTO integral calculation        ...        0.203 sec (=   0.003 min)   0.0 %
SCF iterations                  ...      101.935 sec (=   1.699 min)  24.7 %
Analytical frequency calculation...      310.131 sec (=   5.169 min)  75.2 %
                             ****ORCA TERMINATED NORMALLY****
TOTAL RUN TIME: 0 days 0 hours 6 minutes 52 seconds 514 msec
