
                                 *****************
                                 * O   R   C   A *
                                 *****************

                                            #,                                       
                                            ###                                      
                                            ####                                     
                                            #####                                    
                                            ######                                   
                                           ########,                                 
                                     ,,################,,,,,                         
                               ,,#################################,,                 
                          ,,##########################################,,             
                       ,#########################################, ''#####,          
                    ,#############################################,,   '####,        
                  ,##################################################,,,,####,       
                ,###########''''           ''''###############################       
              ,#####''   ,,,,##########,,,,          '''####'''          '####       
            ,##' ,,,,###########################,,,                        '##       
           ' ,,###''''                  '''############,,,                           
         ,,##''                                '''############,,,,        ,,,,,,###''
      ,#''                                            '''#######################'''  
     '                                                          ''''####''''         
             ,#######,   #######,   ,#######,      ##                                
            ,#'     '#,  ##    ##  ,#'     '#,    #''#        ######   ,####,        
            ##       ##  ##   ,#'  ##            #'  '#       #        #'  '#        
            ##       ##  #######   ##           ,######,      #####,   #    #        
            '#,     ,#'  ##    ##  '#,     ,#' ,#      #,         ##   #,  ,#        
             '#######'   ##     ##  '#######'  #'      '#     #####' # '####'        



                  #######################################################
                  #                        -***-                        #
                  #          Department of theory and spectroscopy      #
                  #    Directorship and core code : Frank Neese         #
                  #        Max Planck Institute fuer Kohlenforschung    #
                  #                Kaiser Wilhelm Platz 1               #
                  #                 D-45470 Muelheim/Ruhr               #
                  #                      Germany                        #
                  #                                                     #
                  #                  All rights reserved                #
                  #                        -***-                        #
                  #######################################################


                         Program Version 5.0.4 -  RELEASE  -


 With contributions from (in alphabetic order):
   Daniel Aravena         : Magnetic Suceptibility
   Michael Atanasov       : Ab Initio Ligand Field Theory (pilot matlab implementation)
   Alexander A. Auer      : GIAO ZORA, VPT2 properties, NMR spectrum
   Ute Becker             : Parallelization
   Giovanni Bistoni       : ED, misc. LED, open-shell LED, HFLD
   Martin Brehm           : Molecular dynamics
   Dmytro Bykov           : SCF Hessian
   Vijay G. Chilkuri      : MRCI spin determinant printing, contributions to CSF-ICE
   Dipayan Datta          : RHF DLPNO-CCSD density
   Achintya Kumar Dutta   : EOM-CC, STEOM-CC
   Dmitry Ganyushin       : Spin-Orbit,Spin-Spin,Magnetic field MRCI
   Miquel Garcia          : C-PCM and meta-GGA Hessian, CC/C-PCM, Gaussian charge scheme
   Yang Guo               : DLPNO-NEVPT2, F12-NEVPT2, CIM, IAO-localization
   Andreas Hansen         : Spin unrestricted coupled pair/coupled cluster methods
   Benjamin Helmich-Paris : MC-RPA, TRAH-SCF, COSX integrals
   Lee Huntington         : MR-EOM, pCC
   Robert Izsak           : Overlap fitted RIJCOSX, COSX-SCS-MP3, EOM
   Marcus Kettner         : VPT2
   Christian Kollmar      : KDIIS, OOCD, Brueckner-CCSD(T), CCSD density, CASPT2, CASPT2-K
   Simone Kossmann        : Meta GGA functionals, TD-DFT gradient, OOMP2, MP2 Hessian
   Martin Krupicka        : Initial AUTO-CI
   Lucas Lang             : DCDCAS
   Marvin Lechner         : AUTO-CI (C++ implementation), FIC-MRCC
   Dagmar Lenk            : GEPOL surface, SMD
   Dimitrios Liakos       : Extrapolation schemes; Compound Job, initial MDCI parallelization
   Dimitrios Manganas     : Further ROCIS development; embedding schemes
   Dimitrios Pantazis     : SARC Basis sets
   Anastasios Papadopoulos: AUTO-CI, single reference methods and gradients
   Taras Petrenko         : DFT Hessian,TD-DFT gradient, ASA, ECA, R-Raman, ABS, FL, XAS/XES, NRVS
   Peter Pinski           : DLPNO-MP2, DLPNO-MP2 Gradient
   Christoph Reimann      : Effective Core Potentials
   Marius Retegan         : Local ZFS, SOC
   Christoph Riplinger    : Optimizer, TS searches, QM/MM, DLPNO-CCSD(T), (RO)-DLPNO pert. Triples
   Tobias Risthaus        : Range-separated hybrids, TD-DFT gradient, RPA, STAB
   Michael Roemelt        : Original ROCIS implementation
   Masaaki Saitow         : Open-shell DLPNO-CCSD energy and density
   Barbara Sandhoefer     : DKH picture change effects
   Avijit Sen             : IP-ROCIS
   Kantharuban Sivalingam : CASSCF convergence, NEVPT2, FIC-MRCI
   Bernardo de Souza      : ESD, SOC TD-DFT
   Georgi Stoychev        : AutoAux, RI-MP2 NMR, DLPNO-MP2 response
   Willem Van den Heuvel  : Paramagnetic NMR
   Boris Wezisla          : Elementary symmetry handling
   Frank Wennmohs         : Technical directorship


 We gratefully acknowledge several colleagues who have allowed us to
 interface, adapt or use parts of their codes:
   Stefan Grimme, W. Hujo, H. Kruse, P. Pracht,  : VdW corrections, initial TS optimization,
                  C. Bannwarth, S. Ehlert          DFT functionals, gCP, sTDA/sTD-DF
   Ed Valeev, F. Pavosevic, A. Kumar             : LibInt (2-el integral package), F12 methods
   Garnet Chan, S. Sharma, J. Yang, R. Olivares  : DMRG
   Ulf Ekstrom                                   : XCFun DFT Library
   Mihaly Kallay                                 : mrcc  (arbitrary order and MRCC methods)
   Jiri Pittner, Ondrej Demel                    : Mk-CCSD
   Frank Weinhold                                : gennbo (NPA and NBO analysis)
   Christopher J. Cramer and Donald G. Truhlar   : smd solvation model
   Lars Goerigk                                  : TD-DFT with DH, B97 family of functionals
   V. Asgeirsson, H. Jonsson                     : NEB implementation
   FAccTs GmbH                                   : IRC, NEB, NEB-TS, DLPNO-Multilevel, CI-OPT
                                                   MM, QMMM, 2- and 3-layer-ONIOM, Crystal-QMMM,
                                                   LR-CPCM, SF, NACMEs, symmetry and pop. for TD-DFT,
                                                   nearIR, NL-DFT gradient (VV10), updates on ESD,
                                                   ML-optimized integration grids
   S Lehtola, MJT Oliveira, MAL Marques          : LibXC Library
   Liviu Ungur et al                             : ANISO software


 Your calculation uses the libint2 library for the computation of 2-el integrals
 For citations please refer to: http://libint.valeyev.net

 Your ORCA version has been built with support for libXC version: 5.1.0
 For citations please refer to: https://tddft.org/programs/libxc/

 This ORCA versions uses:
   CBLAS   interface :  Fast vector & matrix operations
   LAPACKE interface :  Fast linear algebra routines
   SCALAPACK package :  Parallel linear algebra routines
   Shared memory     :  Shared parallel matrices
   BLAS/LAPACK       :  OpenBLAS 0.3.15  USE64BITINT DYNAMIC_ARCH NO_AFFINITY SkylakeX SINGLE_THREADED
        Core in use  :  SkylakeX
   Copyright (c) 2011-2014, The OpenBLAS Project


Your calculation utilizes the atom-pairwise dispersion correction
based on tight binding partial charges (D4)
Cite in your paper:
E.Caldeweyher, C.Bannwarth, S.Grimme, J.Chem.Phys., (2017), 147, 034112.
E.Caldeweyher, S.Ehlert, A.Hansen, H.Neugebauer, S.Grimme, J.Chem.Phys., (2018), in progress.
   

XCFun DFT library Copyright 2009-2010 Ulf Ekstrom and contributors.
See http://admol.org/xcfun for more information.
This is free software; see the source code for copying conditions.
There is ABSOLUTELY NO WARRANTY; not even for MERCHANTABILITY or FITNESS FOR A PARTICULAR PURPOSE.
For details see the documentation.
Scientific users of this library should cite U. Ekstrom, L. Visscher, R. Bast, A. J. Thorvaldsen and K. Ruud;
J.Chem.Theor.Comp. 2010, DOI: 10.1021/ct100117s
XCFun Version 0.99 

================================================================================

----- Orbital basis set information -----
Your calculation utilizes the basis: def2-SVP
   F. Weigend and R. Ahlrichs, Phys. Chem. Chem. Phys. 7, 3297 (2005).

----- AuxJ basis set information -----
Your calculation utilizes the auxiliary basis: def2/J
   F. Weigend, Phys. Chem. Chem. Phys. 8, 1057 (2006).

================================================================================
                                        WARNINGS
                       Please study these warnings very carefully!
================================================================================


INFO   : the flag for use of the SHARK integral package has been found!

================================================================================
                                       INPUT FILE
================================================================================
NAME = DFT_water_outs/2-gasSP.inp
|  1> ! SP wB97X D4 def2-SVP def2/J defgrid2 
|  2> %maxcore 3000
|  3> %PAL NPROCS 4 END
|  4> * xyz 0 1
|  5> C -0.0 0.6809 -0.6233
|  6> C -0.0 -0.6809 -0.6233
|  7> N -0.0 1.0598 0.7177
|  8> N -0.0 -1.0598 0.7177
|  9> C -0.0 0.0 1.5671
| 10> C 0.0 2.4411 1.1539
| 11> C 0.0 -2.4411 1.1539
| 12> H -0.8935 2.9697 0.7878
| 13> H -0.8935 -2.9697 0.7878
| 14> H 0.8935 -2.9697 0.7878
| 15> H 0.8935 2.9697 0.7878
| 16> H -0.0 2.4538 2.2504
| 17> H -0.0 -2.4538 2.2504
| 18> C -0.0 1.6647 -1.7446
| 19> C -0.0 -1.6647 -1.7446
| 20> H 0.8887 2.3155 -1.7126
| 21> H 0.8887 -2.3155 -1.7126
| 22> H -0.8887 -2.3155 -1.7126
| 23> H -0.8887 2.3155 -1.7126
| 24> H 0.0 1.1398 -2.71
| 25> H -0.0 -1.1398 -2.71
| 26> **                         ****END OF INPUT****
================================================================================

                       ****************************
                       * Single Point Calculation *
                       ****************************

---------------------------------
CARTESIAN COORDINATES (ANGSTROEM)
---------------------------------
  C     -0.000000    0.680900   -0.623300
  C     -0.000000   -0.680900   -0.623300
  N     -0.000000    1.059800    0.717700
  N     -0.000000   -1.059800    0.717700
  C     -0.000000    0.000000    1.567100
  C      0.000000    2.441100    1.153900
  C      0.000000   -2.441100    1.153900
  H     -0.893500    2.969700    0.787800
  H     -0.893500   -2.969700    0.787800
  H      0.893500   -2.969700    0.787800
  H      0.893500    2.969700    0.787800
  H     -0.000000    2.453800    2.250400
  H     -0.000000   -2.453800    2.250400
  C     -0.000000    1.664700   -1.744600
  C     -0.000000   -1.664700   -1.744600
  H      0.888700    2.315500   -1.712600
  H      0.888700   -2.315500   -1.712600
  H     -0.888700   -2.315500   -1.712600
  H     -0.888700    2.315500   -1.712600
  H      0.000000    1.139800   -2.710000
  H     -0.000000   -1.139800   -2.710000

----------------------------
CARTESIAN COORDINATES (A.U.)
----------------------------
  NO LB      ZA    FRAG     MASS         X           Y           Z
   0 C     6.0000    0    12.011   -0.000000    1.286715   -1.177866
   1 C     6.0000    0    12.011   -0.000000   -1.286715   -1.177866
   2 N     7.0000    0    14.007   -0.000000    2.002732    1.356256
   3 N     7.0000    0    14.007   -0.000000   -2.002732    1.356256
   4 C     6.0000    0    12.011   -0.000000    0.000000    2.961390
   5 C     6.0000    0    12.011    0.000000    4.613010    2.180555
   6 C     6.0000    0    12.011    0.000000   -4.613010    2.180555
   7 H     1.0000    0     1.008   -1.688470    5.611920    1.488726
   8 H     1.0000    0     1.008   -1.688470   -5.611920    1.488726
   9 H     1.0000    0     1.008    1.688470   -5.611920    1.488726
  10 H     1.0000    0     1.008    1.688470    5.611920    1.488726
  11 H     1.0000    0     1.008   -0.000000    4.637010    4.252640
  12 H     1.0000    0     1.008   -0.000000   -4.637010    4.252640
  13 C     6.0000    0    12.011   -0.000000    3.145827   -3.296816
  14 C     6.0000    0    12.011   -0.000000   -3.145827   -3.296816
  15 H     1.0000    0     1.008    1.679400    4.375661   -3.236345
  16 H     1.0000    0     1.008    1.679400   -4.375661   -3.236345
  17 H     1.0000    0     1.008   -1.679400   -4.375661   -3.236345
  18 H     1.0000    0     1.008   -1.679400    4.375661   -3.236345
  19 H     1.0000    0     1.008    0.000000    2.153910   -5.121158
  20 H     1.0000    0     1.008   -0.000000   -2.153910   -5.121158

--------------------------------
INTERNAL COORDINATES (ANGSTROEM)
--------------------------------
 C      0   0   0     0.000000000000     0.00000000     0.00000000
 C      1   0   0     1.361800000000     0.00000000     0.00000000
 N      1   2   0     1.393501420882   105.77765678     0.00000000
 N      2   1   3     1.393501420882   105.77765678     0.00000000
 C      3   1   2     1.358181283923   112.93354017     0.00000000
 C      3   1   2     1.448537238044   123.30322516   180.00000000
 C      4   2   1     1.448537238044   123.30322516   180.00000000
 H      6   3   1     1.100813072233   110.96228766    60.36578427
 H      7   4   2     1.100813072233   110.96228766   299.63421573
 H      7   4   2     1.100813072233   110.96228766    60.36578427
 H      6   3   1     1.100813072233   110.96228766   299.63421573
 H      6   3   1     1.096573545185   108.18915603   180.00000000
 H      7   4   2     1.096573545185   108.18915603   180.00000000
 C      1   2   3     1.491702426759   131.26288798   180.00000000
 C      2   1   3     1.491702426759   131.26288798   180.00000000
 H     14   1   2     1.101976556012   111.57168196   240.13489082
 H     15   2   1     1.101976556012   111.57168196   119.86510918
 H     15   2   1     1.101976556012   111.57168196   240.13489082
 H     14   1   2     1.101976556012   111.57168196   119.86510918
 H     14   1   2     1.098870861385   110.20363592     0.00000000
 H     15   2   1     1.098870861385   110.20363592     0.00000000

---------------------------
INTERNAL COORDINATES (A.U.)
---------------------------
 C      0   0   0     0.000000000000     0.00000000     0.00000000
 C      1   0   0     2.573429049174     0.00000000     0.00000000
 N      1   2   0     2.633336052697   105.77765678     0.00000000
 N      2   1   3     2.633336052697   105.77765678     0.00000000
 C      3   1   2     2.566590666833   112.93354017     0.00000000
 C      3   1   2     2.737338674690   123.30322516   180.00000000
 C      4   2   1     2.737338674690   123.30322516   180.00000000
 H      6   3   1     2.080235231162   110.96228766    60.36578427
 H      7   4   2     2.080235231162   110.96228766   299.63421573
 H      7   4   2     2.080235231162   110.96228766    60.36578427
 H      6   3   1     2.080235231162   110.96228766   299.63421573
 H      6   3   1     2.072223686103   108.18915603   180.00000000
 H      7   4   2     2.072223686103   108.18915603   180.00000000
 C      1   2   3     2.818909059881   131.26288798   180.00000000
 C      2   1   3     2.818909059881   131.26288798   180.00000000
 H     14   1   2     2.082433896864   111.57168196   240.13489082
 H     15   2   1     2.082433896864   111.57168196   119.86510918
 H     15   2   1     2.082433896864   111.57168196   240.13489082
 H     14   1   2     2.082433896864   111.57168196   119.86510918
 H     14   1   2     2.076564984563   110.20363592     0.00000000
 H     15   2   1     2.076564984563   110.20363592     0.00000000

---------------------
BASIS SET INFORMATION
---------------------
There are 3 groups of distinct atoms

 Group   1 Type C   : 7s4p1d contracted to 3s2p1d pattern {511/31/1}
 Group   2 Type N   : 7s4p1d contracted to 3s2p1d pattern {511/31/1}
 Group   3 Type H   : 4s1p contracted to 2s1p pattern {31/1}

Atom   0C    basis set group =>   1
Atom   1C    basis set group =>   1
Atom   2N    basis set group =>   2
Atom   3N    basis set group =>   2
Atom   4C    basis set group =>   1
Atom   5C    basis set group =>   1
Atom   6C    basis set group =>   1
Atom   7H    basis set group =>   3
Atom   8H    basis set group =>   3
Atom   9H    basis set group =>   3
Atom  10H    basis set group =>   3
Atom  11H    basis set group =>   3
Atom  12H    basis set group =>   3
Atom  13C    basis set group =>   1
Atom  14C    basis set group =>   1
Atom  15H    basis set group =>   3
Atom  16H    basis set group =>   3
Atom  17H    basis set group =>   3
Atom  18H    basis set group =>   3
Atom  19H    basis set group =>   3
Atom  20H    basis set group =>   3
---------------------------------
AUXILIARY/J BASIS SET INFORMATION
---------------------------------
There are 3 groups of distinct atoms

 Group   1 Type C   : 12s5p4d2f1g contracted to 6s4p3d1f1g pattern {711111/2111/211/2/1}
 Group   2 Type N   : 12s5p4d2f1g contracted to 6s4p3d1f1g pattern {711111/2111/211/2/1}
 Group   3 Type H   : 5s2p1d contracted to 3s1p1d pattern {311/2/1}

Atom   0C    basis set group =>   1
Atom   1C    basis set group =>   1
Atom   2N    basis set group =>   2
Atom   3N    basis set group =>   2
Atom   4C    basis set group =>   1
Atom   5C    basis set group =>   1
Atom   6C    basis set group =>   1
Atom   7H    basis set group =>   3
Atom   8H    basis set group =>   3
Atom   9H    basis set group =>   3
Atom  10H    basis set group =>   3
Atom  11H    basis set group =>   3
Atom  12H    basis set group =>   3
Atom  13C    basis set group =>   1
Atom  14C    basis set group =>   1
Atom  15H    basis set group =>   3
Atom  16H    basis set group =>   3
Atom  17H    basis set group =>   3
Atom  18H    basis set group =>   3
Atom  19H    basis set group =>   3
Atom  20H    basis set group =>   3


           ************************************************************
           *        Program running with 4 parallel MPI-processes     *
           *              working on a common directory               *
           ************************************************************
------------------------------------------------------------------------------
                           ORCA GTO INTEGRAL CALCULATION
                           -- RI-GTO INTEGRALS CHOSEN --
------------------------------------------------------------------------------
------------------------------------------------------------------------------
                   ___                                                        
                  /   \      - P O W E R E D   B Y -                         
                 /     \                                                     
                 |  |  |   _    _      __       _____    __    __             
                 |  |  |  | |  | |    /  \     |  _  \  |  |  /  |          
                  \  \/   | |  | |   /    \    | | | |  |  | /  /          
                 / \  \   | |__| |  /  /\  \   | |_| |  |  |/  /          
                |  |  |   |  __  | /  /__\  \  |    /   |      \           
                |  |  |   | |  | | |   __   |  |    \   |  |\   \          
                \     /   | |  | | |  |  |  |  | |\  \  |  | \   \       
                 \___/    |_|  |_| |__|  |__|  |_| \__\ |__|  \__/        
                                                                              
                      - O R C A' S   B I G   F R I E N D -                    
                                      &                                       
                       - I N T E G R A L  F E E D E R -                       
                                                                              
 v1 FN, 2020, v2 2021                                                         
------------------------------------------------------------------------------


Reading SHARK input file DFT_water_outs/2-gasSP.SHARKINP.tmp ... ok
----------------------
SHARK INTEGRAL PACKAGE
----------------------

Number of atoms                             ...     21
Number of basis functions                   ...    186
Number of shells                            ...     90
Maximum angular momentum                    ...      2
Integral batch strategy                     ... SHARK/LIBINT Hybrid
RI-J (if used) integral strategy            ... SPLIT-RIJ (Revised 2003 algorithm where possible)
Printlevel                                  ...      1
Contraction scheme used                     ... SEGMENTED contraction
Coulomb Range Separation                    ... NOT USED
Exchange Range Separation                   ... Long Range
   Mu parameter                             ...  0.300000
   Scaling (regular/separated)              ...  0.157706  0.842294
Finite Nucleus Model                        ... NOT USED
Auxiliary Coulomb fitting basis             ... AVAILABLE
   # of basis functions in Aux-J            ...    573
   # of shells in Aux-J                     ...    195
   Maximum angular momentum in Aux-J        ...      4
Auxiliary J/K fitting basis                 ... NOT available
Auxiliary Correlation fitting basis         ... NOT available
Auxiliary 'external' fitting basis          ... NOT available
Integral threshold                          ...     1.000000e-10
Primitive cut-off                           ...     1.000000e-11
Primitive pair pre-selection threshold      ...     1.000000e-11

Calculating pre-screening integrals         ... done (  0.0 sec) Dimension = 90
Organizing shell pair data                  ... done (  0.0 sec)
Shell pair information
Total number of shell pairs                 ...      4095
Shell pairs after pre-screening             ...      3756
Total number of primitive shell pairs       ...     14349
Primitive shell pairs kept                  ...      9543
          la=0 lb=0:   1237 shell pairs
          la=1 lb=0:   1390 shell pairs
          la=1 lb=1:    414 shell pairs
          la=2 lb=0:    421 shell pairs
          la=2 lb=1:    252 shell pairs
          la=2 lb=2:     42 shell pairs

Calculating one electron integrals          ... done (  0.0 sec)
Calculating RI/J V-Matrix + Cholesky decomp.... done (  0.0 sec)
Calculating Nuclear repulsion               ... done (  0.0 sec) ENN=    459.940369927287 Eh

SHARK setup successfully completed in   0.2 seconds

Maximum memory used throughout the entire GTOINT-calculation: 12.4 MB


           ************************************************************
           *        Program running with 4 parallel MPI-processes     *
           *              working on a common directory               *
           ************************************************************
-------------------------------------------------------------------------------
                                 ORCA SCF
-------------------------------------------------------------------------------

------------
SCF SETTINGS
------------
Hamiltonian:
 Density Functional     Method          .... DFT(GTOs)
 Exchange Functional    Exchange        .... WB97X
 Correlation Functional Correlation     .... WB97X
 Gradients option       PostSCFGGA      .... off
 Hybrid DFT is turned on
   Fraction HF Exchange ScalHFX         ....  0.157706
   Scaling of DF-GGA-X  ScalDFX         ....  0.000000
   Scaling of DF-GGA-C  ScalDFC         ....  1.000000
   Scaling of DF-LDA-C  ScalLDAC        ....  1.000000
   Perturbative correction              ....  0.000000
   Density functional embedding theory  .... OFF
 Long-range corrected/Screened/Range-Separated Hybrid DFT is turned on
   Amount of maximum screened exact exchange              ....  0.842294
   Range separation parameter mu (erf(mu*r12)/r12)        ....  0.300000
 RI-approximation to the Coulomb term is turned on
   Number of AuxJ basis functions       .... 573
   RIJ-COSX (HFX calculated with COS-X)).... on


General Settings:
 Integral files         IntName         .... DFT_water_outs/2-gasSP
 Hartree-Fock type      HFTyp           .... RHF
 Total Charge           Charge          ....    0
 Multiplicity           Mult            ....    1
 Number of Electrons    NEL             ....   68
 Basis Dimension        Dim             ....  186
 Nuclear Repulsion      ENuc            ....    459.9403699273 Eh

Convergence Acceleration:
 DIIS                   CNVDIIS         .... on
   Start iteration      DIISMaxIt       ....    12
   Startup error        DIISStart       ....  0.200000
   # of expansion vecs  DIISMaxEq       ....     5
   Bias factor          DIISBfac        ....   1.050
   Max. coefficient     DIISMaxC        ....  10.000
 Trust-Rad. Augm. Hess. CNVTRAH         .... auto
   Auto Start mean grad. ratio tolernc. ....  1.125000
   Auto Start start iteration           ....    20
   Auto Start num. interpolation iter.  ....    10
   Max. Number of Micro iterations      ....    16
   Max. Number of Macro iterations      .... Maxiter - #DIIS iter
   Number of Davidson start vectors     ....     2
   Converg. threshold I  (grad. norm)   ....   5.000e-05
   Converg. threshold II (energy diff.) ....   1.000e-06
   Grad. Scal. Fac. for Micro threshold ....   0.100
   Minimum threshold for Micro iter.    ....   0.010
   NR start threshold (gradient norm)   ....   0.001
   Initial trust radius                 ....   0.400
   Minimum AH scaling param. (alpha)    ....   1.000
   Maximum AH scaling param. (alpha)    .... 1000.000
   Orbital update algorithm             .... Taylor
   White noise on init. David. guess    .... on
   Maximum white noise                  ....   0.010
   Quad. conv. algorithm                .... NR
 SOSCF                  CNVSOSCF        .... on
   Start iteration      SOSCFMaxIt      ....   150
   Startup grad/error   SOSCFStart      ....  0.003300
 Level Shifting         CNVShift        .... on
   Level shift para.    LevelShift      ....    0.2500
   Turn off err/grad.   ShiftErr        ....    0.0010
 Zerner damping         CNVZerner       .... off
 Static damping         CNVDamp         .... on
   Fraction old density DampFac         ....    0.7000
   Max. Damping (<1)    DampMax         ....    0.9800
   Min. Damping (>=0)   DampMin         ....    0.0000
   Turn off err/grad.   DampErr         ....    0.1000
 Fernandez-Rico         CNVRico         .... off

SCF Procedure:
 Maximum # iterations   MaxIter         ....   125
 SCF integral mode      SCFMode         .... Direct
   Integral package                     .... SHARK and LIBINT hybrid scheme
 Reset frequency        DirectResetFreq ....    20
 Integral Threshold     Thresh          ....  1.000e-10 Eh
 Primitive CutOff       TCut            ....  1.000e-11 Eh

Convergence Tolerance:
 Convergence Check Mode ConvCheckMode   .... Total+1el-Energy
 Convergence forced     ConvForced      .... 0
 Energy Change          TolE            ....  1.000e-06 Eh
 1-El. energy change                    ....  1.000e-03 Eh
 Orbital Gradient       TolG            ....  5.000e-05
 Orbital Rotation angle TolX            ....  5.000e-05
 DIIS Error             TolErr          ....  1.000e-06


Diagonalization of the overlap matrix:
Smallest eigenvalue                        ... 9.144e-04
Time for diagonalization                   ...    0.008 sec
Threshold for overlap eigenvalues          ... 1.000e-08
Number of eigenvalues below threshold      ... 0
Time for construction of square roots      ...    0.004 sec
Total time needed                          ...    0.012 sec

Time for model grid setup =    0.131 sec

------------------------------
INITIAL GUESS: MODEL POTENTIAL
------------------------------
Loading Hartree-Fock densities                     ... done
Calculating cut-offs                               ... done
Initializing the effective Hamiltonian             ... done
Setting up the integral package (SHARK)            ... done
Starting the Coulomb interaction                   ... done (   0.1 sec)
Reading the grid                                   ... done
Mapping shells                                     ... done
Starting the XC term evaluation                    ... done (   0.1 sec)
  promolecular density results
     # of electrons  =     68.000594347
     EX              =    -52.438705509
     EC              =     -2.247864620
     EX+EC           =    -54.686570130
Transforming the Hamiltonian                       ... done (   0.0 sec)
Diagonalizing the Hamiltonian                      ... done (   0.0 sec)
Back transforming the eigenvectors                 ... done (   0.0 sec)
Now organizing SCF variables                       ... done
                      ------------------
                      INITIAL GUESS DONE (   0.4 sec)
                      ------------------
-------------------
DFT GRID GENERATION
-------------------

General Integration Accuracy     IntAcc      ... 4.388
Radial Grid Type                 RadialGrid  ... OptM3 with GC (2021)
Angular Grid (max. ang.)         AngularGrid ... 4 (Lebedev-302)
Angular grid pruning method      GridPruning ... 4 (adaptive)
Weight generation scheme         WeightScheme... Becke
Basis function cutoff            BFCut       ... 1.0000e-10
Integration weight cutoff        WCut        ... 1.0000e-14
Angular grids for H and He will be reduced by one unit
Partially contracted basis set               ... off
Rotationally invariant grid construction     ... off

Total number of grid points                  ...    92557
Total number of batches                      ...     1455
Average number of points per batch           ...       63
Average number of grid points per atom       ...     4407
Time for grid setup =    0.880 sec

--------------------
COSX GRID GENERATION
--------------------

GRIDX 1
-------
General Integration Accuracy     IntAcc      ... 3.816
Radial Grid Type                 RadialGrid  ... OptM3 with GC (2021)
Angular Grid (max. ang.)         AngularGrid ... 1 (Lebedev-50)
Angular grid pruning method      GridPruning ... 4 (adaptive)
Weight generation scheme         WeightScheme... Becke
Basis function cutoff            BFCut       ... 1.0000e-10
Integration weight cutoff        WCut        ... 1.0000e-14
Angular grids for H and He will be reduced by one unit
Partially contracted basis set               ... on
Rotationally invariant grid construction     ... off

Total number of grid points                  ...    11845
Total number of batches                      ...      198
Average number of points per batch           ...       59
Average number of grid points per atom       ...      564
UseSFitting                                  ... on

GRIDX 2
-------
General Integration Accuracy     IntAcc      ... 4.020
Radial Grid Type                 RadialGrid  ... OptM3 with GC (2021)
Angular Grid (max. ang.)         AngularGrid ... 2 (Lebedev-110)
Angular grid pruning method      GridPruning ... 4 (adaptive)
Weight generation scheme         WeightScheme... Becke
Basis function cutoff            BFCut       ... 1.0000e-10
Integration weight cutoff        WCut        ... 1.0000e-14
Angular grids for H and He will be reduced by one unit
Partially contracted basis set               ... on
Rotationally invariant grid construction     ... off

Total number of grid points                  ...    25065
Total number of batches                      ...      402
Average number of points per batch           ...       62
Average number of grid points per atom       ...     1194
UseSFitting                                  ... on

GRIDX 3
-------
General Integration Accuracy     IntAcc      ... 4.338
Radial Grid Type                 RadialGrid  ... OptM3 with GC (2021)
Angular Grid (max. ang.)         AngularGrid ... 3 (Lebedev-194)
Angular grid pruning method      GridPruning ... 4 (adaptive)
Weight generation scheme         WeightScheme... Becke
Basis function cutoff            BFCut       ... 1.0000e-10
Integration weight cutoff        WCut        ... 1.0000e-14
Angular grids for H and He will be reduced by one unit
Partially contracted basis set               ... on
Rotationally invariant grid construction     ... off

Total number of grid points                  ...    54849
Total number of batches                      ...      869
Average number of points per batch           ...       63
Average number of grid points per atom       ...     2612
UseSFitting                                  ... on

Time for X-Grid setup             =    0.687 sec

--------------
SCF ITERATIONS
--------------
ITER       Energy         Delta-E        Max-DP      RMS-DP      [F,P]     Damp
               ***  Starting incremental Fock matrix formation  ***
  0   -382.8807956407   0.000000000000 0.07855009  0.00161334  0.1493183 0.7000
  1   -382.9501969277  -0.069401286984 0.07102499  0.00123135  0.0932393 0.7000
                               ***Turning on DIIS***
  2   -382.9894652937  -0.039268366038 0.17019866  0.00261928  0.0512634 0.0000
  3   -383.0565727112  -0.067107417506 0.03011101  0.00071408  0.0297239 0.0000
  4   -383.0639319291  -0.007359217943 0.00674725  0.00018181  0.0046422 0.0000
                      *** Initiating the SOSCF procedure ***
                           *** Shutting down DIIS ***
                      *** Re-Reading the Fockian *** 
                      *** Removing any level shift *** 
ITER      Energy       Delta-E        Grad      Rot      Max-DP    RMS-DP
  5   -383.06415441  -0.0002224856  0.001628  0.001628  0.004363  0.000075
               *** Restarting incremental Fock matrix formation ***
  6   -383.06427559  -0.0001211773  0.000836  0.001855  0.001713  0.000048
  7   -383.06428612  -0.0000105292  0.000447  0.001994  0.001513  0.000040
  8   -383.06428838  -0.0000022635  0.000128  0.000316  0.000937  0.000014
  9   -383.06428902  -0.0000006344  0.000023  0.000040  0.000283  0.000003
                 **** Energy Check signals convergence ****
              ***Rediagonalizing the Fockian in SOSCF/NRSCF***

               *****************************************************
               *                     SUCCESS                       *
               *           SCF CONVERGED AFTER  10 CYCLES          *
               *****************************************************

Old exchange energy                            =    -17.408930353 Eh
New exchange energy                            =    -17.408912828 Eh
Exchange energy change after final integration =      0.000017526 Eh
Total energy after final integration           =   -383.064271516 Eh
Final COS-X integration done in                =     8.244 sec

----------------
TOTAL SCF ENERGY
----------------

Total Energy       :         -383.06427152 Eh          -10423.70876 eV

Components:
Nuclear Repulsion  :          459.94036993 Eh           12515.61375 eV
Electronic Energy  :         -843.00464144 Eh          -22939.32251 eV
One Electron Energy:        -1427.68155313 Eh          -38849.19012 eV
Two Electron Energy:          584.67691169 Eh           15909.86761 eV
Max COSX asymmetry :            0.00000216 Eh               0.00006 eV

Virial components:
Potential Energy   :         -761.60695735 Eh          -20724.37892 eV
Kinetic Energy     :          378.54268584 Eh           10300.67016 eV
Virial Ratio       :            2.01194472


DFT components:
N(Alpha)           :       34.000116111326 electrons
N(Beta)            :       34.000116111326 electrons
N(Total)           :       68.000232222653 electrons
E(XC)              :      -38.715852921316 Eh       
DFET-embed. en.    :        0.000000000000 Eh       

---------------
SCF CONVERGENCE
---------------

  Last Energy change         ...   -2.2315e-08  Tolerance :   1.0000e-06
  Last MAX-Density change    ...    3.5527e-15  Tolerance :   1.0000e-05
  Last RMS-Density change    ...    4.6887e-17  Tolerance :   1.0000e-06
  Last Orbital Gradient      ...    9.7707e-06  Tolerance :   5.0000e-05
  Last Orbital Rotation      ...    2.3056e-05  Tolerance :   5.0000e-05

             **** THE GBW FILE WAS UPDATED (DFT_water_outs/2-gasSP.gbw) ****
             **** DENSITY DFT_water_outs/2-gasSP.scfp WAS UPDATED ****
             **** ENERGY FILE WAS UPDATED (DFT_water_outs/2-gasSP.en.tmp) ****
             **** THE GBW FILE WAS UPDATED (DFT_water_outs/2-gasSP.gbw) ****
             **** DENSITY DFT_water_outs/2-gasSP.scfp WAS UPDATED ****
----------------
ORBITAL ENERGIES
----------------

  NO   OCC          E(Eh)            E(eV) 
   0   2.0000     -14.434570      -392.7846 
   1   2.0000     -14.434569      -392.7846 
   2   2.0000     -10.300142      -280.2811 
   3   2.0000     -10.300115      -280.2804 
   4   2.0000     -10.288910      -279.9755 
   5   2.0000     -10.288391      -279.9614 
   6   2.0000     -10.283137      -279.8184 
   7   2.0000     -10.283084      -279.8169 
   8   2.0000     -10.256464      -279.0926 
   9   2.0000      -1.134657       -30.8756 
  10   2.0000      -1.026569       -27.9344 
  11   2.0000      -0.913691       -24.8628 
  12   2.0000      -0.868710       -23.6388 
  13   2.0000      -0.856831       -23.3156 
  14   2.0000      -0.783732       -21.3264 
  15   2.0000      -0.777071       -21.1452 
  16   2.0000      -0.679279       -18.4841 
  17   2.0000      -0.672559       -18.3013 
  18   2.0000      -0.611383       -16.6366 
  19   2.0000      -0.591925       -16.1071 
  20   2.0000      -0.554258       -15.0821 
  21   2.0000      -0.544563       -14.8183 
  22   2.0000      -0.537637       -14.6298 
  23   2.0000      -0.525670       -14.3042 
  24   2.0000      -0.524940       -14.2843 
  25   2.0000      -0.515479       -14.0269 
  26   2.0000      -0.507949       -13.8220 
  27   2.0000      -0.498447       -13.5634 
  28   2.0000      -0.475474       -12.9383 
  29   2.0000      -0.473149       -12.8750 
  30   2.0000      -0.468328       -12.7439 
  31   2.0000      -0.358023        -9.7423 
  32   2.0000      -0.298238        -8.1155 
  33   2.0000      -0.295915        -8.0523 
  34   0.0000       0.133624         3.6361 
  35   0.0000       0.135890         3.6978 
  36   0.0000       0.151078         4.1110 
  37   0.0000       0.152713         4.1555 
  38   0.0000       0.177931         4.8417 
  39   0.0000       0.190153         5.1743 
  40   0.0000       0.197029         5.3614 
  41   0.0000       0.205888         5.6025 
  42   0.0000       0.217472         5.9177 
  43   0.0000       0.229988         6.2583 
  44   0.0000       0.233022         6.3409 
  45   0.0000       0.250050         6.8042 
  46   0.0000       0.264876         7.2076 
  47   0.0000       0.287941         7.8353 
  48   0.0000       0.288417         7.8482 
  49   0.0000       0.305906         8.3241 
  50   0.0000       0.310829         8.4581 
  51   0.0000       0.339008         9.2249 
  52   0.0000       0.358879         9.7656 
  53   0.0000       0.384855        10.4724 
  54   0.0000       0.399198        10.8627 
  55   0.0000       0.468274        12.7424 
  56   0.0000       0.480175        13.0662 
  57   0.0000       0.497963        13.5503 
  58   0.0000       0.501731        13.6528 
  59   0.0000       0.505100        13.7445 
  60   0.0000       0.527025        14.3411 
  61   0.0000       0.546562        14.8727 
  62   0.0000       0.564151        15.3513 
  63   0.0000       0.568052        15.4575 
  64   0.0000       0.580740        15.8027 
  65   0.0000       0.615854        16.7582 
  66   0.0000       0.622523        16.9397 
  67   0.0000       0.661147        17.9907 
  68   0.0000       0.662399        18.0248 
  69   0.0000       0.678397        18.4601 
  70   0.0000       0.700019        19.0485 
  71   0.0000       0.731755        19.9121 
  72   0.0000       0.731762        19.9123 
  73   0.0000       0.743253        20.2249 
  74   0.0000       0.745733        20.2924 
  75   0.0000       0.749177        20.3861 
  76   0.0000       0.751266        20.4430 
  77   0.0000       0.760847        20.7037 
  78   0.0000       0.762650        20.7528 
  79   0.0000       0.771480        20.9930 
  80   0.0000       0.784361        21.3436 
  81   0.0000       0.785600        21.3773 
  82   0.0000       0.788322        21.4513 
  83   0.0000       0.803693        21.8696 
  84   0.0000       0.807481        21.9727 
  85   0.0000       0.812611        22.1123 
  86   0.0000       0.823142        22.3988 
  87   0.0000       0.825910        22.4742 
  88   0.0000       0.836304        22.7570 
  89   0.0000       0.851442        23.1689 
  90   0.0000       0.858304        23.3556 
  91   0.0000       0.964066        26.2336 
  92   0.0000       1.002448        27.2780 
  93   0.0000       1.019584        27.7443 
  94   0.0000       1.036066        28.1928 
  95   0.0000       1.055229        28.7142 
  96   0.0000       1.077971        29.3331 
  97   0.0000       1.087649        29.5964 
  98   0.0000       1.170893        31.8616 
  99   0.0000       1.212176        32.9850 
 100   0.0000       1.246101        33.9081 
 101   0.0000       1.289994        35.1025 
 102   0.0000       1.304662        35.5017 
 103   0.0000       1.317072        35.8394 
 104   0.0000       1.338782        36.4301 
 105   0.0000       1.348644        36.6985 
 106   0.0000       1.396740        38.0072 
 107   0.0000       1.423041        38.7229 
 108   0.0000       1.555211        42.3194 
 109   0.0000       1.555593        42.3298 
 110   0.0000       1.570854        42.7451 
 111   0.0000       1.629549        44.3423 
 112   0.0000       1.634064        44.4651 
 113   0.0000       1.635555        44.5057 
 114   0.0000       1.642438        44.6930 
 115   0.0000       1.644881        44.7595 
 116   0.0000       1.660329        45.1799 
 117   0.0000       1.663994        45.2796 
 118   0.0000       1.680649        45.7328 
 119   0.0000       1.742897        47.4266 
 120   0.0000       1.751489        47.6604 
 121   0.0000       1.758867        47.8612 
 122   0.0000       1.818335        49.4794 
 123   0.0000       1.872642        50.9572 
 124   0.0000       1.876600        51.0649 
 125   0.0000       1.886958        51.3468 
 126   0.0000       1.889012        51.4026 
 127   0.0000       1.893838        51.5340 
 128   0.0000       1.897638        51.6374 
 129   0.0000       1.898220        51.6532 
 130   0.0000       1.917435        52.1761 
 131   0.0000       1.934202        52.6323 
 132   0.0000       1.958123        53.2832 
 133   0.0000       1.978661        53.8421 
 134   0.0000       2.000379        54.4331 
 135   0.0000       2.010855        54.7181 
 136   0.0000       2.019510        54.9536 
 137   0.0000       2.046821        55.6968 
 138   0.0000       2.077775        56.5391 
 139   0.0000       2.086956        56.7890 
 140   0.0000       2.131434        57.9993 
 141   0.0000       2.146511        58.4095 
 142   0.0000       2.175806        59.2067 
 143   0.0000       2.204447        59.9860 
 144   0.0000       2.223511        60.5048 
 145   0.0000       2.225265        60.5526 
 146   0.0000       2.256503        61.4026 
 147   0.0000       2.283324        62.1324 
 148   0.0000       2.308816        62.8261 
 149   0.0000       2.321231        63.1639 
 150   0.0000       2.347524        63.8794 
 151   0.0000       2.380196        64.7684 
 152   0.0000       2.383859        64.8681 
 153   0.0000       2.422375        65.9162 
 154   0.0000       2.439133        66.3722 
 155   0.0000       2.501669        68.0739 
 156   0.0000       2.523926        68.6795 
 157   0.0000       2.539215        69.0956 
 158   0.0000       2.563564        69.7581 
 159   0.0000       2.596070        70.6427 
 160   0.0000       2.619938        71.2921 
 161   0.0000       2.641833        71.8879 
 162   0.0000       2.657132        72.3042 
 163   0.0000       2.698293        73.4243 
 164   0.0000       2.766709        75.2860 
 165   0.0000       2.774060        75.4860 
 166   0.0000       2.807583        76.3982 
 167   0.0000       2.835621        77.1612 
 168   0.0000       2.879552        78.3566 
 169   0.0000       2.884446        78.4898 
 170   0.0000       2.887751        78.5797 
 171   0.0000       2.929616        79.7189 
 172   0.0000       2.941728        80.0485 
 173   0.0000       2.996371        81.5354 
 174   0.0000       3.002439        81.7005 
 175   0.0000       3.021752        82.2260 
 176   0.0000       3.045580        82.8744 
 177   0.0000       3.065132        83.4065 
 178   0.0000       3.070765        83.5598 
 179   0.0000       3.105924        84.5165 
 180   0.0000       3.132776        85.2472 
 181   0.0000       3.163153        86.0738 
 182   0.0000       3.308802        90.0371 
 183   0.0000       3.425649        93.2166 
 184   0.0000       3.436372        93.5084 
 185   0.0000       3.527141        95.9784 

                    ********************************
                    * MULLIKEN POPULATION ANALYSIS *
                    ********************************

-----------------------
MULLIKEN ATOMIC CHARGES
-----------------------
   0 C :   -0.105583
   1 C :   -0.105579
   2 N :   -0.248319
   3 N :   -0.248320
   4 C :   -0.135481
   5 C :    0.113905
   6 C :    0.113905
   7 H :    0.031779
   8 H :    0.031779
   9 H :    0.031779
  10 H :    0.031779
  11 H :    0.060153
  12 H :    0.060154
  13 C :    0.084908
  14 C :    0.084905
  15 H :    0.038763
  16 H :    0.038763
  17 H :    0.038763
  18 H :    0.038763
  19 H :    0.021592
  20 H :    0.021594
Sum of atomic charges:    0.0000000

--------------------------------
MULLIKEN REDUCED ORBITAL CHARGES
--------------------------------
  0 C s       :     3.091610  s :     3.091610
      pz      :     0.877039  p :     2.957216
      px      :     1.090067
      py      :     0.990110
      dz2     :     0.017640  d :     0.056757
      dxz     :     0.009408
      dyz     :     0.013711
      dx2y2   :     0.005692
      dxy     :     0.010306
  1 C s       :     3.091609  s :     3.091609
      pz      :     0.877035  p :     2.957214
      px      :     1.090067
      py      :     0.990112
      dz2     :     0.017640  d :     0.056757
      dxz     :     0.009408
      dyz     :     0.013711
      dx2y2   :     0.005692
      dxy     :     0.010306
  2 N s       :     3.400993  s :     3.400993
      pz      :     1.122921  p :     3.815315
      px      :     1.538967
      py      :     1.153427
      dz2     :     0.008955  d :     0.032010
      dxz     :     0.005290
      dyz     :     0.008569
      dx2y2   :     0.005075
      dxy     :     0.004122
  3 N s       :     3.400994  s :     3.400994
      pz      :     1.122921  p :     3.815316
      px      :     1.538968
      py      :     1.153427
      dz2     :     0.008955  d :     0.032010
      dxz     :     0.005290
      dyz     :     0.008569
      dx2y2   :     0.005075
      dxy     :     0.004122
  4 C s       :     3.637882  s :     3.637882
      pz      :     1.122841  p :     2.430806
      px      :     0.661810
      py      :     0.646155
      dz2     :     0.008725  d :     0.066793
      dxz     :     0.010054
      dyz     :     0.029045
      dx2y2   :     0.007093
      dxy     :     0.011876
  5 C s       :     2.979499  s :     2.979499
      pz      :     1.043844  p :     2.867494
      px      :     1.013645
      py      :     0.810004
      dz2     :     0.008240  d :     0.039102
      dxz     :     0.002941
      dyz     :     0.006428
      dx2y2   :     0.009449
      dxy     :     0.012044
  6 C s       :     2.979498  s :     2.979498
      pz      :     1.043844  p :     2.867495
      px      :     1.013646
      py      :     0.810005
      dz2     :     0.008240  d :     0.039103
      dxz     :     0.002941
      dyz     :     0.006428
      dx2y2   :     0.009449
      dxy     :     0.012044
  7 H s       :     0.945343  s :     0.945343
      pz      :     0.005674  p :     0.022879
      px      :     0.011950
      py      :     0.005255
  8 H s       :     0.945343  s :     0.945343
      pz      :     0.005674  p :     0.022879
      px      :     0.011950
      py      :     0.005255
  9 H s       :     0.945343  s :     0.945343
      pz      :     0.005674  p :     0.022879
      px      :     0.011950
      py      :     0.005255
 10 H s       :     0.945343  s :     0.945343
      pz      :     0.005674  p :     0.022879
      px      :     0.011950
      py      :     0.005255
 11 H s       :     0.916811  s :     0.916811
      pz      :     0.015860  p :     0.023036
      px      :     0.004692
      py      :     0.002483
 12 H s       :     0.916811  s :     0.916811
      pz      :     0.015860  p :     0.023036
      px      :     0.004692
      py      :     0.002483
 13 C s       :     2.893616  s :     2.893616
      pz      :     0.981697  p :     2.993885
      px      :     1.021311
      py      :     0.990877
      dz2     :     0.006431  d :     0.027591
      dxz     :     0.001961
      dyz     :     0.007503
      dx2y2   :     0.002291
      dxy     :     0.009405
 14 C s       :     2.893618  s :     2.893618
      pz      :     0.981695  p :     2.993886
      px      :     1.021311
      py      :     0.990880
      dz2     :     0.006431  d :     0.027591
      dxz     :     0.001961
      dyz     :     0.007503
      dx2y2   :     0.002291
      dxy     :     0.009405
 15 H s       :     0.937373  s :     0.937373
      pz      :     0.004230  p :     0.023864
      px      :     0.011634
      py      :     0.008000
 16 H s       :     0.937373  s :     0.937373
      pz      :     0.004230  p :     0.023864
      px      :     0.011634
      py      :     0.008000
 17 H s       :     0.937373  s :     0.937373
      pz      :     0.004230  p :     0.023864
      px      :     0.011634
      py      :     0.008000
 18 H s       :     0.937373  s :     0.937373
      pz      :     0.004230  p :     0.023864
      px      :     0.011634
      py      :     0.008000
 19 H s       :     0.954306  s :     0.954306
      pz      :     0.012405  p :     0.024101
      px      :     0.004893
      py      :     0.006803
 20 H s       :     0.954305  s :     0.954305
      pz      :     0.012405  p :     0.024101
      px      :     0.004893
      py      :     0.006803


                     *******************************
                     * LOEWDIN POPULATION ANALYSIS *
                     *******************************

----------------------
LOEWDIN ATOMIC CHARGES
----------------------
   0 C :   -0.049633
   1 C :   -0.049633
   2 N :    0.012777
   3 N :    0.012777
   4 C :   -0.256673
   5 C :    0.030533
   6 C :    0.030533
   7 H :    0.022330
   8 H :    0.022330
   9 H :    0.022330
  10 H :    0.022330
  11 H :    0.039792
  12 H :    0.039793
  13 C :   -0.057523
  14 C :   -0.057523
  15 H :    0.035555
  16 H :    0.035555
  17 H :    0.035555
  18 H :    0.035555
  19 H :    0.036621
  20 H :    0.036621

-------------------------------
LOEWDIN REDUCED ORBITAL CHARGES
-------------------------------
  0 C s       :     2.842041  s :     2.842041
      pz      :     0.943874  p :     3.070472
      px      :     1.071128
      py      :     1.055469
      dz2     :     0.045574  d :     0.137121
      dxz     :     0.018595
      dyz     :     0.037189
      dx2y2   :     0.015694
      dxy     :     0.020070
  1 C s       :     2.842041  s :     2.842041
      pz      :     0.943874  p :     3.070471
      px      :     1.071128
      py      :     1.055469
      dz2     :     0.045574  d :     0.137121
      dxz     :     0.018595
      dyz     :     0.037189
      dx2y2   :     0.015694
      dxy     :     0.020070
  2 N s       :     3.062813  s :     3.062813
      pz      :     1.194080  p :     3.849725
      px      :     1.468522
      py      :     1.187123
      dz2     :     0.022886  d :     0.074686
      dxz     :     0.010392
      dyz     :     0.023958
      dx2y2   :     0.010760
      dxy     :     0.006690
  3 N s       :     3.062813  s :     3.062813
      pz      :     1.194080  p :     3.849725
      px      :     1.468522
      py      :     1.187123
      dz2     :     0.022886  d :     0.074686
      dxz     :     0.010392
      dyz     :     0.023958
      dx2y2   :     0.010760
      dxy     :     0.006690
  4 C s       :     3.213097  s :     3.213097
      pz      :     1.367584  p :     2.900020
      px      :     0.718161
      py      :     0.814275
      dz2     :     0.014069  d :     0.143557
      dxz     :     0.014142
      dyz     :     0.067220
      dx2y2   :     0.021860
      dxy     :     0.026265
  5 C s       :     2.830734  s :     2.830734
      pz      :     1.072166  p :     3.042283
      px      :     1.071433
      py      :     0.898684
      dz2     :     0.022172  d :     0.096450
      dxz     :     0.006718
      dyz     :     0.014591
      dx2y2   :     0.022322
      dxy     :     0.030647
  6 C s       :     2.830734  s :     2.830734
      pz      :     1.072166  p :     3.042283
      px      :     1.071433
      py      :     0.898684
      dz2     :     0.022172  d :     0.096450
      dxz     :     0.006718
      dyz     :     0.014591
      dx2y2   :     0.022322
      dxy     :     0.030647
  7 H s       :     0.913880  s :     0.913880
      pz      :     0.015465  p :     0.063790
      px      :     0.031949
      py      :     0.016376
  8 H s       :     0.913880  s :     0.913880
      pz      :     0.015465  p :     0.063790
      px      :     0.031949
      py      :     0.016376
  9 H s       :     0.913880  s :     0.913880
      pz      :     0.015465  p :     0.063790
      px      :     0.031949
      py      :     0.016376
 10 H s       :     0.913880  s :     0.913880
      pz      :     0.015465  p :     0.063790
      px      :     0.031949
      py      :     0.016376
 11 H s       :     0.894573  s :     0.894573
      pz      :     0.044832  p :     0.065634
      px      :     0.012078
      py      :     0.008724
 12 H s       :     0.894573  s :     0.894573
      pz      :     0.044832  p :     0.065634
      px      :     0.012078
      py      :     0.008724
 13 C s       :     2.822566  s :     2.822566
      pz      :     1.045909  p :     3.161295
      px      :     1.068972
      py      :     1.046414
      dz2     :     0.018027  d :     0.073663
      dxz     :     0.003851
      dyz     :     0.020937
      dx2y2   :     0.005730
      dxy     :     0.025118
 14 C s       :     2.822566  s :     2.822566
      pz      :     1.045909  p :     3.161295
      px      :     1.068972
      py      :     1.046414
      dz2     :     0.018027  d :     0.073663
      dxz     :     0.003851
      dyz     :     0.020937
      dx2y2   :     0.005730
      dxy     :     0.025118
 15 H s       :     0.899524  s :     0.899524
      pz      :     0.012345  p :     0.064921
      px      :     0.030879
      py      :     0.021696
 16 H s       :     0.899524  s :     0.899524
      pz      :     0.012345  p :     0.064921
      px      :     0.030879
      py      :     0.021696
 17 H s       :     0.899525  s :     0.899525
      pz      :     0.012345  p :     0.064921
      px      :     0.030879
      py      :     0.021696
 18 H s       :     0.899525  s :     0.899525
      pz      :     0.012345  p :     0.064921
      px      :     0.030879
      py      :     0.021696
 19 H s       :     0.898349  s :     0.898349
      pz      :     0.033772  p :     0.065029
      px      :     0.012460
      py      :     0.018798
 20 H s       :     0.898349  s :     0.898349
      pz      :     0.033772  p :     0.065029
      px      :     0.012460
      py      :     0.018798


                      *****************************
                      * MAYER POPULATION ANALYSIS *
                      *****************************

  NA   - Mulliken gross atomic population
  ZA   - Total nuclear charge
  QA   - Mulliken gross atomic charge
  VA   - Mayer's total valence
  BVA  - Mayer's bonded valence
  FA   - Mayer's free valence

  ATOM       NA         ZA         QA         VA         BVA        FA
  0 C      6.1056     6.0000    -0.1056     4.0567     4.0567     0.0000
  1 C      6.1056     6.0000    -0.1056     4.0567     4.0567    -0.0000
  2 N      7.2483     7.0000    -0.2483     3.3836     3.3836    -0.0000
  3 N      7.2483     7.0000    -0.2483     3.3836     3.3836    -0.0000
  4 C      6.1355     6.0000    -0.1355     2.6631     2.6631     0.0000
  5 C      5.8861     6.0000     0.1139     3.9085     3.9085     0.0000
  6 C      5.8861     6.0000     0.1139     3.9085     3.9085     0.0000
  7 H      0.9682     1.0000     0.0318     0.9902     0.9902     0.0000
  8 H      0.9682     1.0000     0.0318     0.9902     0.9902     0.0000
  9 H      0.9682     1.0000     0.0318     0.9902     0.9902     0.0000
 10 H      0.9682     1.0000     0.0318     0.9902     0.9902     0.0000
 11 H      0.9398     1.0000     0.0602     1.0189     1.0189     0.0000
 12 H      0.9398     1.0000     0.0602     1.0189     1.0189     0.0000
 13 C      5.9151     6.0000     0.0849     3.9586     3.9586     0.0000
 14 C      5.9151     6.0000     0.0849     3.9586     3.9586     0.0000
 15 H      0.9612     1.0000     0.0388     0.9911     0.9911     0.0000
 16 H      0.9612     1.0000     0.0388     0.9911     0.9911    -0.0000
 17 H      0.9612     1.0000     0.0388     0.9911     0.9911    -0.0000
 18 H      0.9612     1.0000     0.0388     0.9911     0.9911     0.0000
 19 H      0.9784     1.0000     0.0216     1.0023     1.0023    -0.0000
 20 H      0.9784     1.0000     0.0216     1.0023     1.0023    -0.0000

  Mayer bond orders larger than 0.100000
B(  0-C ,  1-C ) :   1.6755 B(  0-C ,  2-N ) :   1.1200 B(  0-C , 13-C ) :   1.0892 
B(  1-C ,  3-N ) :   1.1200 B(  1-C , 14-C ) :   1.0892 B(  2-N ,  4-C ) :   1.2245 
B(  2-N ,  5-C ) :   0.9701 B(  3-N ,  4-C ) :   1.2245 B(  3-N ,  6-C ) :   0.9701 
B(  5-C ,  7-H ) :   0.9764 B(  5-C , 10-H ) :   0.9764 B(  5-C , 11-H ) :   0.9702 
B(  6-C ,  8-H ) :   0.9764 B(  6-C ,  9-H ) :   0.9764 B(  6-C , 12-H ) :   0.9702 
B( 13-C , 15-H ) :   0.9519 B( 13-C , 18-H ) :   0.9519 B( 13-C , 19-H ) :   0.9473 
B( 14-C , 16-H ) :   0.9519 B( 14-C , 17-H ) :   0.9519 B( 14-C , 20-H ) :   0.9473 


-------
TIMINGS
-------

Total SCF time: 0 days 0 hours 0 min 47 sec 

Total time                  ....      47.234 sec
Sum of individual times     ....      46.758 sec  ( 99.0%)

Fock matrix formation       ....      44.673 sec  ( 94.6%)
  Split-RI-J                ....       1.882 sec  (  4.2% of F)
  Chain of spheres X        ....      38.238 sec  ( 85.6% of F)
  XC integration            ....       4.442 sec  (  9.9% of F)
    Basis function eval.    ....       1.420 sec  ( 32.0% of XC)
    Density eval.           ....       0.862 sec  ( 19.4% of XC)
    XC-Functional eval.     ....       0.690 sec  ( 15.5% of XC)
    XC-Potential eval.      ....       0.914 sec  ( 20.6% of XC)
Diagonalization             ....       0.051 sec  (  0.1%)
Density matrix formation    ....       0.006 sec  (  0.0%)
Population analysis         ....       0.010 sec  (  0.0%)
Initial guess               ....       0.247 sec  (  0.5%)
Orbital Transformation      ....       0.000 sec  (  0.0%)
Orbital Orthonormalization  ....       0.000 sec  (  0.0%)
DIIS solution               ....       0.034 sec  (  0.1%)
SOSCF solution              ....       0.038 sec  (  0.1%)
Grid generation             ....       1.698 sec  (  3.6%)

Maximum memory used throughout the entire SCF-calculation: 56.1 MB


-------------------------------------------------------------------------------
                          DFT DISPERSION CORRECTION                            
                                                                               
                                 DFTD4 V2.5                                    
-------------------------------------------------------------------------------
The WB97X functional is recognized
Active option DFTDOPT                   ...         5   

Starting D4
-------------------------   ----------------
Dispersion correction           -0.002983145
-------------------------   ----------------


-------------------------   --------------------
FINAL SINGLE POINT ENERGY      -383.067254661286
-------------------------   --------------------


                            ***************************************
                            *     ORCA property calculations      *
                            ***************************************

                                    ---------------------
                                    Active property flags
                                    ---------------------
   (+) Dipole Moment


------------------------------------------------------------------------------
                       ORCA ELECTRIC PROPERTIES CALCULATION
------------------------------------------------------------------------------

Dipole Moment Calculation                       ... on
Quadrupole Moment Calculation                   ... off
Polarizability Calculation                      ... off
GBWName                                         ... DFT_water_outs/2-gasSP.gbw
Electron density                                ... DFT_water_outs/2-gasSP.scfp
The origin for moment calculation is the CENTER OF MASS  = ( 0.000000,  0.000000  0.077758)

-------------
DIPOLE MOMENT
-------------
                                X             Y             Z
Electronic contribution:     -0.00000      -0.00000       3.58067
Nuclear contribution   :      0.00000       0.00000      -4.78867
                        -----------------------------------------
Total Dipole Moment    :     -0.00000      -0.00000      -1.20800
                        -----------------------------------------
Magnitude (a.u.)       :      1.20800
Magnitude (Debye)      :      3.07049



--------------------
Rotational spectrum 
--------------------
 
Rotational constants in cm-1:     0.082678     0.050982     0.032310 
Rotational constants in MHz :  2478.629628  1528.414499   968.634831 

 Dipole components along the rotational axes: 
x,y,z [a.u.] :    -0.000000    -1.207998    -0.000000 
x,y,z [Debye]:    -0.000001    -3.070487    -0.000000 

 

Timings for individual modules:

Sum of individual times         ...       48.191 sec (=   0.803 min)
GTO integral calculation        ...        0.595 sec (=   0.010 min)   1.2 %
SCF iterations                  ...       47.595 sec (=   0.793 min)  98.8 %
                             ****ORCA TERMINATED NORMALLY****
TOTAL RUN TIME: 0 days 0 hours 0 minutes 48 seconds 740 msec
