
                                 *****************
                                 * O   R   C   A *
                                 *****************

                                            #,                                       
                                            ###                                      
                                            ####                                     
                                            #####                                    
                                            ######                                   
                                           ########,                                 
                                     ,,################,,,,,                         
                               ,,#################################,,                 
                          ,,##########################################,,             
                       ,#########################################, ''#####,          
                    ,#############################################,,   '####,        
                  ,##################################################,,,,####,       
                ,###########''''           ''''###############################       
              ,#####''   ,,,,##########,,,,          '''####'''          '####       
            ,##' ,,,,###########################,,,                        '##       
           ' ,,###''''                  '''############,,,                           
         ,,##''                                '''############,,,,        ,,,,,,###''
      ,#''                                            '''#######################'''  
     '                                                          ''''####''''         
             ,#######,   #######,   ,#######,      ##                                
            ,#'     '#,  ##    ##  ,#'     '#,    #''#        ######   ,####,        
            ##       ##  ##   ,#'  ##            #'  '#       #        #'  '#        
            ##       ##  #######   ##           ,######,      #####,   #    #        
            '#,     ,#'  ##    ##  '#,     ,#' ,#      #,         ##   #,  ,#        
             '#######'   ##     ##  '#######'  #'      '#     #####' # '####'        



                  #######################################################
                  #                        -***-                        #
                  #          Department of theory and spectroscopy      #
                  #    Directorship and core code : Frank Neese         #
                  #        Max Planck Institute fuer Kohlenforschung    #
                  #                Kaiser Wilhelm Platz 1               #
                  #                 D-45470 Muelheim/Ruhr               #
                  #                      Germany                        #
                  #                                                     #
                  #                  All rights reserved                #
                  #                        -***-                        #
                  #######################################################


                         Program Version 5.0.3 -  RELEASE  -


 With contributions from (in alphabetic order):
   Daniel Aravena         : Magnetic Suceptibility
   Michael Atanasov       : Ab Initio Ligand Field Theory (pilot matlab implementation)
   Alexander A. Auer      : GIAO ZORA, VPT2 properties, NMR spectrum
   Ute Becker             : Parallelization
   Giovanni Bistoni       : ED, misc. LED, open-shell LED, HFLD
   Martin Brehm           : Molecular dynamics
   Dmytro Bykov           : SCF Hessian
   Vijay G. Chilkuri      : MRCI spin determinant printing, contributions to CSF-ICE
   Dipayan Datta          : RHF DLPNO-CCSD density
   Achintya Kumar Dutta   : EOM-CC, STEOM-CC
   Dmitry Ganyushin       : Spin-Orbit,Spin-Spin,Magnetic field MRCI
   Miquel Garcia          : C-PCM and meta-GGA Hessian, CC/C-PCM, Gaussian charge scheme
   Yang Guo               : DLPNO-NEVPT2, F12-NEVPT2, CIM, IAO-localization
   Andreas Hansen         : Spin unrestricted coupled pair/coupled cluster methods
   Benjamin Helmich-Paris : MC-RPA, TRAH-SCF, COSX integrals
   Lee Huntington         : MR-EOM, pCC
   Robert Izsak           : Overlap fitted RIJCOSX, COSX-SCS-MP3, EOM
   Marcus Kettner         : VPT2
   Christian Kollmar      : KDIIS, OOCD, Brueckner-CCSD(T), CCSD density, CASPT2, CASPT2-K
   Simone Kossmann        : Meta GGA functionals, TD-DFT gradient, OOMP2, MP2 Hessian
   Martin Krupicka        : Initial AUTO-CI
   Lucas Lang             : DCDCAS
   Marvin Lechner         : AUTO-CI (C++ implementation), FIC-MRCC
   Dagmar Lenk            : GEPOL surface, SMD
   Dimitrios Liakos       : Extrapolation schemes; Compound Job, initial MDCI parallelization
   Dimitrios Manganas     : Further ROCIS development; embedding schemes
   Dimitrios Pantazis     : SARC Basis sets
   Anastasios Papadopoulos: AUTO-CI, single reference methods and gradients
   Taras Petrenko         : DFT Hessian,TD-DFT gradient, ASA, ECA, R-Raman, ABS, FL, XAS/XES, NRVS
   Peter Pinski           : DLPNO-MP2, DLPNO-MP2 Gradient
   Christoph Reimann      : Effective Core Potentials
   Marius Retegan         : Local ZFS, SOC
   Christoph Riplinger    : Optimizer, TS searches, QM/MM, DLPNO-CCSD(T), (RO)-DLPNO pert. Triples
   Tobias Risthaus        : Range-separated hybrids, TD-DFT gradient, RPA, STAB
   Michael Roemelt        : Original ROCIS implementation
   Masaaki Saitow         : Open-shell DLPNO-CCSD energy and density
   Barbara Sandhoefer     : DKH picture change effects
   Avijit Sen             : IP-ROCIS
   Kantharuban Sivalingam : CASSCF convergence, NEVPT2, FIC-MRCI
   Bernardo de Souza      : ESD, SOC TD-DFT
   Georgi Stoychev        : AutoAux, RI-MP2 NMR, DLPNO-MP2 response
   Willem Van den Heuvel  : Paramagnetic NMR
   Boris Wezisla          : Elementary symmetry handling
   Frank Wennmohs         : Technical directorship


 We gratefully acknowledge several colleagues who have allowed us to
 interface, adapt or use parts of their codes:
   Stefan Grimme, W. Hujo, H. Kruse, P. Pracht,  : VdW corrections, initial TS optimization,
                  C. Bannwarth, S. Ehlert          DFT functionals, gCP, sTDA/sTD-DF
   Ed Valeev, F. Pavosevic, A. Kumar             : LibInt (2-el integral package), F12 methods
   Garnet Chan, S. Sharma, J. Yang, R. Olivares  : DMRG
   Ulf Ekstrom                                   : XCFun DFT Library
   Mihaly Kallay                                 : mrcc  (arbitrary order and MRCC methods)
   Jiri Pittner, Ondrej Demel                    : Mk-CCSD
   Frank Weinhold                                : gennbo (NPA and NBO analysis)
   Christopher J. Cramer and Donald G. Truhlar   : smd solvation model
   Lars Goerigk                                  : TD-DFT with DH, B97 family of functionals
   V. Asgeirsson, H. Jonsson                     : NEB implementation
   FAccTs GmbH                                   : IRC, NEB, NEB-TS, DLPNO-Multilevel, CI-OPT
                                                   MM, QMMM, 2- and 3-layer-ONIOM, Crystal-QMMM,
                                                   LR-CPCM, SF, NACMEs, symmetry and pop. for TD-DFT,
                                                   nearIR, NL-DFT gradient (VV10), updates on ESD,
                                                   ML-optimized integration grids
   S Lehtola, MJT Oliveira, MAL Marques          : LibXC Library
   Liviu Ungur et al                             : ANISO software


 Your calculation uses the libint2 library for the computation of 2-el integrals
 For citations please refer to: http://libint.valeyev.net

 Your ORCA version has been built with support for libXC version: 5.1.0
 For citations please refer to: https://tddft.org/programs/libxc/

 This ORCA versions uses:
   CBLAS   interface :  Fast vector & matrix operations
   LAPACKE interface :  Fast linear algebra routines
   SCALAPACK package :  Parallel linear algebra routines
   Shared memory     :  Shared parallel matrices
   BLAS/LAPACK       :  OpenBLAS 0.3.15  USE64BITINT DYNAMIC_ARCH NO_AFFINITY SkylakeX SINGLE_THREADED
        Core in use  :  SkylakeX
   Copyright (c) 2011-2014, The OpenBLAS Project




***************************************
The coordinates will be read from file: MeMe.xyz
***************************************


Your calculation utilizes the atom-pairwise dispersion correction
based on tight binding partial charges (D4)
Cite in your paper:
E.Caldeweyher, C.Bannwarth, S.Grimme, J.Chem.Phys., (2017), 147, 034112.
E.Caldeweyher, S.Ehlert, A.Hansen, H.Neugebauer, S.Grimme, J.Chem.Phys., (2018), in progress.
   

XCFun DFT library Copyright 2009-2010 Ulf Ekstrom and contributors.
See http://admol.org/xcfun for more information.
This is free software; see the source code for copying conditions.
There is ABSOLUTELY NO WARRANTY; not even for MERCHANTABILITY or FITNESS FOR A PARTICULAR PURPOSE.
For details see the documentation.
Scientific users of this library should cite U. Ekstrom, L. Visscher, R. Bast, A. J. Thorvaldsen and K. Ruud;
J.Chem.Theor.Comp. 2010, DOI: 10.1021/ct100117s
XCFun Version 0.99 

================================================================================

----- Orbital basis set information -----
Your calculation utilizes the basis: def2-SVP
   F. Weigend and R. Ahlrichs, Phys. Chem. Chem. Phys. 7, 3297 (2005).

----- AuxJ basis set information -----
Your calculation utilizes the auxiliary basis: def2/J
   F. Weigend, Phys. Chem. Chem. Phys. 8, 1057 (2006).

================================================================================
                                        WARNINGS
                       Please study these warnings very carefully!
================================================================================


WARNING: Geometry Optimization
  ===> : Switching off AutoStart
         For restart on a previous wavefunction, please use MOREAD

INFO   : the flag for use of the SHARK integral package has been found!

================================================================================
                                       INPUT FILE
================================================================================
NAME = MeMe_water.inp
|  1> # ORCAForces - ../2023_02/pKa_prediction/Yates_carbene_xyzs/Water/MeMe_water.inp
|  2> # Basic Mode
|  3> #
|  4> ! Opt FREQ wB97X D4 Def2-SVP SlowConv TightSCF DEFGRID2 Def2/J RIJCOSX CPCM(Water)
|  5> 
|  6> %maxcore 4500
|  7> 
|  8> %PAL NPROCS 4 END
|  9> 
| 10> %geom 
| 11> Maxiter 150
| 12> END
| 13> 
| 14> * xyzfile 0 1 MeMe.xyz
| 15> 
| 16>                          ****END OF INPUT****
================================================================================

                       *****************************
                       * Geometry Optimization Run *
                       *****************************

Geometry optimization settings:
Update method            Update   .... BFGS
Choice of coordinates    CoordSys .... Z-matrix Internals
Initial Hessian          InHess   .... Almoef's Model

Convergence Tolerances:
Energy Change            TolE     ....  5.0000e-06 Eh
Max. Gradient            TolMAXG  ....  3.0000e-04 Eh/bohr
RMS Gradient             TolRMSG  ....  1.0000e-04 Eh/bohr
Max. Displacement        TolMAXD  ....  4.0000e-03 bohr
RMS Displacement         TolRMSD  ....  2.0000e-03 bohr
Strict Convergence                ....  False
------------------------------------------------------------------------------
                        ORCA OPTIMIZATION COORDINATE SETUP
------------------------------------------------------------------------------

The optimization will be done in new redundant internal coordinates
Making redundant internal coordinates   ...  (new redundants) done
Evaluating the initial hessian          ...  (Almloef) done
Evaluating the coordinates              ...  done
Calculating the B-matrix                .... done
Calculating the G-matrix                .... done
Diagonalizing the G-matrix              .... done
The first mode is                       ....   41
The number of degrees of freedom        ....   57

    -----------------------------------------------------------------
                    Redundant Internal Coordinates


    -----------------------------------------------------------------
         Definition                    Initial Value    Approx d2E/dq
    -----------------------------------------------------------------
      1. B(C   1,C   0)                  1.3612         0.694427   
      2. B(N   2,C   0)                  1.4008         0.537785   
      3. B(N   3,C   1)                  1.4008         0.537785   
      4. B(C   4,N   3)                  1.3651         0.613193   
      5. B(C   4,N   2)                  1.3651         0.613193   
      6. B(C   5,N   2)                  1.4525         0.444735   
      7. B(C   6,N   3)                  1.4525         0.444735   
      8. B(H   7,C   5)                  1.0942         0.354645   
      9. B(H   8,C   6)                  1.0942         0.354645   
     10. B(H   9,C   6)                  1.0942         0.354645   
     11. B(H  10,C   5)                  1.0942         0.354645   
     12. B(H  11,C   5)                  1.0879         0.362824   
     13. B(H  12,C   6)                  1.0879         0.362824   
     14. B(C  13,C   0)                  1.4920         0.429466   
     15. B(C  14,C   1)                  1.4920         0.429466   
     16. B(H  15,C  13)                  1.0956         0.352785   
     17. B(H  16,C  14)                  1.0956         0.352785   
     18. B(H  17,C  14)                  1.0956         0.352785   
     19. B(H  18,C  13)                  1.0956         0.352785   
     20. B(H  19,C  13)                  1.0913         0.358436   
     21. B(H  20,C  14)                  1.0913         0.358436   
     22. A(C   1,C   0,N   2)          105.7345         0.428996   
     23. A(C   1,C   0,C  13)          130.9888         0.414802   
     24. A(N   2,C   0,C  13)          123.2768         0.393956   
     25. A(N   3,C   1,C  14)          123.2768         0.393956   
     26. A(C   0,C   1,N   3)          105.7345         0.428996   
     27. A(C   0,C   1,C  14)          130.9888         0.414802   
     28. A(C   4,N   2,C   5)          122.1771         0.403038   
     29. A(C   0,N   2,C   4)          113.2916         0.416836   
     30. A(C   0,N   2,C   5)          124.5313         0.393848   
     31. A(C   1,N   3,C   4)          113.2916         0.416836   
     32. A(C   1,N   3,C   6)          124.5313         0.393848   
     33. A(C   4,N   3,C   6)          122.1771         0.403038   
     34. A(N   2,C   4,N   3)          101.9478         0.426719   
     35. A(N   2,C   5,H  10)          111.3006         0.330940   
     36. A(N   2,C   5,H   7)          111.3006         0.330940   
     37. A(H  10,C   5,H  11)          109.2299         0.290487   
     38. A(H   7,C   5,H  11)          109.2299         0.290487   
     39. A(N   2,C   5,H  11)          107.0488         0.332191   
     40. A(H   7,C   5,H  10)          108.6871         0.289450   
     41. A(H   8,C   6,H   9)          108.6871         0.289450   
     42. A(N   3,C   6,H   9)          111.3006         0.330940   
     43. A(N   3,C   6,H   8)          111.3006         0.330940   
     44. A(H   9,C   6,H  12)          109.2299         0.290487   
     45. A(H   8,C   6,H  12)          109.2299         0.290487   
     46. A(N   3,C   6,H  12)          107.0488         0.332191   
     47. A(H  15,C  13,H  18)          107.2843         0.288973   
     48. A(C   0,C  13,H  18)          111.9228         0.330738   
     49. A(C   0,C  13,H  15)          111.9228         0.330738   
     50. A(H  18,C  13,H  19)          107.4776         0.289694   
     51. A(H  15,C  13,H  19)          107.4776         0.289694   
     52. A(C   0,C  13,H  19)          110.5269         0.331609   
     53. A(H  16,C  14,H  17)          107.2843         0.288973   
     54. A(C   1,C  14,H  17)          111.9228         0.330738   
     55. A(C   1,C  14,H  16)          111.9228         0.330738   
     56. A(H  17,C  14,H  20)          107.4776         0.289694   
     57. A(H  16,C  14,H  20)          107.4776         0.289694   
     58. A(C   1,C  14,H  20)          110.5269         0.331609   
     59. D(N   3,C   1,C   0,N   2)      0.0000         0.033918   
     60. D(C  14,C   1,C   0,N   2)    180.0000         0.033918   
     61. D(C  14,C   1,C   0,C  13)      0.0000         0.033918   
     62. D(N   3,C   1,C   0,C  13)    180.0000         0.033918   
     63. D(C   5,N   2,C   0,C   1)    180.0000         0.022999   
     64. D(C   4,N   2,C   0,C  13)    180.0000         0.022999   
     65. D(C   5,N   2,C   0,C  13)      0.0000         0.022999   
     66. D(C   4,N   2,C   0,C   1)      0.0000         0.022999   
     67. D(C   6,N   3,C   1,C  14)      0.0000         0.022999   
     68. D(C   4,N   3,C   1,C  14)    180.0000         0.022999   
     69. D(C   6,N   3,C   1,C   0)    180.0000         0.022999   
     70. D(C   4,N   3,C   1,C   0)      0.0000         0.022999   
     71. D(N   2,C   4,N   3,C   1)      0.0000         0.027543   
     72. D(N   3,C   4,N   2,C   5)    180.0000         0.027543   
     73. D(N   3,C   4,N   2,C   0)      0.0000         0.027543   
     74. D(N   2,C   4,N   3,C   6)    180.0000         0.027543   
     75. D(H  11,C   5,N   2,C   4)      0.0000         0.016868   
     76. D(H  11,C   5,N   2,C   0)    180.0000         0.016868   
     77. D(H  10,C   5,N   2,C   4)    119.2962         0.016868   
     78. D(H  10,C   5,N   2,C   0)    -60.7038         0.016868   
     79. D(H   7,C   5,N   2,C   4)   -119.2962         0.016868   
     80. D(H   7,C   5,N   2,C   0)     60.7038         0.016868   
     81. D(H  12,C   6,N   3,C   4)      0.0000         0.016868   
     82. D(H  12,C   6,N   3,C   1)    180.0000         0.016868   
     83. D(H   9,C   6,N   3,C   4)   -119.2962         0.016868   
     84. D(H   9,C   6,N   3,C   1)     60.7038         0.016868   
     85. D(H   8,C   6,N   3,C   4)    119.2962         0.016868   
     86. D(H   8,C   6,N   3,C   1)    -60.7038         0.016868   
     87. D(H  18,C  13,C   0,C   1)    119.7609         0.013622   
     88. D(H  15,C  13,C   0,N   2)     60.2391         0.013622   
     89. D(H  15,C  13,C   0,C   1)   -119.7609         0.013622   
     90. D(H  19,C  13,C   0,N   2)    180.0000         0.013622   
     91. D(H  19,C  13,C   0,C   1)      0.0000         0.013622   
     92. D(H  18,C  13,C   0,N   2)    -60.2391         0.013622   
     93. D(H  20,C  14,C   1,N   3)    180.0000         0.013622   
     94. D(H  20,C  14,C   1,C   0)      0.0000         0.013622   
     95. D(H  17,C  14,C   1,N   3)     60.2391         0.013622   
     96. D(H  17,C  14,C   1,C   0)   -119.7609         0.013622   
     97. D(H  16,C  14,C   1,N   3)    -60.2391         0.013622   
     98. D(H  16,C  14,C   1,C   0)    119.7609         0.013622   
    -----------------------------------------------------------------

Number of atoms                         .... 21
Number of degrees of freedom            .... 98

         *************************************************************
         *                GEOMETRY OPTIMIZATION CYCLE   1            *
         *************************************************************
---------------------------------
CARTESIAN COORDINATES (ANGSTROEM)
---------------------------------
  C      0.000000    0.680619   -0.639919
  C      0.000000   -0.680619   -0.639919
  N      0.000000    1.060493    0.708413
  N      0.000000   -1.060493    0.708413
  C      0.000000    0.000000    1.567983
  C      0.000000    2.435562    1.176440
  C      0.000000   -2.435562    1.176440
  H     -0.889030    2.972555    0.832290
  H     -0.889030   -2.972555    0.832290
  H      0.889030   -2.972555    0.832290
  H      0.889030    2.972555    0.832290
  H      0.000000    2.402374    2.263882
  H      0.000000   -2.402374    2.263882
  C      0.000000    1.659269   -1.766173
  C      0.000000   -1.659269   -1.766173
  H      0.882309    2.308384   -1.744026
  H      0.882309   -2.308384   -1.744026
  H     -0.882309   -2.308384   -1.744026
  H     -0.882309    2.308384   -1.744026
  H      0.000000    1.138827   -2.725334
  H      0.000000   -1.138827   -2.725334

----------------------------
CARTESIAN COORDINATES (A.U.)
----------------------------
  NO LB      ZA    FRAG     MASS         X           Y           Z
   0 C     6.0000    0    12.011    0.000000    1.286184   -1.209272
   1 C     6.0000    0    12.011    0.000000   -1.286184   -1.209272
   2 N     7.0000    0    14.007    0.000000    2.004041    1.338707
   3 N     7.0000    0    14.007    0.000000   -2.004041    1.338707
   4 C     6.0000    0    12.011    0.000000    0.000000    2.963058
   5 C     6.0000    0    12.011    0.000000    4.602545    2.223149
   6 C     6.0000    0    12.011    0.000000   -4.602545    2.223149
   7 H     1.0000    0     1.008   -1.680023    5.617315    1.572800
   8 H     1.0000    0     1.008   -1.680023   -5.617315    1.572800
   9 H     1.0000    0     1.008    1.680023   -5.617315    1.572800
  10 H     1.0000    0     1.008    1.680023    5.617315    1.572800
  11 H     1.0000    0     1.008    0.000000    4.539829    4.278117
  12 H     1.0000    0     1.008    0.000000   -4.539829    4.278117
  13 C     6.0000    0    12.011    0.000000    3.135564   -3.337583
  14 C     6.0000    0    12.011    0.000000   -3.135564   -3.337583
  15 H     1.0000    0     1.008    1.667322    4.362214   -3.295732
  16 H     1.0000    0     1.008    1.667322   -4.362214   -3.295732
  17 H     1.0000    0     1.008   -1.667322   -4.362214   -3.295732
  18 H     1.0000    0     1.008   -1.667322    4.362214   -3.295732
  19 H     1.0000    0     1.008    0.000000    2.152071   -5.150135
  20 H     1.0000    0     1.008    0.000000   -2.152071   -5.150135

--------------------------------
INTERNAL COORDINATES (ANGSTROEM)
--------------------------------
 C      0   0   0     0.000000000000     0.00000000     0.00000000
 C      1   0   0     1.361238000000     0.00000000     0.00000000
 N      1   2   0     1.400822414905   105.73445234     0.00000000
 N      2   1   3     1.400822414905   105.73445234     0.00000000
 C      3   1   2     1.365102922108   113.29163247     0.00000000
 C      3   1   2     1.452537100211   124.53129064   180.00000085
 C      4   2   1     1.452537100211   124.53129064   180.00000085
 H      6   3   1     1.094154945814   111.30060045    60.70384935
 H      7   4   2     1.094154945814   111.30060045   299.29615065
 H      7   4   2     1.094154945814   111.30060045    60.70384935
 H      6   3   1     1.094154945814   111.30060045   299.29615065
 H      6   3   1     1.087948319870   107.04875217   180.00000000
 H      7   4   2     1.087948319870   107.04875217   180.00000000
 C      1   2   3     1.492046880971   130.98876489   180.00000000
 C      2   1   3     1.492046880971   130.98876489   180.00000000
 H     14   1   2     1.095586575454   111.92276604   240.23912830
 H     15   2   1     1.095586575454   111.92276604   119.76087170
 H     15   2   1     1.095586575454   111.92276604   240.23912830
 H     14   1   2     1.095586575454   111.92276604   119.76087170
 H     14   1   2     1.091260600995   110.52692011     0.00000000
 H     15   2   1     1.091260600995   110.52692011     0.00000000

---------------------------
INTERNAL COORDINATES (A.U.)
---------------------------
 C      0   0   0     0.000000000000     0.00000000     0.00000000
 C      1   0   0     2.572367023087     0.00000000     0.00000000
 N      1   2   0     2.647170726428   105.73445234     0.00000000
 N      2   1   3     2.647170726428   105.73445234     0.00000000
 C      3   1   2     2.579670667401   113.29163247     0.00000000
 C      3   1   2     2.744897318759   124.53129064   180.00000085
 C      4   2   1     2.744897318759   124.53129064   180.00000085
 H      6   3   1     2.067653195664   111.30060045    60.70384935
 H      7   4   2     2.067653195664   111.30060045   299.29615065
 H      7   4   2     2.067653195664   111.30060045    60.70384935
 H      6   3   1     2.067653195664   111.30060045   299.29615065
 H      6   3   1     2.055924372414   107.04875217   180.00000000
 H      7   4   2     2.055924372414   107.04875217   180.00000000
 C      1   2   3     2.819559984007   130.98876489   180.00000000
 C      2   1   3     2.819559984007   130.98876489   180.00000000
 H     14   1   2     2.070358583609   111.92276604   240.23912830
 H     15   2   1     2.070358583609   111.92276604   119.76087170
 H     15   2   1     2.070358583609   111.92276604   240.23912830
 H     14   1   2     2.070358583609   111.92276604   119.76087170
 H     14   1   2     2.062183676620   110.52692011     0.00000000
 H     15   2   1     2.062183676620   110.52692011     0.00000000

---------------------
BASIS SET INFORMATION
---------------------
There are 3 groups of distinct atoms

 Group   1 Type C   : 7s4p1d contracted to 3s2p1d pattern {511/31/1}
 Group   2 Type N   : 7s4p1d contracted to 3s2p1d pattern {511/31/1}
 Group   3 Type H   : 4s1p contracted to 2s1p pattern {31/1}

Atom   0C    basis set group =>   1
Atom   1C    basis set group =>   1
Atom   2N    basis set group =>   2
Atom   3N    basis set group =>   2
Atom   4C    basis set group =>   1
Atom   5C    basis set group =>   1
Atom   6C    basis set group =>   1
Atom   7H    basis set group =>   3
Atom   8H    basis set group =>   3
Atom   9H    basis set group =>   3
Atom  10H    basis set group =>   3
Atom  11H    basis set group =>   3
Atom  12H    basis set group =>   3
Atom  13C    basis set group =>   1
Atom  14C    basis set group =>   1
Atom  15H    basis set group =>   3
Atom  16H    basis set group =>   3
Atom  17H    basis set group =>   3
Atom  18H    basis set group =>   3
Atom  19H    basis set group =>   3
Atom  20H    basis set group =>   3
---------------------------------
AUXILIARY/J BASIS SET INFORMATION
---------------------------------
There are 3 groups of distinct atoms

 Group   1 Type C   : 12s5p4d2f1g contracted to 6s4p3d1f1g pattern {711111/2111/211/2/1}
 Group   2 Type N   : 12s5p4d2f1g contracted to 6s4p3d1f1g pattern {711111/2111/211/2/1}
 Group   3 Type H   : 5s2p1d contracted to 3s1p1d pattern {311/2/1}

Atom   0C    basis set group =>   1
Atom   1C    basis set group =>   1
Atom   2N    basis set group =>   2
Atom   3N    basis set group =>   2
Atom   4C    basis set group =>   1
Atom   5C    basis set group =>   1
Atom   6C    basis set group =>   1
Atom   7H    basis set group =>   3
Atom   8H    basis set group =>   3
Atom   9H    basis set group =>   3
Atom  10H    basis set group =>   3
Atom  11H    basis set group =>   3
Atom  12H    basis set group =>   3
Atom  13C    basis set group =>   1
Atom  14C    basis set group =>   1
Atom  15H    basis set group =>   3
Atom  16H    basis set group =>   3
Atom  17H    basis set group =>   3
Atom  18H    basis set group =>   3
Atom  19H    basis set group =>   3
Atom  20H    basis set group =>   3


           ************************************************************
           *        Program running with 4 parallel MPI-processes     *
           *              working on a common directory               *
           ************************************************************
------------------------------------------------------------------------------
                           ORCA GTO INTEGRAL CALCULATION
                           -- RI-GTO INTEGRALS CHOSEN --
------------------------------------------------------------------------------
------------------------------------------------------------------------------
                   ___                                                        
                  /   \      - P O W E R E D   B Y -                         
                 /     \                                                     
                 |  |  |   _    _      __       _____    __    __             
                 |  |  |  | |  | |    /  \     |  _  \  |  |  /  |          
                  \  \/   | |  | |   /    \    | | | |  |  | /  /          
                 / \  \   | |__| |  /  /\  \   | |_| |  |  |/  /          
                |  |  |   |  __  | /  /__\  \  |    /   |      \           
                |  |  |   | |  | | |   __   |  |    \   |  |\   \          
                \     /   | |  | | |  |  |  |  | |\  \  |  | \   \       
                 \___/    |_|  |_| |__|  |__|  |_| \__\ |__|  \__/        
                                                                              
                      - O R C A' S   B I G   F R I E N D -                    
                                      &                                       
                       - I N T E G R A L  F E E D E R -                       
                                                                              
 v1 FN, 2020, v2 2021                                                         
------------------------------------------------------------------------------


Reading SHARK input file MeMe_water.SHARKINP.tmp ... ok
----------------------
SHARK INTEGRAL PACKAGE
----------------------

Number of atoms                             ...     21
Number of basis functions                   ...    186
Number of shells                            ...     90
Maximum angular momentum                    ...      2
Integral batch strategy                     ... SHARK/LIBINT Hybrid
RI-J (if used) integral strategy            ... SPLIT-RIJ (Revised 2003 algorithm where possible)
Printlevel                                  ...      1
Contraction scheme used                     ... SEGMENTED contraction
Coulomb Range Separation                    ... NOT USED
Exchange Range Separation                   ... Long Range
   Mu parameter                             ...  0.300000
   Scaling (regular/separated)              ...  0.157706  0.842294
Finite Nucleus Model                        ... NOT USED
Auxiliary Coulomb fitting basis             ... AVAILABLE
   # of basis functions in Aux-J            ...    573
   # of shells in Aux-J                     ...    195
   Maximum angular momentum in Aux-J        ...      4
Auxiliary J/K fitting basis                 ... NOT available
Auxiliary Correlation fitting basis         ... NOT available
Auxiliary 'external' fitting basis          ... NOT available
Integral threshold                          ...     2.500000e-11
Primitive cut-off                           ...     2.500000e-12
Primitive pair pre-selection threshold      ...     2.500000e-12

Calculating pre-screening integrals         ... done (  0.0 sec) Dimension = 90
Organizing shell pair data                  ... done (  0.0 sec)
Shell pair information
Total number of shell pairs                 ...      4095
Shell pairs after pre-screening             ...      3788
Total number of primitive shell pairs       ...     14349
Primitive shell pairs kept                  ...      9717
          la=0 lb=0:   1249 shell pairs
          la=1 lb=0:   1404 shell pairs
          la=1 lb=1:    418 shell pairs
          la=2 lb=0:    423 shell pairs
          la=2 lb=1:    252 shell pairs
          la=2 lb=2:     42 shell pairs

Calculating one electron integrals          ... done (  0.0 sec)
Calculating RI/J V-Matrix + Cholesky decomp.... done (  0.0 sec)
Calculating Nuclear repulsion               ... done (  0.0 sec) ENN=    458.955889694999 Eh

SHARK setup successfully completed in   0.2 seconds

Maximum memory used throughout the entire GTOINT-calculation: 12.4 MB


           ************************************************************
           *        Program running with 4 parallel MPI-processes     *
           *              working on a common directory               *
           ************************************************************
-------------------------------------------------------------------------------
                                 ORCA SCF
-------------------------------------------------------------------------------

------------
SCF SETTINGS
------------
Hamiltonian:
 Density Functional     Method          .... DFT(GTOs)
 Exchange Functional    Exchange        .... WB97X
 Correlation Functional Correlation     .... WB97X
 Gradients option       PostSCFGGA      .... off
 Hybrid DFT is turned on
   Fraction HF Exchange ScalHFX         ....  0.157706
   Scaling of DF-GGA-X  ScalDFX         ....  0.000000
   Scaling of DF-GGA-C  ScalDFC         ....  1.000000
   Scaling of DF-LDA-C  ScalLDAC        ....  1.000000
   Perturbative correction              ....  0.000000
   Density functional embedding theory  .... OFF
 Long-range corrected/Screened/Range-Separated Hybrid DFT is turned on
   Amount of maximum screened exact exchange              ....  0.842294
   Range separation parameter mu (erf(mu*r12)/r12)        ....  0.300000
 RI-approximation to the Coulomb term is turned on
   Number of AuxJ basis functions       .... 573
   RIJ-COSX (HFX calculated with COS-X)).... on


General Settings:
 Integral files         IntName         .... MeMe_water
 Hartree-Fock type      HFTyp           .... RHF
 Total Charge           Charge          ....    0
 Multiplicity           Mult            ....    1
 Number of Electrons    NEL             ....   68
 Basis Dimension        Dim             ....  186
 Nuclear Repulsion      ENuc            ....    458.9558896950 Eh

Convergence Acceleration:
 DIIS                   CNVDIIS         .... on
   Start iteration      DIISMaxIt       ....     0
   Startup error        DIISStart       ....  0.200000
   # of expansion vecs  DIISMaxEq       ....     5
   Bias factor          DIISBfac        ....   1.050
   Max. coefficient     DIISMaxC        ....  10.000
 Trust-Rad. Augm. Hess. CNVTRAH         .... auto
   Auto Start mean grad. ratio tolernc. ....  1.125000
   Auto Start start iteration           ....    20
   Auto Start num. interpolation iter.  ....    10
   Max. Number of Micro iterations      ....    16
   Max. Number of Macro iterations      .... Maxiter - #DIIS iter
   Number of Davidson start vectors     ....     2
   Converg. threshold I  (grad. norm)   ....   1.000e-05
   Converg. threshold II (energy diff.) ....   1.000e-08
   Grad. Scal. Fac. for Micro threshold ....   0.100
   Minimum threshold for Micro iter.    ....   0.010
   NR start threshold (gradient norm)   ....   0.001
   Initial trust radius                 ....   0.400
   Minimum AH scaling param. (alpha)    ....   1.000
   Maximum AH scaling param. (alpha)    .... 1000.000
   Orbital update algorithm             .... Taylor
   White noise on init. David. guess    .... on
   Maximum white noise                  ....   0.010
   Quad. conv. algorithm                .... NR
 SOSCF                  CNVSOSCF        .... on
   Start iteration      SOSCFMaxIt      ....   150
   Startup grad/error   SOSCFStart      ....  0.001000
 Level Shifting         CNVShift        .... on
   Level shift para.    LevelShift      ....    0.2500
   Turn off err/grad.   ShiftErr        ....    0.0000
 Zerner damping         CNVZerner       .... off
 Static damping         CNVDamp         .... on
   Fraction old density DampFac         ....    0.8500
   Max. Damping (<1)    DampMax         ....    0.9800
   Min. Damping (>=0)   DampMin         ....    0.0000
   Turn off err/grad.   DampErr         ....    0.0300
 Fernandez-Rico         CNVRico         .... off

SCF Procedure:
 Maximum # iterations   MaxIter         ....   125
 SCF integral mode      SCFMode         .... Direct
   Integral package                     .... SHARK and LIBINT hybrid scheme
 Reset frequency        DirectResetFreq ....    20
 Integral Threshold     Thresh          ....  2.500e-11 Eh
 Primitive CutOff       TCut            ....  2.500e-12 Eh

Convergence Tolerance:
 Convergence Check Mode ConvCheckMode   .... Total+1el-Energy
 Convergence forced     ConvForced      .... 0
 Energy Change          TolE            ....  1.000e-08 Eh
 1-El. energy change                    ....  1.000e-05 Eh
 Orbital Gradient       TolG            ....  1.000e-05
 Orbital Rotation angle TolX            ....  1.000e-05
 DIIS Error             TolErr          ....  5.000e-07


Diagonalization of the overlap matrix:
Smallest eigenvalue                        ... 9.260e-04
Time for diagonalization                   ...    0.006 sec
Threshold for overlap eigenvalues          ... 1.000e-08
Number of eigenvalues below threshold      ... 0
Time for construction of square roots      ...    0.003 sec
Total time needed                          ...    0.010 sec

Time for model grid setup =    0.111 sec

------------------------------
INITIAL GUESS: MODEL POTENTIAL
------------------------------
Loading Hartree-Fock densities                     ... done
Calculating cut-offs                               ... done
Initializing the effective Hamiltonian             ... done
Setting up the integral package (SHARK)            ... done
Starting the Coulomb interaction                   ... done (   0.1 sec)
Reading the grid                                   ... done
Mapping shells                                     ... done
Starting the XC term evaluation                    ... done (   0.1 sec)
  promolecular density results
     # of electrons  =     67.999003296
     EX              =    -52.438885968
     EC              =     -2.246697741
     EX+EC           =    -54.685583709
Transforming the Hamiltonian                       ... done (   0.0 sec)
Diagonalizing the Hamiltonian                      ... done (   0.0 sec)
Back transforming the eigenvectors                 ... done (   0.0 sec)
Now organizing SCF variables                       ... done
                      ------------------
                      INITIAL GUESS DONE (   0.3 sec)
                      ------------------
-------------------
DFT GRID GENERATION
-------------------

General Integration Accuracy     IntAcc      ... 4.388
Radial Grid Type                 RadialGrid  ... OptM3 with GC (2021)
Angular Grid (max. ang.)         AngularGrid ... 4 (Lebedev-302)
Angular grid pruning method      GridPruning ... 4 (adaptive)
Weight generation scheme         WeightScheme... Becke
Basis function cutoff            BFCut       ... 1.0000e-11
Integration weight cutoff        WCut        ... 1.0000e-14
Angular grids for H and He will be reduced by one unit
Partially contracted basis set               ... off
Rotationally invariant grid construction     ... off

Total number of grid points                  ...    92561
Total number of batches                      ...     1456
Average number of points per batch           ...       63
Average number of grid points per atom       ...     4408
Time for grid setup =    0.513 sec

--------------------
COSX GRID GENERATION
--------------------

GRIDX 1
-------
General Integration Accuracy     IntAcc      ... 3.816
Radial Grid Type                 RadialGrid  ... OptM3 with GC (2021)
Angular Grid (max. ang.)         AngularGrid ... 1 (Lebedev-50)
Angular grid pruning method      GridPruning ... 4 (adaptive)
Weight generation scheme         WeightScheme... Becke
Basis function cutoff            BFCut       ... 1.0000e-11
Integration weight cutoff        WCut        ... 1.0000e-14
Angular grids for H and He will be reduced by one unit
Partially contracted basis set               ... on
Rotationally invariant grid construction     ... off

Total number of grid points                  ...    11841
Total number of batches                      ...      198
Average number of points per batch           ...       59
Average number of grid points per atom       ...      564
UseSFitting                                  ... on

GRIDX 2
-------
General Integration Accuracy     IntAcc      ... 4.020
Radial Grid Type                 RadialGrid  ... OptM3 with GC (2021)
Angular Grid (max. ang.)         AngularGrid ... 2 (Lebedev-110)
Angular grid pruning method      GridPruning ... 4 (adaptive)
Weight generation scheme         WeightScheme... Becke
Basis function cutoff            BFCut       ... 1.0000e-11
Integration weight cutoff        WCut        ... 1.0000e-14
Angular grids for H and He will be reduced by one unit
Partially contracted basis set               ... on
Rotationally invariant grid construction     ... off

Total number of grid points                  ...    25071
Total number of batches                      ...      403
Average number of points per batch           ...       62
Average number of grid points per atom       ...     1194
UseSFitting                                  ... on

GRIDX 3
-------
General Integration Accuracy     IntAcc      ... 4.338
Radial Grid Type                 RadialGrid  ... OptM3 with GC (2021)
Angular Grid (max. ang.)         AngularGrid ... 3 (Lebedev-194)
Angular grid pruning method      GridPruning ... 4 (adaptive)
Weight generation scheme         WeightScheme... Becke
Basis function cutoff            BFCut       ... 1.0000e-11
Integration weight cutoff        WCut        ... 1.0000e-14
Angular grids for H and He will be reduced by one unit
Partially contracted basis set               ... on
Rotationally invariant grid construction     ... off

Total number of grid points                  ...    54861
Total number of batches                      ...      869
Average number of points per batch           ...       63
Average number of grid points per atom       ...     2612
UseSFitting                                  ... on

Time for X-Grid setup             =    0.547 sec


--------------------
CPCM SOLVATION MODEL
--------------------
CPCM parameters:
  Epsilon                                         ...      80.4000
  Refrac                                          ...       1.3300
  Rsolv                                           ...       1.3000
  Surface type                                    ... GAUSSIAN VDW
  Epsilon function type                           ...         CPCM
Radii:
 Radius for C  used is    3.8550 Bohr (=   2.0400 Ang.)
 Radius for N  used is    3.5149 Bohr (=   1.8600 Ang.)
 Radius for H  used is    2.4944 Bohr (=   1.3200 Ang.)
Calculating surface                               ...        done! (  0.0s)
GEPOL surface points                              ...         1161
GEPOL Volume                                      ...    1170.1025
GEPOL Surface-area                                ...     664.2090
Calculating surface distance matrix               ...        done! (  0.0s)
Performing Cholesky decomposition & store         ...        done! (  0.0s)
Overall time for CPCM initialization              ...                 0.1s
--------------
SCF ITERATIONS
--------------
ITER       Energy         Delta-E        Max-DP      RMS-DP      [F,P]     Damp
               ***  Starting incremental Fock matrix formation  ***
  0   -382.9008576602   0.000000000000 0.03728405  0.00079788  0.1494753 0.8500
  1   -382.9357496574  -0.034891997210 0.03954524  0.00075343  0.1213616 0.8500
                               ***Turning on DIIS***
  2   -382.9628644522  -0.027114794756 0.03464714  0.00062148  0.0941663 0.8500
  3   -382.9834026515  -0.020538199360 0.02799271  0.00045358  0.0722376 0.8500
  4   -382.9994236589  -0.016021007324 0.02293928  0.00035078  0.0578746 0.8500
  5   -383.0121325440  -0.012708885163 0.01923593  0.00028857  0.0480160 0.8500
  6   -383.0224859518  -0.010353407786 0.01632886  0.00024362  0.0404608 0.8500
  7   -383.0310555631  -0.008569611316 0.01401411  0.00020958  0.0343006 0.8500
  8   -383.0382177714  -0.007162208266 0.08050000  0.00120235  0.0290253 0.0000
  9   -383.0767562077  -0.038538436312 0.00133006  0.00004025  0.0011206 0.0000
                      *** Initiating the SOSCF procedure ***
                           *** Shutting down DIIS ***
                      *** Re-Reading the Fockian *** 
                      *** Removing any level shift *** 
ITER      Energy       Delta-E        Grad      Rot      Max-DP    RMS-DP
 10   -383.07677201  -0.0000158031  0.000312  0.000312  0.000448  0.000019
               *** Restarting incremental Fock matrix formation ***
 11   -383.07686275  -0.0000907368  0.000262  0.000598  0.000505  0.000017
 12   -383.07686361  -0.0000008574  0.000082  0.000386  0.000267  0.000012
 13   -383.07686385  -0.0000002428  0.000030  0.000032  0.000169  0.000004
 14   -383.07686388  -0.0000000315  0.000007  0.000015  0.000067  0.000001
 15   -383.07686389  -0.0000000061  0.000003  0.000011  0.000021  0.000000
                  ***Gradient check signals convergence***
              ***Rediagonalizing the Fockian in SOSCF/NRSCF***

               *****************************************************
               *                     SUCCESS                       *
               *           SCF CONVERGED AFTER  16 CYCLES          *
               *****************************************************

Old exchange energy                            =    -17.411948558 Eh
New exchange energy                            =    -17.411935092 Eh
Exchange energy change after final integration =      0.000013466 Eh
Total energy after final integration           =   -383.076850420 Eh
Final COS-X integration done in                =     7.948 sec

----------------
TOTAL SCF ENERGY
----------------

Total Energy       :         -383.07685042 Eh          -10424.05105 eV

Components:
Nuclear Repulsion  :          458.95588969 Eh           12488.82468 eV
Electronic Energy  :         -842.03274012 Eh          -22912.87573 eV
One Electron Energy:        -1425.99289941 Eh          -38803.23951 eV
Two Electron Energy:          583.96015929 Eh           15890.36378 eV
Max COSX asymmetry :            0.00000274 Eh               0.00007 eV
CPCM Dielectric    :           -0.01612298 Eh              -0.43873 eV

Virial components:
Potential Energy   :         -761.63189999 Eh          -20725.05764 eV
Kinetic Energy     :          378.55504957 Eh           10301.00659 eV
Virial Ratio       :            2.01194490


DFT components:
N(Alpha)           :       34.000050855364 electrons
N(Beta)            :       34.000050855364 electrons
N(Total)           :       68.000101710728 electrons
E(XC)              :      -38.724216461380 Eh       
DFET-embed. en.    :        0.000000000000 Eh       
CPCM Solvation Model Properties:
Surface-charge          :           -0.02250371
Charge-correction       :           -0.00048457 Eh              -0.01319 eV
Free-energy (cav+disp)  :  This term is not implemented in the current solvation scheme

---------------
SCF CONVERGENCE
---------------

  Last Energy change         ...   -1.1706e-09  Tolerance :   1.0000e-08
  Last MAX-Density change    ...    3.1086e-15  Tolerance :   1.0000e-07
  Last RMS-Density change    ...    4.3306e-17  Tolerance :   5.0000e-09
  Last Orbital Gradient      ...    5.7326e-07  Tolerance :   1.0000e-05
  Last Orbital Rotation      ...    2.4802e-06  Tolerance :   1.0000e-05

             **** THE GBW FILE WAS UPDATED (MeMe_water.gbw) ****
             **** DENSITY MeMe_water.scfp WAS UPDATED ****
             **** ENERGY FILE WAS UPDATED (MeMe_water.en.tmp) ****
             **** THE GBW FILE WAS UPDATED (MeMe_water.gbw) ****
             **** DENSITY MeMe_water.scfp WAS UPDATED ****
----------------
ORBITAL ENERGIES
----------------

  NO   OCC          E(Eh)            E(eV) 
   0   2.0000     -14.442756      -393.0074 
   1   2.0000     -14.442754      -393.0073 
   2   2.0000     -10.296102      -280.1712 
   3   2.0000     -10.296075      -280.1704 
   4   2.0000     -10.293015      -280.0872 
   5   2.0000     -10.292493      -280.0730 
   6   2.0000     -10.273114      -279.5456 
   7   2.0000     -10.271652      -279.5059 
   8   2.0000     -10.271595      -279.5043 
   9   2.0000      -1.137906       -30.9640 
  10   2.0000      -1.028242       -27.9799 
  11   2.0000      -0.914912       -24.8960 
  12   2.0000      -0.866857       -23.5884 
  13   2.0000      -0.852394       -23.1948 
  14   2.0000      -0.783296       -21.3146 
  15   2.0000      -0.777960       -21.1694 
  16   2.0000      -0.680902       -18.5283 
  17   2.0000      -0.674296       -18.3485 
  18   2.0000      -0.609678       -16.5902 
  19   2.0000      -0.592655       -16.1270 
  20   2.0000      -0.551308       -15.0019 
  21   2.0000      -0.543895       -14.8001 
  22   2.0000      -0.532416       -14.4878 
  23   2.0000      -0.522424       -14.2159 
  24   2.0000      -0.521032       -14.1780 
  25   2.0000      -0.508759       -13.8440 
  26   2.0000      -0.507937       -13.8217 
  27   2.0000      -0.490666       -13.3517 
  28   2.0000      -0.472951       -12.8697 
  29   2.0000      -0.472856       -12.8671 
  30   2.0000      -0.468183       -12.7399 
  31   2.0000      -0.361120        -9.8266 
  32   2.0000      -0.322950        -8.7879 
  33   2.0000      -0.304469        -8.2850 
  34   0.0000       0.134059         3.6479 
  35   0.0000       0.135898         3.6980 
  36   0.0000       0.147717         4.0196 
  37   0.0000       0.162224         4.4143 
  38   0.0000       0.192679         5.2431 
  39   0.0000       0.204193         5.5564 
  40   0.0000       0.205913         5.6032 
  41   0.0000       0.210783         5.7357 
  42   0.0000       0.219034         5.9602 
  43   0.0000       0.234112         6.3705 
  44   0.0000       0.240879         6.5547 
  45   0.0000       0.251433         6.8418 
  46   0.0000       0.272759         7.4222 
  47   0.0000       0.290630         7.9084 
  48   0.0000       0.295373         8.0375 
  49   0.0000       0.309548         8.4232 
  50   0.0000       0.313231         8.5234 
  51   0.0000       0.344051         9.3621 
  52   0.0000       0.356045         9.6885 
  53   0.0000       0.377761        10.2794 
  54   0.0000       0.392000        10.6669 
  55   0.0000       0.463572        12.6144 
  56   0.0000       0.477061        12.9815 
  57   0.0000       0.494164        13.4469 
  58   0.0000       0.499120        13.5817 
  59   0.0000       0.500583        13.6215 
  60   0.0000       0.530353        14.4316 
  61   0.0000       0.543168        14.7803 
  62   0.0000       0.563743        15.3402 
  63   0.0000       0.565971        15.4009 
  64   0.0000       0.580753        15.8031 
  65   0.0000       0.608535        16.5591 
  66   0.0000       0.626790        17.0558 
  67   0.0000       0.655747        17.8438 
  68   0.0000       0.663736        18.0612 
  69   0.0000       0.672473        18.2989 
  70   0.0000       0.692617        18.8471 
  71   0.0000       0.727205        19.7882 
  72   0.0000       0.739784        20.1305 
  73   0.0000       0.748844        20.3771 
  74   0.0000       0.751664        20.4538 
  75   0.0000       0.752892        20.4872 
  76   0.0000       0.754748        20.5377 
  77   0.0000       0.764744        20.8097 
  78   0.0000       0.770706        20.9720 
  79   0.0000       0.777847        21.1663 
  80   0.0000       0.788373        21.4527 
  81   0.0000       0.790470        21.5098 
  82   0.0000       0.792009        21.5517 
  83   0.0000       0.805627        21.9222 
  84   0.0000       0.814526        22.1644 
  85   0.0000       0.814840        22.1729 
  86   0.0000       0.827245        22.5105 
  87   0.0000       0.829961        22.5844 
  88   0.0000       0.833131        22.6707 
  89   0.0000       0.857360        23.3299 
  90   0.0000       0.859542        23.3893 
  91   0.0000       0.960547        26.1378 
  92   0.0000       0.995056        27.0768 
  93   0.0000       1.027791        27.9676 
  94   0.0000       1.031671        28.0732 
  95   0.0000       1.048558        28.5327 
  96   0.0000       1.072099        29.1733 
  97   0.0000       1.079019        29.3616 
  98   0.0000       1.166482        31.7416 
  99   0.0000       1.217574        33.1319 
 100   0.0000       1.245501        33.8918 
 101   0.0000       1.275308        34.7029 
 102   0.0000       1.305376        35.5211 
 103   0.0000       1.314561        35.7710 
 104   0.0000       1.338236        36.4153 
 105   0.0000       1.341864        36.5140 
 106   0.0000       1.397390        38.0249 
 107   0.0000       1.421407        38.6785 
 108   0.0000       1.554234        42.2929 
 109   0.0000       1.559387        42.4331 
 110   0.0000       1.563722        42.5510 
 111   0.0000       1.635063        44.4923 
 112   0.0000       1.643643        44.7258 
 113   0.0000       1.645901        44.7873 
 114   0.0000       1.657241        45.0958 
 115   0.0000       1.657954        45.1152 
 116   0.0000       1.671724        45.4899 
 117   0.0000       1.671847        45.4933 
 118   0.0000       1.681304        45.7506 
 119   0.0000       1.741452        47.3873 
 120   0.0000       1.754757        47.7494 
 121   0.0000       1.757885        47.8345 
 122   0.0000       1.819691        49.5163 
 123   0.0000       1.878543        51.1178 
 124   0.0000       1.890617        51.4463 
 125   0.0000       1.892991        51.5109 
 126   0.0000       1.894447        51.5505 
 127   0.0000       1.902421        51.7675 
 128   0.0000       1.909120        51.9498 
 129   0.0000       1.916484        52.1502 
 130   0.0000       1.916667        52.1552 
 131   0.0000       1.932749        52.5928 
 132   0.0000       1.958048        53.2812 
 133   0.0000       1.997462        54.3537 
 134   0.0000       2.006002        54.5861 
 135   0.0000       2.017145        54.8893 
 136   0.0000       2.020667        54.9852 
 137   0.0000       2.057807        55.9958 
 138   0.0000       2.086994        56.7900 
 139   0.0000       2.087225        56.7963 
 140   0.0000       2.135078        58.0984 
 141   0.0000       2.140736        58.2524 
 142   0.0000       2.186144        59.4880 
 143   0.0000       2.209729        60.1298 
 144   0.0000       2.226528        60.5869 
 145   0.0000       2.228651        60.6447 
 146   0.0000       2.252742        61.3002 
 147   0.0000       2.285459        62.1905 
 148   0.0000       2.305324        62.7311 
 149   0.0000       2.328707        63.3673 
 150   0.0000       2.343343        63.7656 
 151   0.0000       2.378466        64.7213 
 152   0.0000       2.386336        64.9355 
 153   0.0000       2.431071        66.1528 
 154   0.0000       2.448490        66.6268 
 155   0.0000       2.513744        68.4025 
 156   0.0000       2.542689        69.1901 
 157   0.0000       2.553207        69.4763 
 158   0.0000       2.576663        70.1146 
 159   0.0000       2.609451        71.0068 
 160   0.0000       2.618070        71.2413 
 161   0.0000       2.655095        72.2488 
 162   0.0000       2.668782        72.6212 
 163   0.0000       2.705212        73.6126 
 164   0.0000       2.780171        75.6523 
 165   0.0000       2.791577        75.9627 
 166   0.0000       2.800937        76.2174 
 167   0.0000       2.850786        77.5738 
 168   0.0000       2.872320        78.1598 
 169   0.0000       2.875488        78.2460 
 170   0.0000       2.881726        78.4158 
 171   0.0000       2.937553        79.9349 
 172   0.0000       2.940671        80.0197 
 173   0.0000       3.004920        81.7680 
 174   0.0000       3.021133        82.2092 
 175   0.0000       3.037979        82.6676 
 176   0.0000       3.060121        83.2701 
 177   0.0000       3.077137        83.7332 
 178   0.0000       3.086804        83.9962 
 179   0.0000       3.120536        84.9141 
 180   0.0000       3.135926        85.3329 
 181   0.0000       3.168703        86.2248 
 182   0.0000       3.299629        89.7875 
 183   0.0000       3.402589        92.5892 
 184   0.0000       3.426066        93.2280 
 185   0.0000       3.519344        95.7662 

                    ********************************
                    * MULLIKEN POPULATION ANALYSIS *
                    ********************************

-----------------------
MULLIKEN ATOMIC CHARGES
-----------------------
   0 C :   -0.112984
   1 C :   -0.112978
   2 N :   -0.255328
   3 N :   -0.255328
   4 C :   -0.221033
   5 C :    0.108009
   6 C :    0.108010
   7 H :    0.052514
   8 H :    0.052514
   9 H :    0.052514
  10 H :    0.052515
  11 H :    0.045650
  12 H :    0.045650
  13 C :    0.084127
  14 C :    0.084127
  15 H :    0.049814
  16 H :    0.049814
  17 H :    0.049814
  18 H :    0.049814
  19 H :    0.036382
  20 H :    0.036381
Sum of atomic charges:   -0.0000000

--------------------------------
MULLIKEN REDUCED ORBITAL CHARGES
--------------------------------
  0 C s       :     3.103598  s :     3.103598
      pz      :     0.877895  p :     2.953059
      px      :     1.084045
      py      :     0.991120
      dz2     :     0.017787  d :     0.056327
      dxz     :     0.009172
      dyz     :     0.013384
      dx2y2   :     0.005702
      dxy     :     0.010282
  1 C s       :     3.103592  s :     3.103592
      pz      :     0.877895  p :     2.953059
      px      :     1.084045
      py      :     0.991120
      dz2     :     0.017787  d :     0.056327
      dxz     :     0.009172
      dyz     :     0.013384
      dx2y2   :     0.005702
      dxy     :     0.010282
  2 N s       :     3.411775  s :     3.411775
      pz      :     1.122383  p :     3.812064
      px      :     1.526286
      py      :     1.163394
      dz2     :     0.008409  d :     0.031489
      dxz     :     0.005373
      dyz     :     0.008743
      dx2y2   :     0.004766
      dxy     :     0.004198
  3 N s       :     3.411775  s :     3.411775
      pz      :     1.122383  p :     3.812064
      px      :     1.526286
      py      :     1.163395
      dz2     :     0.008409  d :     0.031489
      dxz     :     0.005373
      dyz     :     0.008743
      dx2y2   :     0.004766
      dxy     :     0.004198
  4 C s       :     3.623841  s :     3.623841
      pz      :     1.150662  p :     2.532203
      px      :     0.719814
      py      :     0.661727
      dz2     :     0.008144  d :     0.064989
      dxz     :     0.009462
      dyz     :     0.028356
      dx2y2   :     0.007102
      dxy     :     0.011924
  5 C s       :     2.980548  s :     2.980548
      pz      :     1.025129  p :     2.872823
      px      :     1.042226
      py      :     0.805467
      dz2     :     0.008464  d :     0.038620
      dxz     :     0.002632
      dyz     :     0.006521
      dx2y2   :     0.009318
      dxy     :     0.011684
  6 C s       :     2.980548  s :     2.980548
      pz      :     1.025128  p :     2.872823
      px      :     1.042227
      py      :     0.805467
      dz2     :     0.008464  d :     0.038620
      dxz     :     0.002632
      dyz     :     0.006521
      dx2y2   :     0.009318
      dxy     :     0.011684
  7 H s       :     0.924050  s :     0.924050
      pz      :     0.005626  p :     0.023436
      px      :     0.012227
      py      :     0.005582
  8 H s       :     0.924050  s :     0.924050
      pz      :     0.005626  p :     0.023436
      px      :     0.012227
      py      :     0.005582
  9 H s       :     0.924050  s :     0.924050
      pz      :     0.005626  p :     0.023436
      px      :     0.012227
      py      :     0.005582
 10 H s       :     0.924050  s :     0.924050
      pz      :     0.005626  p :     0.023436
      px      :     0.012227
      py      :     0.005582
 11 H s       :     0.930784  s :     0.930784
      pz      :     0.015892  p :     0.023566
      px      :     0.004892
      py      :     0.002782
 12 H s       :     0.930784  s :     0.930784
      pz      :     0.015892  p :     0.023566
      px      :     0.004892
      py      :     0.002782
 13 C s       :     2.887817  s :     2.887817
      pz      :     0.976964  p :     3.000834
      px      :     1.033337
      py      :     0.990533
      dz2     :     0.006340  d :     0.027222
      dxz     :     0.001894
      dyz     :     0.007597
      dx2y2   :     0.002290
      dxy     :     0.009103
 14 C s       :     2.887816  s :     2.887816
      pz      :     0.976964  p :     3.000834
      px      :     1.033337
      py      :     0.990533
      dz2     :     0.006340  d :     0.027222
      dxz     :     0.001894
      dyz     :     0.007597
      dx2y2   :     0.002290
      dxy     :     0.009103
 15 H s       :     0.925719  s :     0.925719
      pz      :     0.004277  p :     0.024467
      px      :     0.011880
      py      :     0.008310
 16 H s       :     0.925719  s :     0.925719
      pz      :     0.004277  p :     0.024467
      px      :     0.011880
      py      :     0.008310
 17 H s       :     0.925719  s :     0.925719
      pz      :     0.004277  p :     0.024467
      px      :     0.011880
      py      :     0.008310
 18 H s       :     0.925719  s :     0.925719
      pz      :     0.004277  p :     0.024467
      px      :     0.011880
      py      :     0.008310
 19 H s       :     0.938813  s :     0.938813
      pz      :     0.012846  p :     0.024805
      px      :     0.005016
      py      :     0.006943
 20 H s       :     0.938813  s :     0.938813
      pz      :     0.012846  p :     0.024805
      px      :     0.005016
      py      :     0.006943


                     *******************************
                     * LOEWDIN POPULATION ANALYSIS *
                     *******************************

----------------------
LOEWDIN ATOMIC CHARGES
----------------------
   0 C :   -0.045026
   1 C :   -0.045026
   2 N :    0.012902
   3 N :    0.012902
   4 C :   -0.323504
   5 C :    0.031161
   6 C :    0.031161
   7 H :    0.030960
   8 H :    0.030960
   9 H :    0.030960
  10 H :    0.030960
  11 H :    0.032396
  12 H :    0.032396
  13 C :   -0.057235
  14 C :   -0.057235
  15 H :    0.041352
  16 H :    0.041352
  17 H :    0.041352
  18 H :    0.041352
  19 H :    0.042930
  20 H :    0.042930

-------------------------------
LOEWDIN REDUCED ORBITAL CHARGES
-------------------------------
  0 C s       :     2.845477  s :     2.845477
      pz      :     0.941795  p :     3.063918
      px      :     1.064499
      py      :     1.057624
      dz2     :     0.045712  d :     0.135632
      dxz     :     0.018044
      dyz     :     0.036279
      dx2y2   :     0.015691
      dxy     :     0.019906
  1 C s       :     2.845477  s :     2.845477
      pz      :     0.941795  p :     3.063918
      px      :     1.064499
      py      :     1.057624
      dz2     :     0.045712  d :     0.135632
      dxz     :     0.018044
      dyz     :     0.036279
      dx2y2   :     0.015691
      dxy     :     0.019906
  2 N s       :     3.069099  s :     3.069099
      pz      :     1.194526  p :     3.844982
      px      :     1.459397
      py      :     1.191059
      dz2     :     0.021329  d :     0.073017
      dxz     :     0.010511
      dyz     :     0.024219
      dx2y2   :     0.010090
      dxy     :     0.006868
  3 N s       :     3.069099  s :     3.069099
      pz      :     1.194526  p :     3.844982
      px      :     1.459397
      py      :     1.191059
      dz2     :     0.021329  d :     0.073017
      dxz     :     0.010511
      dyz     :     0.024219
      dx2y2   :     0.010090
      dxy     :     0.006868
  4 C s       :     3.219741  s :     3.219741
      pz      :     1.376035  p :     2.963962
      px      :     0.766759
      py      :     0.821168
      dz2     :     0.013500  d :     0.139801
      dxz     :     0.013109
      dyz     :     0.065776
      dx2y2   :     0.021420
      dxy     :     0.025996
  5 C s       :     2.827081  s :     2.827081
      pz      :     1.064105  p :     3.045805
      px      :     1.084373
      py      :     0.897327
      dz2     :     0.022959  d :     0.095952
      dxz     :     0.005995
      dyz     :     0.014997
      dx2y2   :     0.022016
      dxy     :     0.029986
  6 C s       :     2.827082  s :     2.827082
      pz      :     1.064105  p :     3.045805
      px      :     1.084373
      py      :     0.897327
      dz2     :     0.022958  d :     0.095952
      dxz     :     0.005995
      dyz     :     0.014997
      dx2y2   :     0.022016
      dxy     :     0.029986
  7 H s       :     0.903487  s :     0.903487
      pz      :     0.015339  p :     0.065552
      px      :     0.032867
      py      :     0.017346
  8 H s       :     0.903487  s :     0.903487
      pz      :     0.015339  p :     0.065552
      px      :     0.032867
      py      :     0.017346
  9 H s       :     0.903487  s :     0.903487
      pz      :     0.015339  p :     0.065552
      px      :     0.032867
      py      :     0.017346
 10 H s       :     0.903487  s :     0.903487
      pz      :     0.015339  p :     0.065552
      px      :     0.032867
      py      :     0.017346
 11 H s       :     0.900687  s :     0.900687
      pz      :     0.044567  p :     0.066917
      px      :     0.013028
      py      :     0.009323
 12 H s       :     0.900687  s :     0.900687
      pz      :     0.044567  p :     0.066917
      px      :     0.013028
      py      :     0.009323
 13 C s       :     2.817424  s :     2.817424
      pz      :     1.043767  p :     3.166709
      px      :     1.076089
      py      :     1.046853
      dz2     :     0.017830  d :     0.073102
      dxz     :     0.003793
      dyz     :     0.021341
      dx2y2   :     0.005764
      dxy     :     0.024374
 14 C s       :     2.817424  s :     2.817424
      pz      :     1.043768  p :     3.166709
      px      :     1.076089
      py      :     1.046852
      dz2     :     0.017830  d :     0.073102
      dxz     :     0.003793
      dyz     :     0.021341
      dx2y2   :     0.005764
      dxy     :     0.024374
 15 H s       :     0.892198  s :     0.892198
      pz      :     0.012582  p :     0.066450
      px      :     0.031456
      py      :     0.022413
 16 H s       :     0.892198  s :     0.892198
      pz      :     0.012582  p :     0.066451
      px      :     0.031456
      py      :     0.022413
 17 H s       :     0.892198  s :     0.892198
      pz      :     0.012582  p :     0.066450
      px      :     0.031456
      py      :     0.022413
 18 H s       :     0.892198  s :     0.892198
      pz      :     0.012582  p :     0.066450
      px      :     0.031456
      py      :     0.022413
 19 H s       :     0.889986  s :     0.889986
      pz      :     0.034800  p :     0.067085
      px      :     0.013155
      py      :     0.019130
 20 H s       :     0.889986  s :     0.889986
      pz      :     0.034800  p :     0.067084
      px      :     0.013155
      py      :     0.019130


                      *****************************
                      * MAYER POPULATION ANALYSIS *
                      *****************************

  NA   - Mulliken gross atomic population
  ZA   - Total nuclear charge
  QA   - Mulliken gross atomic charge
  VA   - Mayer's total valence
  BVA  - Mayer's bonded valence
  FA   - Mayer's free valence

  ATOM       NA         ZA         QA         VA         BVA        FA
  0 C      6.1130     6.0000    -0.1130     4.0475     4.0475    -0.0000
  1 C      6.1130     6.0000    -0.1130     4.0475     4.0475    -0.0000
  2 N      7.2553     7.0000    -0.2553     3.3864     3.3864    -0.0000
  3 N      7.2553     7.0000    -0.2553     3.3864     3.3864    -0.0000
  4 C      6.2210     6.0000    -0.2210     2.7093     2.7093    -0.0000
  5 C      5.8920     6.0000     0.1080     3.8933     3.8933    -0.0000
  6 C      5.8920     6.0000     0.1080     3.8933     3.8933    -0.0000
  7 H      0.9475     1.0000     0.0525     0.9922     0.9922    -0.0000
  8 H      0.9475     1.0000     0.0525     0.9922     0.9922    -0.0000
  9 H      0.9475     1.0000     0.0525     0.9922     0.9922    -0.0000
 10 H      0.9475     1.0000     0.0525     0.9922     0.9922    -0.0000
 11 H      0.9543     1.0000     0.0457     1.0221     1.0221    -0.0000
 12 H      0.9543     1.0000     0.0457     1.0221     1.0221    -0.0000
 13 C      5.9159     6.0000     0.0841     3.9527     3.9527    -0.0000
 14 C      5.9159     6.0000     0.0841     3.9527     3.9527     0.0000
 15 H      0.9502     1.0000     0.0498     0.9933     0.9933    -0.0000
 16 H      0.9502     1.0000     0.0498     0.9933     0.9933     0.0000
 17 H      0.9502     1.0000     0.0498     0.9933     0.9933     0.0000
 18 H      0.9502     1.0000     0.0498     0.9933     0.9933    -0.0000
 19 H      0.9636     1.0000     0.0364     1.0030     1.0030    -0.0000
 20 H      0.9636     1.0000     0.0364     1.0030     1.0030     0.0000

  Mayer bond orders larger than 0.100000
B(  0-C ,  1-C ) :   1.6645 B(  0-C ,  2-N ) :   1.1197 B(  0-C , 13-C ) :   1.0918 
B(  1-C ,  3-N ) :   1.1197 B(  1-C , 14-C ) :   1.0918 B(  2-N ,  4-C ) :   1.2460 
B(  2-N ,  5-C ) :   0.9565 B(  3-N ,  4-C ) :   1.2460 B(  3-N ,  6-C ) :   0.9565 
B(  5-C ,  7-H ) :   0.9766 B(  5-C , 10-H ) :   0.9766 B(  5-C , 11-H ) :   0.9704 
B(  6-C ,  8-H ) :   0.9766 B(  6-C ,  9-H ) :   0.9766 B(  6-C , 12-H ) :   0.9704 
B( 13-C , 15-H ) :   0.9503 B( 13-C , 18-H ) :   0.9503 B( 13-C , 19-H ) :   0.9458 
B( 14-C , 16-H ) :   0.9503 B( 14-C , 17-H ) :   0.9503 B( 14-C , 20-H ) :   0.9458 


-------
TIMINGS
-------

Total SCF time: 0 days 0 hours 0 min 58 sec 

Total time                  ....      58.928 sec
Sum of individual times     ....      58.267 sec  ( 98.9%)

Fock matrix formation       ....      56.720 sec  ( 96.3%)
  Split-RI-J                ....       2.459 sec  (  4.3% of F)
  Chain of spheres X        ....      43.447 sec  ( 76.6% of F)
  XC integration            ....       6.100 sec  ( 10.8% of F)
    Basis function eval.    ....       2.012 sec  ( 33.0% of XC)
    Density eval.           ....       1.153 sec  ( 18.9% of XC)
    XC-Functional eval.     ....       0.845 sec  ( 13.8% of XC)
    XC-Potential eval.      ....       1.238 sec  ( 20.3% of XC)
Diagonalization             ....       0.086 sec  (  0.1%)
Density matrix formation    ....       0.007 sec  (  0.0%)
Population analysis         ....       0.014 sec  (  0.0%)
Initial guess               ....       0.162 sec  (  0.3%)
Orbital Transformation      ....       0.000 sec  (  0.0%)
Orbital Orthonormalization  ....       0.000 sec  (  0.0%)
DIIS solution               ....       0.062 sec  (  0.1%)
SOSCF solution              ....       0.045 sec  (  0.1%)
Grid generation             ....       1.172 sec  (  2.0%)

Maximum memory used throughout the entire SCF-calculation: 56.5 MB


-------------------------------------------------------------------------------
                          DFT DISPERSION CORRECTION                            
                                                                               
                                 DFTD4 V2.5                                    
-------------------------------------------------------------------------------
The WB97X functional is recognized
Active option DFTDOPT                   ...         5   

Starting D4
-------------------------   ----------------
Dispersion correction           -0.002976000
-------------------------   ----------------


-------------------------   --------------------
FINAL SINGLE POINT ENERGY      -383.079826420732
-------------------------   --------------------



           ************************************************************
           *        Program running with 4 parallel MPI-processes     *
           *              working on a common directory               *
           ************************************************************
------------------------------------------------------------------------------
                         ORCA SCF GRADIENT CALCULATION
------------------------------------------------------------------------------

 ... reading COSX grid (gridx3)
Gradient of the Kohn-Sham DFT energy:
Kohn-Sham wavefunction type      ... RKS
Hartree-Fock exchange scaling    ...    0.158
Number of operators              ...    1
Number of atoms                  ...   21
Basis set dimensions             ...  186
Integral neglect threshold       ... 2.5e-11
Integral primitive cutoff        ... 2.5e-12
SHARK Integral package           ... ON

Nuc. rep. gradient       (SHARK) ... done (  0.0 sec)
HCore & Overlap gradient (SHARK) ... done (  0.1 sec)
RI-J gradient            (SHARK) ... done (  1.0 sec)
COSX-gradient                    ... done (  8.7 sec)
Exchange-correlation gradient    ... done
Dispersion correction            ... Starting D4
Starting D4
Starting D4
Starting D4


------------------- 
Dispersion Gradient 
------------------- 
   1  :    0.000000000    0.000007848   -0.000004773
   2  :    0.000000000   -0.000007848   -0.000004773
   3  :   -0.000000000    0.000020561    0.000015458
   4  :    0.000000000   -0.000020561    0.000015458
   5  :    0.000000000   -0.000000000    0.000037009
   6  :    0.000000000    0.000052588    0.000023287
   7  :   -0.000000000   -0.000052588    0.000023287
   8  :   -0.000001626    0.000008937    0.000005202
   9  :   -0.000001626   -0.000008937    0.000005202
  10  :    0.000001626   -0.000008937    0.000005202
  11  :    0.000001626    0.000008937    0.000005202
  12  :    0.000000000    0.000008462    0.000008314
  13  :   -0.000000000   -0.000008462    0.000008314
  14  :    0.000000000    0.000035019   -0.000037642
  15  :    0.000000000   -0.000035019   -0.000037642
  16  :    0.000001746    0.000008884   -0.000006723
  17  :    0.000001746   -0.000008884   -0.000006723
  18  :   -0.000001746   -0.000008884   -0.000006723
  19  :   -0.000001746    0.000008884   -0.000006723
  20  :   -0.000000000    0.000006372   -0.000010857
  21  :    0.000000000   -0.000006372   -0.000010857

  |G| =    0.000631841

done

------------------
CARTESIAN GRADIENT
------------------

   1   C   :    0.000000002   -0.001731064   -0.006244357
   2   C   :    0.000000033    0.001731181   -0.006244266
   3   N   :   -0.000000010    0.001078223   -0.001888052
   4   N   :   -0.000000025   -0.001078261   -0.001888103
   5   C   :   -0.000000014   -0.000000015    0.014059014
   6   C   :   -0.000000037    0.006137980    0.005042925
   7   C   :    0.000000007   -0.006137887    0.005042862
   8   H   :    0.003701665   -0.001936069    0.001663935
   9   H   :    0.003701656    0.001936089    0.001663921
  10   H   :   -0.003701653    0.001936078    0.001663920
  11   H   :   -0.003701672   -0.001936075    0.001663914
  12   H   :    0.000000000   -0.001160761   -0.005984060
  13   H   :   -0.000000000    0.001160776   -0.005984040
  14   C   :   -0.000000003    0.000863365   -0.003500383
  15   C   :    0.000000011   -0.000863606   -0.003500548
  16   H   :   -0.003692602   -0.002296848   -0.000934566
  17   H   :   -0.003692586    0.002296858   -0.000934554
  18   H   :    0.003692615    0.002296867   -0.000934561
  19   H   :    0.003692602   -0.002296840   -0.000934541
  20   H   :   -0.000000003    0.003384237    0.004041978
  21   H   :    0.000000001   -0.003384218    0.004042001

Difference to translation invariance:
           :   -0.0000000140    0.0000000119   -0.0000875610

Difference to rotation invariance:
           :    0.0000000741   -0.0000002456    0.0000003872

Norm of the cartesian gradient     ...    0.0270777217
RMS gradient                       ...    0.0034114723
MAX gradient                       ...    0.0140590144

-------
TIMINGS
-------

Total SCF gradient time            ...       12.787 sec

One electron gradient       ....       0.104 sec  (  0.8%)
RI-J Coulomb gradient       ....       0.992 sec  (  7.8%)
COSX gradient               ....       8.737 sec  ( 68.3%)
XC gradient                 ....       1.990 sec  ( 15.6%)
CPCM gradient               ....       0.279 sec  (  2.2%)
   A-Matrix (El+Nuc)        ....       0.067 sec  (  0.5%)
   Potential                ....       0.211 sec  (  1.7%)

Maximum memory used throughout the entire SCFGRAD-calculation: 43.8 MB
------------------------------------------------------------------------------
                         ORCA GEOMETRY RELAXATION STEP
------------------------------------------------------------------------------

Reading the OPT-File                    .... done
Getting information on internals        .... done
Copying old internal coords+grads       .... done
Making the new internal coordinates     .... (new redundants).... done
Validating the new internal coordinates .... (new redundants).... done
Calculating the B-matrix                .... done
Calculating the G,G- and P matrices     .... done
Transforming gradient to internals      .... done
Projecting the internal gradient        .... done
Number of atoms                         ....  21
Number of internal coordinates          ....  98
Current Energy                          ....  -383.079826421 Eh
Current gradient norm                   ....     0.027077722 Eh/bohr
Maximum allowed component of the step   ....  0.300
Current trust radius                    ....  0.300
Evaluating the initial hessian          ....  (Almloef) done
Projecting the Hessian                  .... done
Forming the augmented Hessian           .... done
Diagonalizing the augmented Hessian     .... done
Last element of RFO vector              ....  0.998070779
Lowest eigenvalues of augmented Hessian:
 -0.001506718  0.013622494  0.013622494  0.016868493  0.016868493
Length of the computed step             ....  0.062206399
The final length of the internal step   ....  0.062206399
Converting the step to cartesian space:
 Initial RMS(Int)=    0.0062837953
Transforming coordinates:
 Iter   0:  RMS(Cart)=    0.0181266962 RMS(Int)=    1.5546978811
 Iter   1:  RMS(Cart)=    0.0001131067 RMS(Int)=    0.0000616322
 Iter   2:  RMS(Cart)=    0.0000011742 RMS(Int)=    0.0000008597
 Iter   3:  RMS(Cart)=    0.0000000200 RMS(Int)=    0.0000000111
done
Storing new coordinates                 .... done

                                .--------------------.
          ----------------------|Geometry convergence|-------------------------
          Item                value                   Tolerance       Converged
          ---------------------------------------------------------------------
          RMS gradient        0.0024994819            0.0001000000      NO
          MAX gradient        0.0076433503            0.0003000000      NO
          RMS step            0.0062837953            0.0020000000      NO
          MAX step            0.0163085160            0.0040000000      NO
          ........................................................
          Max(Bonds)      0.0086      Max(Angles)    0.82
          Max(Dihed)        0.15      Max(Improp)    0.00
          ---------------------------------------------------------------------

The optimization has not yet converged - more geometry cycles are needed


    ---------------------------------------------------------------------------
                         Redundant Internal Coordinates
                            (Angstroem and degrees)

        Definition                    Value    dE/dq     Step     New-Value
    ----------------------------------------------------------------------------
     1. B(C   1,C   0)                1.3612 -0.000693  0.0006    1.3619   
     2. B(N   2,C   0)                1.4008  0.007643 -0.0075    1.3934   
     3. B(N   3,C   1)                1.4008  0.007643 -0.0075    1.3934   
[...]
     12      -0.000000   0.000089   0.000000   0.000326   0.000002   0.000000
     13       0.000000   0.000000  -0.000000  -0.000000   0.000000   0.000034
     14       0.000506  -0.000000  -0.000000  -0.000000   0.000000  -0.000000
     15      -0.000000   0.000090   0.000400   0.067667  -0.066962   0.000000
     16       0.035920  -0.000000  -0.000000  -0.000000   0.000000  -0.000105
     17       0.000366   0.000000   0.000000   0.000000  -0.000000   0.000545
     18      -0.000000   0.000091  -0.000399   0.066971   0.067657   0.000000
     19      -0.035930   0.000000   0.000000   0.000000   0.000000  -0.000105
     20       0.000366  -0.000000   0.000000   0.000000   0.000000  -0.000545
     21       0.368459  -0.000536  -0.002253  -0.404787   0.400611  -0.000521
     22      -0.209555   0.000588   0.001590   0.237538  -0.235125   0.000396
     23       0.148866   0.000106  -0.000628  -0.173161   0.171365  -0.000643
     24       0.368565  -0.000540   0.002251  -0.400628  -0.404770   0.000521
     25       0.209615  -0.000591   0.001588  -0.235097  -0.237566   0.000396
     26       0.148909   0.000105   0.000628  -0.171382  -0.173144   0.000643
     27      -0.368565  -0.000540   0.002251  -0.400629  -0.404771  -0.000521
     28       0.209614   0.000591  -0.001588   0.235097   0.237565   0.000396
     29       0.148909  -0.000105  -0.000628   0.171382   0.173144   0.000643
     30      -0.368460  -0.000536  -0.002253  -0.404788   0.400611   0.000521
     31      -0.209555  -0.000588  -0.001590  -0.237538   0.235125   0.000396
     32       0.148866  -0.000106   0.000628   0.173161  -0.171364  -0.000643
     33       0.000000  -0.000306  -0.000223   0.007683  -0.007602  -0.000000
     34      -0.003233  -0.000000  -0.000000  -0.000000   0.000000  -0.000270
     35      -0.301744  -0.000000  -0.000000  -0.000000   0.000000  -0.005426
     36       0.000000  -0.000307   0.000223   0.007604   0.007681   0.000000
     37       0.003234  -0.000000   0.000000   0.000000   0.000000  -0.000270
     38      -0.301832   0.000000  -0.000000  -0.000001  -0.000001   0.005426
     39       0.000000   0.066210   0.066404  -0.000093   0.000401  -0.000000
     40       0.002617  -0.000000  -0.000000  -0.000000   0.000000   0.045812
     41      -0.001947   0.000000   0.000000  -0.000000   0.000000   0.047649
     42       0.000000   0.066363  -0.066251  -0.000089  -0.000402   0.000000
     43      -0.002617  -0.000000   0.000000  -0.000000  -0.000000   0.045818
     44      -0.001947   0.000000  -0.000000   0.000000   0.000000  -0.047655
     45      -0.032030  -0.398595  -0.399520   0.000606  -0.002306  -0.180499
     46      -0.022678  -0.296644  -0.297278   0.000306  -0.001529  -0.124995
     47      -0.000607  -0.018086  -0.018534   0.000565  -0.000784  -0.002767
     48      -0.032028  -0.399515   0.398600   0.000581   0.002311   0.180524
     49       0.022676   0.297328  -0.296593  -0.000290  -0.001531  -0.125012
     50      -0.000607  -0.018129   0.018493   0.000556   0.000789   0.002768
     51       0.032028  -0.399515   0.398600   0.000581   0.002311  -0.180525
     52       0.022676  -0.297329   0.296594   0.000290   0.001531  -0.125013
     53      -0.000607   0.018129  -0.018493  -0.000556  -0.000789   0.002768
     54       0.032030  -0.398595  -0.399520   0.000606  -0.002306   0.180500
     55      -0.022678   0.296645   0.297279  -0.000307   0.001529  -0.124996
     56      -0.000607   0.018086   0.018534  -0.000565   0.000784  -0.002767
     57      -0.000000   0.007526   0.007648  -0.000427   0.000469   0.000000
     58       0.012582  -0.000000  -0.000000   0.000000  -0.000000  -0.303073
     59       0.024155  -0.000001  -0.000001   0.000000  -0.000000  -0.554303
     60      -0.000000   0.007544  -0.007631  -0.000422  -0.000473  -0.000000
     61      -0.012581   0.000001  -0.000001   0.000000   0.000000  -0.303116
     62       0.024153  -0.000001   0.000001  -0.000000  -0.000000   0.554382
                 60         61         62    
      0      -0.000000   0.000000  -0.000000
      1       0.000932  -0.000290  -0.000429
      2       0.000029  -0.000066  -0.000053
      3      -0.000000   0.000000   0.000000
      4      -0.000932   0.000290  -0.000429
      5       0.000030  -0.000066   0.000053
      6      -0.000000   0.000000   0.000000
      7       0.000223  -0.000276  -0.000233
      8      -0.000298  -0.000080   0.000305
      9       0.000000   0.000000   0.000000
     10      -0.000223   0.000276  -0.000233
     11      -0.000298  -0.000079  -0.000305
     12       0.000000   0.000000   0.000000
     13       0.000000   0.000000  -0.000184
     14       0.000045  -0.000023  -0.000000
     15       0.000000  -0.000000  -0.000000
     16      -0.000122  -0.014890  -0.014864
     17       0.000244   0.064919   0.064934
     18      -0.000000  -0.000000   0.000000
     19       0.000122   0.014903  -0.014851
     20       0.000244   0.064975  -0.064877
     21      -0.000292  -0.172366  -0.172351
     22       0.000347   0.095885   0.095932
     23      -0.000543  -0.065836  -0.065857
     24      -0.000292  -0.172516   0.172201
     25      -0.000347  -0.095969   0.095849
     26      -0.000543  -0.065893   0.065800
     27       0.000292   0.172517  -0.172202
     28      -0.000347  -0.095969   0.095849
     29      -0.000543  -0.065893   0.065800
     30       0.000292   0.172366   0.172351
     31       0.000347   0.095885   0.095932
     32      -0.000543  -0.065835  -0.065857
     33       0.000000   0.000000   0.000000
     34      -0.000156  -0.006260  -0.006243
     35      -0.002002  -0.639224  -0.639873
     36       0.000000   0.000000  -0.000000
     37       0.000156   0.006266  -0.006238
     38      -0.002002  -0.639780   0.639315
     39      -0.000000  -0.000000  -0.000000
     40       0.045303  -0.000064  -0.000256
     41       0.047466  -0.000128  -0.000354
     42      -0.000000   0.000000  -0.000000
     43      -0.045297   0.000064  -0.000256
     44       0.047460  -0.000128   0.000354
     45      -0.177461   0.000786   0.001383
     46      -0.122789   0.000270   0.000733
     47      -0.002607  -0.000395  -0.000391
     48      -0.177435   0.000787  -0.001383
     49       0.122772  -0.000270   0.000732
     50      -0.002607  -0.000395   0.000390
     51       0.177437  -0.000787   0.001383
     52       0.122773  -0.000270   0.000732
     53      -0.002607  -0.000395   0.000390
     54       0.177462  -0.000786  -0.001383
     55      -0.122790   0.000270   0.000733
     56      -0.002607  -0.000395  -0.000391
     57       0.000000  -0.000000  -0.000000
     58      -0.304513   0.001096   0.002533
     59      -0.556665   0.001691   0.004438
     60       0.000000   0.000000   0.000000
     61       0.304471  -0.001098   0.002533
     62      -0.556589   0.001694  -0.004437


-----------
IR SPECTRUM
-----------

 Mode   freq       eps      Int      T**2         TX        TY        TZ
       cm**-1   L/(mol*cm) km/mol    a.u.
----------------------------------------------------------------------------
  6:    116.74   0.000273    1.38  0.000730  (-0.027013 -0.000000  0.000000)
  7:    120.92   0.000000    0.00  0.000000  ( 0.000003 -0.000000 -0.000000)
  8:    141.70   0.000000    0.00  0.000000  ( 0.000000 -0.000000 -0.000000)
  9:    166.43   0.000877    4.43  0.001644  ( 0.040550 -0.000000  0.000000)
 10:    178.00   0.003347   16.91  0.005867  ( 0.076599  0.000000  0.000000)
 11:    179.03   0.000000    0.00  0.000000  (-0.000023 -0.000000  0.000000)
 12:    277.15   0.000065    0.33  0.000074  (-0.000000  0.000001 -0.008586)
 13:    278.49   0.000761    3.85  0.000853  ( 0.000000  0.029204  0.000000)
 14:    294.76   0.000147    0.74  0.000156  (-0.012481  0.000000  0.000002)
 15:    298.00   0.001121    5.67  0.001174  (-0.000000 -0.000000 -0.034267)
 16:    326.15   0.000000    0.00  0.000000  ( 0.000000 -0.000000  0.000000)
 17:    552.51   0.000351    1.77  0.000198  ( 0.000000  0.014079 -0.000000)
 18:    582.14   0.001272    6.43  0.000682  ( 0.000000 -0.026111 -0.000000)
 19:    629.71   0.000478    2.42  0.000237  ( 0.000000 -0.000000  0.015395)
 20:    643.42   0.001135    5.74  0.000551  (-0.023466  0.000000  0.000000)
 21:    682.55   0.000000    0.00  0.000000  (-0.000000  0.000000  0.000000)
 22:    734.63   0.002157   10.90  0.000916  (-0.000000  0.000000  0.030271)
 23:    873.60   0.006128   30.97  0.002189  ( 0.000000 -0.046785  0.000000)
 24:    968.83   0.000138    0.70  0.000044  (-0.000000 -0.000000  0.006669)
 25:   1046.84   0.001031    5.21  0.000307  (-0.017532 -0.000000 -0.000000)
 26:   1066.67   0.000000    0.00  0.000000  ( 0.000000 -0.000000  0.000000)
 27:   1078.34   0.000165    0.83  0.000048  ( 0.000000 -0.006911  0.000000)
 28:   1085.91   0.000012    0.06  0.000004  (-0.000000 -0.000000 -0.001884)
 29:   1113.57   0.000000    0.00  0.000000  (-0.000000  0.000053  0.000000)
 30:   1143.55   0.000002    0.01  0.000001  ( 0.000715 -0.000000  0.000000)
 31:   1144.39   0.000000    0.00  0.000000  ( 0.000000 -0.000000  0.000000)
 32:   1183.39   0.001002    5.06  0.000264  ( 0.000000 -0.000000  0.016253)
 33:   1256.43   0.002345   11.85  0.000582  ( 0.000000 -0.024134 -0.000000)
 34:   1389.74   0.000024    0.12  0.000005  (-0.000000 -0.002307  0.000000)
 35:   1397.77   0.000042    0.21  0.000009  (-0.000000  0.000000  0.003056)
 36:   1413.65   0.000145    0.73  0.000032  ( 0.000000 -0.000000  0.005662)
 37:   1419.72   0.008976   45.36  0.001973  ( 0.000000 -0.044418 -0.000000)
 38:   1428.95   0.003687   18.63  0.000805  ( 0.000000  0.000000 -0.028375)
 39:   1438.00   0.002658   13.43  0.000577  ( 0.024015  0.000000 -0.000000)
 40:   1440.28   0.000000    0.00  0.000000  (-0.000001  0.000002  0.000000)
 41:   1442.44   0.009827   49.66  0.002126  (-0.000000  0.046108  0.000000)
 42:   1450.36   0.005078   25.66  0.001093  (-0.000001 -0.033054 -0.000001)
 43:   1450.54   0.000000    0.00  0.000000  ( 0.000002 -0.000015 -0.000000)
 44:   1451.03   0.008508   43.00  0.001830  (-0.042777  0.000001  0.000002)
 45:   1452.56   0.006635   33.53  0.001426  ( 0.000002 -0.000001  0.037756)
 46:   1478.71   0.004801   24.26  0.001013  (-0.000000 -0.000000 -0.031831)
 47:   1487.89   0.001755    8.87  0.000368  (-0.000000  0.000001 -0.019185)
 48:   1491.43   0.001638    8.28  0.000343  (-0.000000 -0.018515 -0.000000)
 49:   1499.16   0.015918   80.45  0.003314  ( 0.000000  0.057563  0.000000)
 50:   1762.08   0.001248    6.30  0.000221  ( 0.000000  0.000000 -0.014864)
 51:   3061.79   0.009536   48.19  0.000972  (-0.000000  0.031176  0.000003)
 52:   3062.94   0.004209   21.27  0.000429  (-0.000000  0.000004 -0.020708)
 53:   3070.11   0.020389  103.04  0.002072  ( 0.000000 -0.045525 -0.000000)
 54:   3071.31   0.000044    0.22  0.000004  (-0.000000 -0.000007  0.002118)
 55:   3148.59   0.005106   25.80  0.000506  ( 0.022496 -0.000000  0.000000)
 56:   3148.79   0.000000    0.00  0.000000  ( 0.000026 -0.000000 -0.000000)
 57:   3164.29   0.007520   38.01  0.000742  ( 0.027234 -0.000000  0.000000)
 58:   3164.33   0.000000    0.00  0.000000  ( 0.000141 -0.000000  0.000000)
 59:   3184.76   0.001874    9.47  0.000184  ( 0.000000  0.013551 -0.000001)
 60:   3186.08   0.002217   11.20  0.000217  (-0.000000  0.000001  0.014736)
 61:   3211.37   0.001784    9.02  0.000173  (-0.000000  0.000001  0.013168)
 62:   3211.58   0.000099    0.50  0.000010  ( 0.000000 -0.003100  0.000006)

* The epsilon (eps) is given for a Dirac delta lineshape.
** The dipole moment derivative (T) already includes vibrational overlap.

The first frequency considered to be a vibration is 6
The total number of vibrations considered is 57


--------------------------
THERMOCHEMISTRY AT 298.15K
--------------------------

Temperature         ... 298.15 K
Pressure            ... 1.00 atm
Total Mass          ... 124.19 AMU

Throughout the following assumptions are being made:
  (1) The electronic state is orbitally nondegenerate
  (2) There are no thermally accessible electronically excited states
  (3) Hindered rotations indicated by low frequency modes are not
      treated as such but are treated as vibrations and this may
      cause some error
  (4) All equations used are the standard statistical mechanics
      equations for an ideal gas
  (5) All vibrations are strictly harmonic

freq.     116.74  E(vib)   ...       0.44 
freq.     120.92  E(vib)   ...       0.44 
freq.     141.70  E(vib)   ...       0.41 
freq.     166.43  E(vib)   ...       0.39 
freq.     178.00  E(vib)   ...       0.37 
freq.     179.03  E(vib)   ...       0.37 
freq.     277.15  E(vib)   ...       0.28 
freq.     278.49  E(vib)   ...       0.28 
freq.     294.76  E(vib)   ...       0.27 
freq.     298.00  E(vib)   ...       0.27 
freq.     326.15  E(vib)   ...       0.24 
freq.     552.51  E(vib)   ...       0.12 
freq.     582.14  E(vib)   ...       0.11 
freq.     629.71  E(vib)   ...       0.09 
freq.     643.42  E(vib)   ...       0.09 
freq.     682.55  E(vib)   ...       0.08 
freq.     734.63  E(vib)   ...       0.06 
freq.     873.60  E(vib)   ...       0.04 
freq.     968.83  E(vib)   ...       0.03 
freq.    1046.84  E(vib)   ...       0.02 
freq.    1066.67  E(vib)   ...       0.02 
freq.    1078.34  E(vib)   ...       0.02 
freq.    1085.91  E(vib)   ...       0.02 
freq.    1113.57  E(vib)   ...       0.01 
freq.    1143.55  E(vib)   ...       0.01 
freq.    1144.39  E(vib)   ...       0.01 
freq.    1183.39  E(vib)   ...       0.01 
freq.    1256.43  E(vib)   ...       0.01 
freq.    1389.74  E(vib)   ...       0.00 
freq.    1397.77  E(vib)   ...       0.00 
freq.    1413.65  E(vib)   ...       0.00 
freq.    1419.72  E(vib)   ...       0.00 
freq.    1428.95  E(vib)   ...       0.00 
freq.    1438.00  E(vib)   ...       0.00 
freq.    1440.28  E(vib)   ...       0.00 
freq.    1442.44  E(vib)   ...       0.00 
freq.    1450.36  E(vib)   ...       0.00 
freq.    1450.54  E(vib)   ...       0.00 
freq.    1451.03  E(vib)   ...       0.00 
freq.    1452.56  E(vib)   ...       0.00 
freq.    1478.71  E(vib)   ...       0.00 
freq.    1487.89  E(vib)   ...       0.00 
freq.    1491.43  E(vib)   ...       0.00 
freq.    1499.16  E(vib)   ...       0.00 
freq.    1762.08  E(vib)   ...       0.00 
freq.    3061.79  E(vib)   ...       0.00 
freq.    3062.94  E(vib)   ...       0.00 
freq.    3070.11  E(vib)   ...       0.00 
freq.    3071.31  E(vib)   ...       0.00 
freq.    3148.59  E(vib)   ...       0.00 
freq.    3148.79  E(vib)   ...       0.00 
freq.    3164.29  E(vib)   ...       0.00 
freq.    3164.33  E(vib)   ...       0.00 
freq.    3184.76  E(vib)   ...       0.00 
freq.    3186.08  E(vib)   ...       0.00 
freq.    3211.37  E(vib)   ...       0.00 
freq.    3211.58  E(vib)   ...       0.00 

------------
INNER ENERGY
------------

The inner energy is: U= E(el) + E(ZPE) + E(vib) + E(rot) + E(trans)
    E(el)   - is the total energy from the electronic structure calculation
              = E(kin-el) + E(nuc-el) + E(el-el) + E(nuc-nuc)
    E(ZPE)  - the the zero temperature vibrational energy from the frequency calculation
    E(vib)  - the the finite temperature correction to E(ZPE) due to population
              of excited vibrational states
    E(rot)  - is the rotational thermal energy
    E(trans)- is the translational thermal energy

Summary of contributions to the inner energy U:
Electronic energy                ...   -383.08079968 Eh
Zero point energy                ...      0.18394857 Eh     115.43 kcal/mol
Thermal vibrational correction   ...      0.00726834 Eh       4.56 kcal/mol
Thermal rotational correction    ...      0.00141627 Eh       0.89 kcal/mol
Thermal translational correction ...      0.00141627 Eh       0.89 kcal/mol
-----------------------------------------------------------------------
Total thermal energy                   -382.88675023 Eh


Summary of corrections to the electronic energy:
(perhaps to be used in another calculation)
Total thermal correction                  0.01010088 Eh       6.34 kcal/mol
Non-thermal (ZPE) correction              0.18394857 Eh     115.43 kcal/mol
-----------------------------------------------------------------------
Total correction                          0.19404945 Eh     121.77 kcal/mol


--------
ENTHALPY
--------

The enthalpy is H = U + kB*T
                kB is Boltzmann's constant
Total free energy                 ...   -382.88675023 Eh 
Thermal Enthalpy correction       ...      0.00094421 Eh       0.59 kcal/mol
-----------------------------------------------------------------------
Total Enthalpy                    ...   -382.88580602 Eh


Note: Rotational entropy computed according to Herzberg 
Infrared and Raman Spectra, Chapter V,1, Van Nostrand Reinhold, 1945 
Point Group:  C2v, Symmetry Number:   2  
Rotational constants in cm-1:     0.082679     0.050982     0.032310 

Vibrational entropy computed according to the QRRHO of S. Grimme
Chem.Eur.J. 2012 18 9955


-------
ENTROPY
-------

The entropy contributions are T*S = T*(S(el)+S(vib)+S(rot)+S(trans))
     S(el)   - electronic entropy
     S(vib)  - vibrational entropy
     S(rot)  - rotational entropy
     S(trans)- translational entropy
The entropies will be listed as multiplied by the temperature to get
units of energy

Electronic entropy                ...      0.00000000 Eh      0.00 kcal/mol
Vibrational entropy               ...      0.01259517 Eh      7.90 kcal/mol
Rotational entropy                ...      0.01305864 Eh      8.19 kcal/mol
Translational entropy             ...      0.01917803 Eh     12.03 kcal/mol
-----------------------------------------------------------------------
Final entropy term                ...      0.04483185 Eh     28.13 kcal/mol

In case the symmetry of your molecule has not been determined correctly
or in case you have a reason to use a different symmetry number we print 
out the resulting rotational entropy values for sn=1,12 :
 --------------------------------------------------------
|  sn= 1 | S(rot)=       0.01371310 Eh      8.61 kcal/mol|
|  sn= 2 | S(rot)=       0.01305864 Eh      8.19 kcal/mol|
|  sn= 3 | S(rot)=       0.01267581 Eh      7.95 kcal/mol|
|  sn= 4 | S(rot)=       0.01240419 Eh      7.78 kcal/mol|
|  sn= 5 | S(rot)=       0.01219350 Eh      7.65 kcal/mol|
|  sn= 6 | S(rot)=       0.01202135 Eh      7.54 kcal/mol|
|  sn= 7 | S(rot)=       0.01187581 Eh      7.45 kcal/mol|
|  sn= 8 | S(rot)=       0.01174973 Eh      7.37 kcal/mol|
|  sn= 9 | S(rot)=       0.01163852 Eh      7.30 kcal/mol|
|  sn=10 | S(rot)=       0.01153904 Eh      7.24 kcal/mol|
|  sn=11 | S(rot)=       0.01144905 Eh      7.18 kcal/mol|
|  sn=12 | S(rot)=       0.01136690 Eh      7.13 kcal/mol|
 --------------------------------------------------------


-------------------
GIBBS FREE ENERGY
-------------------

The Gibbs free energy is G = H - T*S

Total enthalpy                    ...   -382.88580602 Eh 
Total entropy correction          ...     -0.04483185 Eh    -28.13 kcal/mol
-----------------------------------------------------------------------
Final Gibbs free energy         ...   -382.93063787 Eh

For completeness - the Gibbs free energy minus the electronic energy
G-E(el)                           ...      0.15016181 Eh     94.23 kcal/mol


Timings for individual modules:

Sum of individual times         ...      490.339 sec (=   8.172 min)
GTO integral calculation        ...        2.729 sec (=   0.045 min)   0.6 %
SCF iterations                  ...      207.258 sec (=   3.454 min)  42.3 %
SCF Gradient evaluation         ...       51.569 sec (=   0.859 min)  10.5 %
Geometry relaxation             ...        0.207 sec (=   0.003 min)   0.0 %
Analytical frequency calculation...      228.577 sec (=   3.810 min)  46.6 %
                             ****ORCA TERMINATED NORMALLY****
TOTAL RUN TIME: 0 days 0 hours 8 minutes 12 seconds 672 msec
