
                                 *****************
                                 * O   R   C   A *
                                 *****************

                                            #,                                       
                                            ###                                      
                                            ####                                     
                                            #####                                    
                                            ######                                   
                                           ########,                                 
                                     ,,################,,,,,                         
                               ,,#################################,,                 
                          ,,##########################################,,             
                       ,#########################################, ''#####,          
                    ,#############################################,,   '####,        
                  ,##################################################,,,,####,       
                ,###########''''           ''''###############################       
              ,#####''   ,,,,##########,,,,          '''####'''          '####       
            ,##' ,,,,###########################,,,                        '##       
           ' ,,###''''                  '''############,,,                           
         ,,##''                                '''############,,,,        ,,,,,,###''
      ,#''                                            '''#######################'''  
     '                                                          ''''####''''         
             ,#######,   #######,   ,#######,      ##                                
            ,#'     '#,  ##    ##  ,#'     '#,    #''#        ######   ,####,        
            ##       ##  ##   ,#'  ##            #'  '#       #        #'  '#        
            ##       ##  #######   ##           ,######,      #####,   #    #        
            '#,     ,#'  ##    ##  '#,     ,#' ,#      #,         ##   #,  ,#        
             '#######'   ##     ##  '#######'  #'      '#     #####' # '####'        



                  #######################################################
                  #                        -***-                        #
                  #          Department of theory and spectroscopy      #
                  #    Directorship and core code : Frank Neese         #
                  #        Max Planck Institute fuer Kohlenforschung    #
                  #                Kaiser Wilhelm Platz 1               #
                  #                 D-45470 Muelheim/Ruhr               #
                  #                      Germany                        #
                  #                                                     #
                  #                  All rights reserved                #
                  #                        -***-                        #
                  #######################################################


                         Program Version 5.0.4 -  RELEASE  -


 With contributions from (in alphabetic order):
   Daniel Aravena         : Magnetic Suceptibility
   Michael Atanasov       : Ab Initio Ligand Field Theory (pilot matlab implementation)
   Alexander A. Auer      : GIAO ZORA, VPT2 properties, NMR spectrum
   Ute Becker             : Parallelization
   Giovanni Bistoni       : ED, misc. LED, open-shell LED, HFLD
   Martin Brehm           : Molecular dynamics
   Dmytro Bykov           : SCF Hessian
   Vijay G. Chilkuri      : MRCI spin determinant printing, contributions to CSF-ICE
   Dipayan Datta          : RHF DLPNO-CCSD density
   Achintya Kumar Dutta   : EOM-CC, STEOM-CC
   Dmitry Ganyushin       : Spin-Orbit,Spin-Spin,Magnetic field MRCI
   Miquel Garcia          : C-PCM and meta-GGA Hessian, CC/C-PCM, Gaussian charge scheme
   Yang Guo               : DLPNO-NEVPT2, F12-NEVPT2, CIM, IAO-localization
   Andreas Hansen         : Spin unrestricted coupled pair/coupled cluster methods
   Benjamin Helmich-Paris : MC-RPA, TRAH-SCF, COSX integrals
   Lee Huntington         : MR-EOM, pCC
   Robert Izsak           : Overlap fitted RIJCOSX, COSX-SCS-MP3, EOM
   Marcus Kettner         : VPT2
   Christian Kollmar      : KDIIS, OOCD, Brueckner-CCSD(T), CCSD density, CASPT2, CASPT2-K
   Simone Kossmann        : Meta GGA functionals, TD-DFT gradient, OOMP2, MP2 Hessian
   Martin Krupicka        : Initial AUTO-CI
   Lucas Lang             : DCDCAS
   Marvin Lechner         : AUTO-CI (C++ implementation), FIC-MRCC
   Dagmar Lenk            : GEPOL surface, SMD
   Dimitrios Liakos       : Extrapolation schemes; Compound Job, initial MDCI parallelization
   Dimitrios Manganas     : Further ROCIS development; embedding schemes
   Dimitrios Pantazis     : SARC Basis sets
   Anastasios Papadopoulos: AUTO-CI, single reference methods and gradients
   Taras Petrenko         : DFT Hessian,TD-DFT gradient, ASA, ECA, R-Raman, ABS, FL, XAS/XES, NRVS
   Peter Pinski           : DLPNO-MP2, DLPNO-MP2 Gradient
   Christoph Reimann      : Effective Core Potentials
   Marius Retegan         : Local ZFS, SOC
   Christoph Riplinger    : Optimizer, TS searches, QM/MM, DLPNO-CCSD(T), (RO)-DLPNO pert. Triples
   Tobias Risthaus        : Range-separated hybrids, TD-DFT gradient, RPA, STAB
   Michael Roemelt        : Original ROCIS implementation
   Masaaki Saitow         : Open-shell DLPNO-CCSD energy and density
   Barbara Sandhoefer     : DKH picture change effects
   Avijit Sen             : IP-ROCIS
   Kantharuban Sivalingam : CASSCF convergence, NEVPT2, FIC-MRCI
   Bernardo de Souza      : ESD, SOC TD-DFT
   Georgi Stoychev        : AutoAux, RI-MP2 NMR, DLPNO-MP2 response
   Willem Van den Heuvel  : Paramagnetic NMR
   Boris Wezisla          : Elementary symmetry handling
   Frank Wennmohs         : Technical directorship


 We gratefully acknowledge several colleagues who have allowed us to
 interface, adapt or use parts of their codes:
   Stefan Grimme, W. Hujo, H. Kruse, P. Pracht,  : VdW corrections, initial TS optimization,
                  C. Bannwarth, S. Ehlert          DFT functionals, gCP, sTDA/sTD-DF
   Ed Valeev, F. Pavosevic, A. Kumar             : LibInt (2-el integral package), F12 methods
   Garnet Chan, S. Sharma, J. Yang, R. Olivares  : DMRG
   Ulf Ekstrom                                   : XCFun DFT Library
   Mihaly Kallay                                 : mrcc  (arbitrary order and MRCC methods)
   Jiri Pittner, Ondrej Demel                    : Mk-CCSD
   Frank Weinhold                                : gennbo (NPA and NBO analysis)
   Christopher J. Cramer and Donald G. Truhlar   : smd solvation model
   Lars Goerigk                                  : TD-DFT with DH, B97 family of functionals
   V. Asgeirsson, H. Jonsson                     : NEB implementation
   FAccTs GmbH                                   : IRC, NEB, NEB-TS, DLPNO-Multilevel, CI-OPT
                                                   MM, QMMM, 2- and 3-layer-ONIOM, Crystal-QMMM,
                                                   LR-CPCM, SF, NACMEs, symmetry and pop. for TD-DFT,
                                                   nearIR, NL-DFT gradient (VV10), updates on ESD,
                                                   ML-optimized integration grids
   S Lehtola, MJT Oliveira, MAL Marques          : LibXC Library
   Liviu Ungur et al                             : ANISO software


 Your calculation uses the libint2 library for the computation of 2-el integrals
 For citations please refer to: http://libint.valeyev.net

 Your ORCA version has been built with support for libXC version: 5.1.0
 For citations please refer to: https://tddft.org/programs/libxc/

 This ORCA versions uses:
   CBLAS   interface :  Fast vector & matrix operations
   LAPACKE interface :  Fast linear algebra routines
   SCALAPACK package :  Parallel linear algebra routines
   Shared memory     :  Shared parallel matrices
   BLAS/LAPACK       :  OpenBLAS 0.3.15  USE64BITINT DYNAMIC_ARCH NO_AFFINITY SkylakeX SINGLE_THREADED
        Core in use  :  SkylakeX
   Copyright (c) 2011-2014, The OpenBLAS Project


Your calculation utilizes the atom-pairwise dispersion correction
based on tight binding partial charges (D4)
Cite in your paper:
E.Caldeweyher, C.Bannwarth, S.Grimme, J.Chem.Phys., (2017), 147, 034112.
E.Caldeweyher, S.Ehlert, A.Hansen, H.Neugebauer, S.Grimme, J.Chem.Phys., (2018), in progress.
   

XCFun DFT library Copyright 2009-2010 Ulf Ekstrom and contributors.
See http://admol.org/xcfun for more information.
This is free software; see the source code for copying conditions.
There is ABSOLUTELY NO WARRANTY; not even for MERCHANTABILITY or FITNESS FOR A PARTICULAR PURPOSE.
For details see the documentation.
Scientific users of this library should cite U. Ekstrom, L. Visscher, R. Bast, A. J. Thorvaldsen and K. Ruud;
J.Chem.Theor.Comp. 2010, DOI: 10.1021/ct100117s
XCFun Version 0.99 

================================================================================

----- Orbital basis set information -----
Your calculation utilizes the basis: def2-SVP
   F. Weigend and R. Ahlrichs, Phys. Chem. Chem. Phys. 7, 3297 (2005).

----- AuxJ basis set information -----
Your calculation utilizes the auxiliary basis: def2/J
   F. Weigend, Phys. Chem. Chem. Phys. 8, 1057 (2006).

================================================================================
                                        WARNINGS
                       Please study these warnings very carefully!
================================================================================


INFO   : the flag for use of the SHARK integral package has been found!

================================================================================
                                       INPUT FILE
================================================================================
NAME = DFT_water_outs/3+-gasSP.inp
|  1> ! SP wB97X D4 def2-SVP def2/J defgrid2 
|  2> %maxcore 3000
|  3> %PAL NPROCS 4 END
|  4> * xyz 1 1
|  5> N 0.0 1.0865 1.0564
|  6> N -0.0 -1.0865 1.0564
|  7> C 0.0 0.6824 -0.2617
|  8> C -0.0 -0.6824 -0.2617
|  9> C 0.0 -0.0 1.8246
| 10> Cl 0.0 1.7634 -1.559
| 11> Cl -0.0 -1.7634 -1.559
| 12> C -0.0 2.4719 1.5197
| 13> C 0.0 -2.4719 1.5197
| 14> H -0.0 2.4676 2.6153
| 15> H -0.0 -2.4676 2.6153
| 16> H -0.9 2.9763 1.146
| 17> H -0.9 -2.9763 1.146
| 18> H 0.9 -2.9763 1.146
| 19> H 0.9 2.9763 1.146
| 20> H -0.0 -0.0 2.9153
| 21> **                         ****END OF INPUT****
================================================================================

                       ****************************
                       * Single Point Calculation *
                       ****************************

---------------------------------
CARTESIAN COORDINATES (ANGSTROEM)
---------------------------------
  N      0.000000    1.086500    1.056400
  N     -0.000000   -1.086500    1.056400
  C      0.000000    0.682400   -0.261700
  C     -0.000000   -0.682400   -0.261700
  C      0.000000   -0.000000    1.824600
  Cl     0.000000    1.763400   -1.559000
  Cl    -0.000000   -1.763400   -1.559000
  C     -0.000000    2.471900    1.519700
  C      0.000000   -2.471900    1.519700
  H     -0.000000    2.467600    2.615300
  H     -0.000000   -2.467600    2.615300
  H     -0.900000    2.976300    1.146000
  H     -0.900000   -2.976300    1.146000
  H      0.900000   -2.976300    1.146000
  H      0.900000    2.976300    1.146000
  H     -0.000000   -0.000000    2.915300

----------------------------
CARTESIAN COORDINATES (A.U.)
----------------------------
  NO LB      ZA    FRAG     MASS         X           Y           Z
   0 N     7.0000    0    14.007    0.000000    2.053187    1.996307
   1 N     7.0000    0    14.007   -0.000000   -2.053187    1.996307
   2 C     6.0000    0    12.011    0.000000    1.289549   -0.494541
   3 C     6.0000    0    12.011   -0.000000   -1.289549   -0.494541
   4 C     6.0000    0    12.011    0.000000   -0.000000    3.447994
   5 Cl   17.0000    0    35.453    0.000000    3.332343   -2.946083
   6 Cl   17.0000    0    35.453   -0.000000   -3.332343   -2.946083
   7 C     6.0000    0    12.011   -0.000000    4.671214    2.871817
   8 C     6.0000    0    12.011    0.000000   -4.671214    2.871817
   9 H     1.0000    0     1.008   -0.000000    4.663088    4.942201
  10 H     1.0000    0     1.008   -0.000000   -4.663088    4.942201
  11 H     1.0000    0     1.008   -1.700754    5.624392    2.165626
  12 H     1.0000    0     1.008   -1.700754   -5.624392    2.165626
  13 H     1.0000    0     1.008    1.700754   -5.624392    2.165626
  14 H     1.0000    0     1.008    1.700754    5.624392    2.165626
  15 H     1.0000    0     1.008   -0.000000   -0.000000    5.509119

--------------------------------
INTERNAL COORDINATES (ANGSTROEM)
--------------------------------
 N      0   0   0     0.000000000000     0.00000000     0.00000000
 N      1   0   0     2.173000000000     0.00000000     0.00000000
 C      1   2   0     1.378653118083    72.95563102     0.00000000
 C      3   1   2     1.364800000000   107.04436898     0.00000000
 C      1   2   3     1.330644013251    35.26187531   180.00000000
 Cl     3   1   2     1.688652803272   123.15223207   180.00000000
 Cl     4   3   1     1.688652803272   129.80339895   180.00000000
 C      1   2   3     1.460814858221   161.50923758   180.00000085
 C      2   1   3     1.460814858221   161.50923758   180.00000085
 H      8   1   2     1.095608438266   108.26588967     0.00000000
 H      9   2   1     1.095608438266   108.26588967     0.00000000
 H      8   1   2     1.097301713295   109.14332043   240.25064154
 H      9   2   1     1.097301713295   109.14332043   119.74935846
 H      9   2   1     1.097301713295   109.14332043   240.25064154
 H      8   1   2     1.097301713295   109.14332043   119.74935846
 H      5   1   2     1.090700000000   125.26187531   180.00000085

---------------------------
INTERNAL COORDINATES (A.U.)
---------------------------
 N      0   0   0     0.000000000000     0.00000000     0.00000000
 N      1   0   0     4.106374889011     0.00000000     0.00000000
 C      1   2   0     2.605276826853    72.95563102     0.00000000
 C      3   1   2     2.579098227576   107.04436898     0.00000000
 C      1   2   3     2.514552766786    35.26187531   180.00000000
 Cl     3   1   2     3.191091333463   123.15223207   180.00000000
 Cl     4   3   1     3.191091333463   129.80339895   180.00000000
 C      1   2   3     2.760540014401   161.50923758   180.00000085
 C      2   1   3     2.760540014401   161.50923758   180.00000085
 H      8   1   2     2.070399898336   108.26588967     0.00000000
 H      9   2   1     2.070399898336   108.26588967     0.00000000
 H      8   1   2     2.073599724410   109.14332043   240.25064154
 H      9   2   1     2.073599724410   109.14332043   119.74935846
 H      9   2   1     2.073599724410   109.14332043   240.25064154
 H      8   1   2     2.073599724410   109.14332043   119.74935846
 H      5   1   2     2.061124294268   125.26187531   180.00000085

---------------------
BASIS SET INFORMATION
---------------------
There are 4 groups of distinct atoms

 Group   1 Type N   : 7s4p1d contracted to 3s2p1d pattern {511/31/1}
 Group   2 Type C   : 7s4p1d contracted to 3s2p1d pattern {511/31/1}
 Group   3 Type Cl  : 10s7p1d contracted to 4s3p1d pattern {5311/511/1}
 Group   4 Type H   : 4s1p contracted to 2s1p pattern {31/1}

Atom   0N    basis set group =>   1
Atom   1N    basis set group =>   1
Atom   2C    basis set group =>   2
Atom   3C    basis set group =>   2
Atom   4C    basis set group =>   2
Atom   5Cl   basis set group =>   3
Atom   6Cl   basis set group =>   3
Atom   7C    basis set group =>   2
Atom   8C    basis set group =>   2
Atom   9H    basis set group =>   4
Atom  10H    basis set group =>   4
Atom  11H    basis set group =>   4
Atom  12H    basis set group =>   4
Atom  13H    basis set group =>   4
Atom  14H    basis set group =>   4
Atom  15H    basis set group =>   4
---------------------------------
AUXILIARY/J BASIS SET INFORMATION
---------------------------------
There are 4 groups of distinct atoms

 Group   1 Type N   : 12s5p4d2f1g contracted to 6s4p3d1f1g pattern {711111/2111/211/2/1}
 Group   2 Type C   : 12s5p4d2f1g contracted to 6s4p3d1f1g pattern {711111/2111/211/2/1}
 Group   3 Type Cl  : 14s5p5d2f1g contracted to 8s4p3d1f1g pattern {71111111/2111/311/2/1}
 Group   4 Type H   : 5s2p1d contracted to 3s1p1d pattern {311/2/1}

Atom   0N    basis set group =>   1
Atom   1N    basis set group =>   1
Atom   2C    basis set group =>   2
Atom   3C    basis set group =>   2
Atom   4C    basis set group =>   2
Atom   5Cl   basis set group =>   3
Atom   6Cl   basis set group =>   3
Atom   7C    basis set group =>   2
Atom   8C    basis set group =>   2
Atom   9H    basis set group =>   4
Atom  10H    basis set group =>   4
Atom  11H    basis set group =>   4
Atom  12H    basis set group =>   4
Atom  13H    basis set group =>   4
Atom  14H    basis set group =>   4
Atom  15H    basis set group =>   4


           ************************************************************
           *        Program running with 4 parallel MPI-processes     *
           *              working on a common directory               *
           ************************************************************
------------------------------------------------------------------------------
                           ORCA GTO INTEGRAL CALCULATION
                           -- RI-GTO INTEGRALS CHOSEN --
------------------------------------------------------------------------------
------------------------------------------------------------------------------
                   ___                                                        
                  /   \      - P O W E R E D   B Y -                         
                 /     \                                                     
                 |  |  |   _    _      __       _____    __    __             
                 |  |  |  | |  | |    /  \     |  _  \  |  |  /  |          
                  \  \/   | |  | |   /    \    | | | |  |  | /  /          
                 / \  \   | |__| |  /  /\  \   | |_| |  |  |/  /          
                |  |  |   |  __  | /  /__\  \  |    /   |      \           
                |  |  |   | |  | | |   __   |  |    \   |  |\   \          
                \     /   | |  | | |  |  |  |  | |\  \  |  | \   \       
                 \___/    |_|  |_| |__|  |__|  |_| \__\ |__|  \__/        
                                                                              
                      - O R C A' S   B I G   F R I E N D -                    
                                      &                                       
                       - I N T E G R A L  F E E D E R -                       
                                                                              
 v1 FN, 2020, v2 2021                                                         
------------------------------------------------------------------------------


Reading SHARK input file DFT_water_outs/3+-gasSP.SHARKINP.tmp ... ok
----------------------
SHARK INTEGRAL PACKAGE
----------------------

Number of atoms                             ...     16
Number of basis functions                   ...    169
Number of shells                            ...     79
Maximum angular momentum                    ...      2
Integral batch strategy                     ... SHARK/LIBINT Hybrid
RI-J (if used) integral strategy            ... SPLIT-RIJ (Revised 2003 algorithm where possible)
Printlevel                                  ...      1
Contraction scheme used                     ... SEGMENTED contraction
Coulomb Range Separation                    ... NOT USED
Exchange Range Separation                   ... Long Range
   Mu parameter                             ...  0.300000
   Scaling (regular/separated)              ...  0.157706  0.842294
Finite Nucleus Model                        ... NOT USED
Auxiliary Coulomb fitting basis             ... AVAILABLE
   # of basis functions in Aux-J            ...    522
   # of shells in Aux-J                     ...    174
   Maximum angular momentum in Aux-J        ...      4
Auxiliary J/K fitting basis                 ... NOT available
Auxiliary Correlation fitting basis         ... NOT available
Auxiliary 'external' fitting basis          ... NOT available
Integral threshold                          ...     1.000000e-10
Primitive cut-off                           ...     1.000000e-11
Primitive pair pre-selection threshold      ...     1.000000e-11

Calculating pre-screening integrals         ... done (  0.1 sec) Dimension = 79
Organizing shell pair data                  ... done (  0.0 sec)
Shell pair information
Total number of shell pairs                 ...      3160
Shell pairs after pre-screening             ...      2831
Total number of primitive shell pairs       ...     12248
Primitive shell pairs kept                  ...      7724
          la=0 lb=0:    850 shell pairs
          la=1 lb=0:   1031 shell pairs
          la=1 lb=1:    338 shell pairs
          la=2 lb=0:    347 shell pairs
          la=2 lb=1:    223 shell pairs
          la=2 lb=2:     42 shell pairs

Calculating one electron integrals          ... done (  0.0 sec)
Calculating RI/J V-Matrix + Cholesky decomp.... done (  0.0 sec)
Calculating Nuclear repulsion               ... done (  0.0 sec) ENN=    622.910585101436 Eh

SHARK setup successfully completed in   0.3 seconds

Maximum memory used throughout the entire GTOINT-calculation: 11.6 MB


           ************************************************************
           *        Program running with 4 parallel MPI-processes     *
           *              working on a common directory               *
           ************************************************************
-------------------------------------------------------------------------------
                                 ORCA SCF
-------------------------------------------------------------------------------

------------
SCF SETTINGS
------------
Hamiltonian:
 Density Functional     Method          .... DFT(GTOs)
 Exchange Functional    Exchange        .... WB97X
 Correlation Functional Correlation     .... WB97X
 Gradients option       PostSCFGGA      .... off
 Hybrid DFT is turned on
   Fraction HF Exchange ScalHFX         ....  0.157706
   Scaling of DF-GGA-X  ScalDFX         ....  0.000000
   Scaling of DF-GGA-C  ScalDFC         ....  1.000000
   Scaling of DF-LDA-C  ScalLDAC        ....  1.000000
   Perturbative correction              ....  0.000000
   Density functional embedding theory  .... OFF
 Long-range corrected/Screened/Range-Separated Hybrid DFT is turned on
   Amount of maximum screened exact exchange              ....  0.842294
   Range separation parameter mu (erf(mu*r12)/r12)        ....  0.300000
 RI-approximation to the Coulomb term is turned on
   Number of AuxJ basis functions       .... 522
   RIJ-COSX (HFX calculated with COS-X)).... on


General Settings:
 Integral files         IntName         .... DFT_water_outs/3+-gasSP
 Hartree-Fock type      HFTyp           .... RHF
 Total Charge           Charge          ....    1
 Multiplicity           Mult            ....    1
 Number of Electrons    NEL             ....   84
 Basis Dimension        Dim             ....  169
 Nuclear Repulsion      ENuc            ....    622.9105851014 Eh

Convergence Acceleration:
 DIIS                   CNVDIIS         .... on
   Start iteration      DIISMaxIt       ....    12
   Startup error        DIISStart       ....  0.200000
   # of expansion vecs  DIISMaxEq       ....     5
   Bias factor          DIISBfac        ....   1.050
   Max. coefficient     DIISMaxC        ....  10.000
 Trust-Rad. Augm. Hess. CNVTRAH         .... auto
   Auto Start mean grad. ratio tolernc. ....  1.125000
   Auto Start start iteration           ....    20
   Auto Start num. interpolation iter.  ....    10
   Max. Number of Micro iterations      ....    16
   Max. Number of Macro iterations      .... Maxiter - #DIIS iter
   Number of Davidson start vectors     ....     2
   Converg. threshold I  (grad. norm)   ....   5.000e-05
   Converg. threshold II (energy diff.) ....   1.000e-06
   Grad. Scal. Fac. for Micro threshold ....   0.100
   Minimum threshold for Micro iter.    ....   0.010
   NR start threshold (gradient norm)   ....   0.001
   Initial trust radius                 ....   0.400
   Minimum AH scaling param. (alpha)    ....   1.000
   Maximum AH scaling param. (alpha)    .... 1000.000
   Orbital update algorithm             .... Taylor
   White noise on init. David. guess    .... on
   Maximum white noise                  ....   0.010
   Quad. conv. algorithm                .... NR
 SOSCF                  CNVSOSCF        .... on
   Start iteration      SOSCFMaxIt      ....   150
   Startup grad/error   SOSCFStart      ....  0.003300
 Level Shifting         CNVShift        .... on
   Level shift para.    LevelShift      ....    0.2500
   Turn off err/grad.   ShiftErr        ....    0.0010
 Zerner damping         CNVZerner       .... off
 Static damping         CNVDamp         .... on
   Fraction old density DampFac         ....    0.7000
   Max. Damping (<1)    DampMax         ....    0.9800
   Min. Damping (>=0)   DampMin         ....    0.0000
   Turn off err/grad.   DampErr         ....    0.1000
 Fernandez-Rico         CNVRico         .... off

SCF Procedure:
 Maximum # iterations   MaxIter         ....   125
 SCF integral mode      SCFMode         .... Direct
   Integral package                     .... SHARK and LIBINT hybrid scheme
 Reset frequency        DirectResetFreq ....    20
 Integral Threshold     Thresh          ....  1.000e-10 Eh
 Primitive CutOff       TCut            ....  1.000e-11 Eh

Convergence Tolerance:
 Convergence Check Mode ConvCheckMode   .... Total+1el-Energy
 Convergence forced     ConvForced      .... 0
 Energy Change          TolE            ....  1.000e-06 Eh
 1-El. energy change                    ....  1.000e-03 Eh
 Orbital Gradient       TolG            ....  5.000e-05
 Orbital Rotation angle TolX            ....  5.000e-05
 DIIS Error             TolErr          ....  1.000e-06


Diagonalization of the overlap matrix:
Smallest eigenvalue                        ... 8.737e-04
Time for diagonalization                   ...    0.005 sec
Threshold for overlap eigenvalues          ... 1.000e-08
Number of eigenvalues below threshold      ... 0
Time for construction of square roots      ...    0.004 sec
Total time needed                          ...    0.010 sec

Time for model grid setup =    0.095 sec

------------------------------
INITIAL GUESS: MODEL POTENTIAL
------------------------------
Loading Hartree-Fock densities                     ... done
Calculating cut-offs                               ... done
Initializing the effective Hamiltonian             ... done
Setting up the integral package (SHARK)            ... done
Starting the Coulomb interaction                   ... done (   0.0 sec)
Reading the grid                                   ... done
Mapping shells                                     ... done
Starting the XC term evaluation                    ... done (   0.1 sec)
  promolecular density results
     # of electrons  =     84.994636255
     EX              =    -95.606989741
     EC              =     -3.061867717
     EX+EC           =    -98.668857458
Transforming the Hamiltonian                       ... done (   0.0 sec)
Diagonalizing the Hamiltonian                      ... done (   0.0 sec)
Back transforming the eigenvectors                 ... done (   0.0 sec)
Now organizing SCF variables                       ... done
                      ------------------
                      INITIAL GUESS DONE (   0.2 sec)
                      ------------------
-------------------
DFT GRID GENERATION
-------------------

General Integration Accuracy     IntAcc      ... 4.388
Radial Grid Type                 RadialGrid  ... OptM3 with GC (2021)
Angular Grid (max. ang.)         AngularGrid ... 4 (Lebedev-302)
Angular grid pruning method      GridPruning ... 4 (adaptive)
Weight generation scheme         WeightScheme... Becke
Basis function cutoff            BFCut       ... 1.0000e-10
Integration weight cutoff        WCut        ... 1.0000e-14
Angular grids for H and He will be reduced by one unit
Partially contracted basis set               ... off
Rotationally invariant grid construction     ... off

Total number of grid points                  ...    79235
Total number of batches                      ...     1245
Average number of points per batch           ...       63
Average number of grid points per atom       ...     4952
Time for grid setup =    0.483 sec

--------------------
COSX GRID GENERATION
--------------------

GRIDX 1
-------
General Integration Accuracy     IntAcc      ... 3.816
Radial Grid Type                 RadialGrid  ... OptM3 with GC (2021)
Angular Grid (max. ang.)         AngularGrid ... 1 (Lebedev-50)
Angular grid pruning method      GridPruning ... 4 (adaptive)
Weight generation scheme         WeightScheme... Becke
Basis function cutoff            BFCut       ... 1.0000e-10
Integration weight cutoff        WCut        ... 1.0000e-14
Angular grids for H and He will be reduced by one unit
Partially contracted basis set               ... on
Rotationally invariant grid construction     ... off

Total number of grid points                  ...     9936
Total number of batches                      ...      165
Average number of points per batch           ...       60
Average number of grid points per atom       ...      621
UseSFitting                                  ... on

GRIDX 2
-------
General Integration Accuracy     IntAcc      ... 4.020
Radial Grid Type                 RadialGrid  ... OptM3 with GC (2021)
Angular Grid (max. ang.)         AngularGrid ... 2 (Lebedev-110)
Angular grid pruning method      GridPruning ... 4 (adaptive)
Weight generation scheme         WeightScheme... Becke
Basis function cutoff            BFCut       ... 1.0000e-10
Integration weight cutoff        WCut        ... 1.0000e-14
Angular grids for H and He will be reduced by one unit
Partially contracted basis set               ... on
Rotationally invariant grid construction     ... off

Total number of grid points                  ...    21791
Total number of batches                      ...      349
Average number of points per batch           ...       62
Average number of grid points per atom       ...     1362
UseSFitting                                  ... on

GRIDX 3
-------
General Integration Accuracy     IntAcc      ... 4.338
Radial Grid Type                 RadialGrid  ... OptM3 with GC (2021)
Angular Grid (max. ang.)         AngularGrid ... 3 (Lebedev-194)
Angular grid pruning method      GridPruning ... 4 (adaptive)
Weight generation scheme         WeightScheme... Becke
Basis function cutoff            BFCut       ... 1.0000e-10
Integration weight cutoff        WCut        ... 1.0000e-14
Angular grids for H and He will be reduced by one unit
Partially contracted basis set               ... on
Rotationally invariant grid construction     ... off

Total number of grid points                  ...    49089
Total number of batches                      ...      775
Average number of points per batch           ...       63
Average number of grid points per atom       ...     3068
UseSFitting                                  ... on

Time for X-Grid setup             =    0.460 sec

--------------
SCF ITERATIONS
--------------
ITER       Energy         Delta-E        Max-DP      RMS-DP      [F,P]     Damp
               ***  Starting incremental Fock matrix formation  ***
  0  -1223.7609315797   0.000000000000 0.04448968  0.00107293  0.0969154 0.7000
  1  -1223.7832600169  -0.022328437175 0.03115062  0.00081428  0.0595602 0.7000
                               ***Turning on DIIS***
  2  -1223.7961013417  -0.012841324840 0.05870652  0.00181611  0.0321092 0.0000
  3  -1223.8197428219  -0.023641480160 0.02100397  0.00041495  0.0206560 0.0000
                      *** Initiating the SOSCF procedure ***
                           *** Shutting down DIIS ***
                      *** Re-Reading the Fockian *** 
                      *** Removing any level shift *** 
ITER      Energy       Delta-E        Grad      Rot      Max-DP    RMS-DP
  4  -1223.82181179  -0.0020689696  0.001327  0.001327  0.002683  0.000096
               *** Restarting incremental Fock matrix formation ***
  5  -1223.82192040  -0.0001086073  0.000840  0.001510  0.001551  0.000066
  6  -1223.82193271  -0.0000123145  0.000727  0.000740  0.001011  0.000028
  7  -1223.82193917  -0.0000064595  0.000051  0.000066  0.000098  0.000005
                 **** Energy Check signals convergence ****
              ***Rediagonalizing the Fockian in SOSCF/NRSCF***

               *****************************************************
               *                     SUCCESS                       *
               *           SCF CONVERGED AFTER   8 CYCLES          *
               *****************************************************

Old exchange energy                            =    -26.422451108 Eh
New exchange energy                            =    -26.422449117 Eh
Exchange energy change after final integration =      0.000001992 Eh
Total energy after final integration           =  -1223.821937271 Eh
Final COS-X integration done in                =     6.085 sec

----------------
TOTAL SCF ENERGY
----------------

Total Energy       :        -1223.82193727 Eh          -33301.88795 eV

Components:
Nuclear Repulsion  :          622.91058510 Eh           16950.25876 eV
Electronic Energy  :        -1846.73252237 Eh          -50252.14670 eV
One Electron Energy:        -2902.41322478 Eh          -78978.67904 eV
Two Electron Energy:         1055.68070240 Eh           28726.53234 eV
Max COSX asymmetry :            0.00000115 Eh               0.00003 eV

Virial components:
Potential Energy   :        -2442.40632742 Eh          -66461.25499 eV
Kinetic Energy     :         1218.58439015 Eh           33159.36705 eV
Virial Ratio       :            2.00429806


DFT components:
N(Alpha)           :       41.999979089469 electrons
N(Beta)            :       41.999979089469 electrons
N(Total)           :       83.999958178938 electrons
E(XC)              :      -73.288470604762 Eh       
DFET-embed. en.    :        0.000000000000 Eh       

---------------
SCF CONVERGENCE
---------------

  Last Energy change         ...   -8.9710e-08  Tolerance :   1.0000e-06
  Last MAX-Density change    ...    3.1086e-15  Tolerance :   1.0000e-05
  Last RMS-Density change    ...    5.9625e-17  Tolerance :   1.0000e-06
  Last Orbital Gradient      ...    2.8106e-05  Tolerance :   5.0000e-05
  Last Orbital Rotation      ...    7.1495e-05  Tolerance :   5.0000e-05

             **** THE GBW FILE WAS UPDATED (DFT_water_outs/3+-gasSP.gbw) ****
             **** DENSITY DFT_water_outs/3+-gasSP.scfp WAS UPDATED ****
             **** ENERGY FILE WAS UPDATED (DFT_water_outs/3+-gasSP.en.tmp) ****
             **** THE GBW FILE WAS UPDATED (DFT_water_outs/3+-gasSP.gbw) ****
             **** DENSITY DFT_water_outs/3+-gasSP.scfp WAS UPDATED ****
----------------
ORBITAL ENERGIES
----------------

  NO   OCC          E(Eh)            E(eV) 
   0   2.0000    -101.659333     -2766.2911 
   1   2.0000    -101.659319     -2766.2907 
   2   2.0000     -14.688656      -399.6987 
   3   2.0000     -14.688631      -399.6980 
   4   2.0000     -10.559377      -287.3353 
   5   2.0000     -10.547111      -287.0015 
   6   2.0000     -10.546552      -286.9863 
   7   2.0000     -10.491956      -285.5006 
   8   2.0000     -10.491934      -285.5000 
   9   2.0000      -9.731789      -264.8154 
  10   2.0000      -9.731769      -264.8149 
  11   2.0000      -7.501401      -204.1235 
  12   2.0000      -7.501396      -204.1234 
  13   2.0000      -7.489210      -203.7918 
  14   2.0000      -7.489205      -203.7916 
  15   2.0000      -7.489119      -203.7893 
  16   2.0000      -7.489108      -203.7890 
  17   2.0000      -1.397552       -38.0293 
  18   2.0000      -1.275567       -34.7099 
  19   2.0000      -1.199181       -32.6314 
  20   2.0000      -1.159807       -31.5599 
  21   2.0000      -1.095625       -29.8135 
  22   2.0000      -1.046758       -28.4837 
  23   2.0000      -1.001763       -27.2594 
  24   2.0000      -0.925160       -25.1749 
  25   2.0000      -0.914015       -24.8716 
  26   2.0000      -0.838416       -22.8145 
  27   2.0000      -0.819969       -22.3125 
  28   2.0000      -0.776263       -21.1232 
  29   2.0000      -0.764805       -20.8114 
  30   2.0000      -0.748141       -20.3580 
  31   2.0000      -0.744921       -20.2703 
  32   2.0000      -0.733564       -19.9613 
  33   2.0000      -0.694985       -18.9115 
  34   2.0000      -0.690818       -18.7981 
  35   2.0000      -0.685546       -18.6547 
  36   2.0000      -0.643169       -17.5015 
  37   2.0000      -0.629479       -17.1290 
  38   2.0000      -0.597662       -16.2632 
  39   2.0000      -0.596860       -16.2414 
  40   2.0000      -0.573372       -15.6022 
  41   2.0000      -0.503795       -13.7090 
  42   0.0000      -0.109841        -2.9889 
  43   0.0000      -0.073206        -1.9920 
  44   0.0000      -0.041489        -1.1290 
  45   0.0000      -0.002775        -0.0755 
  46   0.0000       0.000402         0.0109 
  47   0.0000       0.019716         0.5365 
  48   0.0000       0.025400         0.6912 
  49   0.0000       0.051801         1.4096 
  50   0.0000       0.062021         1.6877 
  51   0.0000       0.078053         2.1239 
  52   0.0000       0.086006         2.3403 
  53   0.0000       0.089999         2.4490 
  54   0.0000       0.091904         2.5008 
  55   0.0000       0.127482         3.4690 
  56   0.0000       0.150173         4.0864 
  57   0.0000       0.154822         4.2129 
  58   0.0000       0.224357         6.1051 
  59   0.0000       0.237918         6.4741 
  60   0.0000       0.276889         7.5345 
  61   0.0000       0.294635         8.0174 
  62   0.0000       0.303468         8.2578 
  63   0.0000       0.341845         9.3021 
  64   0.0000       0.355442         9.6721 
  65   0.0000       0.376904        10.2561 
  66   0.0000       0.390145        10.6164 
  67   0.0000       0.410436        11.1685 
  68   0.0000       0.418214        11.3802 
  69   0.0000       0.482645        13.1334 
  70   0.0000       0.485947        13.2233 
  71   0.0000       0.486637        13.2421 
  72   0.0000       0.510507        13.8916 
  73   0.0000       0.525099        14.2887 
  74   0.0000       0.537923        14.6376 
  75   0.0000       0.563179        15.3249 
  76   0.0000       0.569101        15.4860 
  77   0.0000       0.590223        16.0608 
  78   0.0000       0.594719        16.1831 
  79   0.0000       0.596452        16.2303 
  80   0.0000       0.600438        16.3387 
  81   0.0000       0.605035        16.4638 
  82   0.0000       0.622291        16.9334 
  83   0.0000       0.632074        17.1996 
  84   0.0000       0.648510        17.6468 
  85   0.0000       0.662443        18.0260 
  86   0.0000       0.669828        18.2269 
  87   0.0000       0.696411        18.9503 
  88   0.0000       0.700002        19.0480 
  89   0.0000       0.709212        19.2986 
  90   0.0000       0.714307        19.4373 
  91   0.0000       0.720238        19.5987 
  92   0.0000       0.752841        20.4858 
  93   0.0000       0.772149        21.0113 
  94   0.0000       0.773136        21.0381 
  95   0.0000       0.795527        21.6474 
  96   0.0000       0.811871        22.0921 
  97   0.0000       0.819335        22.2952 
  98   0.0000       0.863507        23.4972 
  99   0.0000       0.870933        23.6993 
 100   0.0000       0.879802        23.9406 
 101   0.0000       0.963610        26.2212 
 102   0.0000       0.994899        27.0726 
 103   0.0000       0.999799        27.2059 
 104   0.0000       1.016483        27.6599 
 105   0.0000       1.070604        29.1326 
 106   0.0000       1.071865        29.1669 
 107   0.0000       1.098465        29.8908 
 108   0.0000       1.121989        30.5309 
 109   0.0000       1.151471        31.3331 
 110   0.0000       1.166781        31.7497 
 111   0.0000       1.208679        32.8898 
 112   0.0000       1.222078        33.2544 
 113   0.0000       1.332275        36.2530 
 114   0.0000       1.387149        37.7462 
 115   0.0000       1.389969        37.8230 
 116   0.0000       1.429485        38.8983 
 117   0.0000       1.444793        39.3148 
 118   0.0000       1.445252        39.3273 
 119   0.0000       1.453411        39.5493 
 120   0.0000       1.455251        39.5994 
 121   0.0000       1.488958        40.5166 
 122   0.0000       1.562806        42.5261 
 123   0.0000       1.563568        42.5468 
 124   0.0000       1.661555        45.2132 
 125   0.0000       1.668738        45.4087 
 126   0.0000       1.677206        45.6391 
 127   0.0000       1.706483        46.4358 
 128   0.0000       1.734872        47.2083 
 129   0.0000       1.754245        47.7354 
 130   0.0000       1.756777        47.8043 
 131   0.0000       1.777121        48.3579 
 132   0.0000       1.781197        48.4688 
 133   0.0000       1.829756        49.7902 
 134   0.0000       1.850210        50.3468 
 135   0.0000       1.952982        53.1433 
 136   0.0000       1.959480        53.3202 
 137   0.0000       1.960129        53.3378 
 138   0.0000       1.961305        53.3698 
 139   0.0000       1.961774        53.3826 
 140   0.0000       1.999958        54.4216 
 141   0.0000       2.032734        55.3135 
 142   0.0000       2.112881        57.4944 
 143   0.0000       2.159546        58.7642 
 144   0.0000       2.159761        58.7701 
 145   0.0000       2.253192        61.3125 
 146   0.0000       2.256861        61.4123 
 147   0.0000       2.292177        62.3733 
 148   0.0000       2.321749        63.1780 
 149   0.0000       2.349351        63.9291 
 150   0.0000       2.353319        64.0371 
 151   0.0000       2.404459        65.4287 
 152   0.0000       2.503100        68.1128 
 153   0.0000       2.559070        69.6358 
 154   0.0000       2.604181        70.8634 
 155   0.0000       2.652845        72.1876 
 156   0.0000       2.660845        72.4053 
 157   0.0000       2.676659        72.8356 
 158   0.0000       2.692072        73.2550 
 159   0.0000       2.726935        74.2037 
 160   0.0000       2.748134        74.7805 
 161   0.0000       2.851197        77.5850 
 162   0.0000       2.852248        77.6136 
 163   0.0000       2.860164        77.8290 
 164   0.0000       2.902060        78.9691 
 165   0.0000       3.046632        82.9031 
 166   0.0000       3.100512        84.3692 
 167   0.0000       3.241603        88.2085 
 168   0.0000       3.364937        91.5646 

                    ********************************
                    * MULLIKEN POPULATION ANALYSIS *
                    ********************************

-----------------------
MULLIKEN ATOMIC CHARGES
-----------------------
   0 N :   -0.216560
   1 N :   -0.216562
   2 C :    0.107568
   3 C :    0.107567
   4 C :    0.212142
   5 Cl:    0.052635
   6 Cl:    0.052636
   7 C :    0.065337
   8 C :    0.065337
   9 H :    0.093546
  10 H :    0.093546
  11 H :    0.113472
  12 H :    0.113472
  13 H :    0.113472
  14 H :    0.113472
  15 H :    0.128919
Sum of atomic charges:    1.0000000

--------------------------------
MULLIKEN REDUCED ORBITAL CHARGES
--------------------------------
  0 N s       :     3.404488  s :     3.404488
      pz      :     1.136714  p :     3.778581
      px      :     1.471067
      py      :     1.170800
      dz2     :     0.006701  d :     0.033491
      dxz     :     0.006681
      dyz     :     0.009866
      dx2y2   :     0.004114
      dxy     :     0.006129
  1 N s       :     3.404489  s :     3.404489
      pz      :     1.136713  p :     3.778582
      px      :     1.471067
      py      :     1.170801
      dz2     :     0.006701  d :     0.033491
      dxz     :     0.006681
      dyz     :     0.009866
      dx2y2   :     0.004114
      dxy     :     0.006129
  2 C s       :     3.009862  s :     3.009862
      pz      :     0.776060  p :     2.811695
      px      :     1.095096
      py      :     0.940539
      dz2     :     0.021572  d :     0.070875
      dxz     :     0.012165
      dyz     :     0.018337
      dx2y2   :     0.007457
      dxy     :     0.011344
  3 C s       :     3.009861  s :     3.009861
      pz      :     0.776060  p :     2.811697
      px      :     1.095096
      py      :     0.940540
      dz2     :     0.021572  d :     0.070875
      dxz     :     0.012165
      dyz     :     0.018337
      dx2y2   :     0.007457
      dxy     :     0.011344
  4 C s       :     3.077692  s :     3.077692
      pz      :     0.913496  p :     2.642158
      px      :     0.951538
      py      :     0.777123
      dz2     :     0.012500  d :     0.068008
      dxz     :     0.006523
      dyz     :     0.022600
      dx2y2   :     0.009152
      dxy     :     0.017233
  5 Cls       :     5.942105  s :     5.942105
      pz      :     3.462859  p :    10.960691
      px      :     3.906459
      py      :     3.591374
      dz2     :     0.008443  d :     0.044568
      dxz     :     0.006406
      dyz     :     0.020610
      dx2y2   :     0.004624
      dxy     :     0.004485
  6 Cls       :     5.942104  s :     5.942104
      pz      :     3.462858  p :    10.960691
      px      :     3.906459
      py      :     3.591374
      dz2     :     0.008443  d :     0.044568
      dxz     :     0.006406
      dyz     :     0.020610
      dx2y2   :     0.004624
      dxy     :     0.004485
  7 C s       :     3.039819  s :     3.039819
      pz      :     1.038521  p :     2.858779
      px      :     1.090331
      py      :     0.729927
      dz2     :     0.007921  d :     0.036065
      dxz     :     0.003054
      dyz     :     0.005998
      dx2y2   :     0.010881
      dxy     :     0.008211
  8 C s       :     3.039819  s :     3.039819
      pz      :     1.038520  p :     2.858779
      px      :     1.090332
      py      :     0.729928
      dz2     :     0.007921  d :     0.036065
      dxz     :     0.003054
      dyz     :     0.005998
      dx2y2   :     0.010881
      dxy     :     0.008211
  9 H s       :     0.882825  s :     0.882825
      pz      :     0.016209  p :     0.023629
      px      :     0.004807
      py      :     0.002613
 10 H s       :     0.882825  s :     0.882825
      pz      :     0.016209  p :     0.023629
      px      :     0.004807
      py      :     0.002613
 11 H s       :     0.862965  s :     0.862965
      pz      :     0.005567  p :     0.023563
      px      :     0.012546
      py      :     0.005450
 12 H s       :     0.862965  s :     0.862965
      pz      :     0.005567  p :     0.023563
      px      :     0.012546
      py      :     0.005450
 13 H s       :     0.862965  s :     0.862965
      pz      :     0.005567  p :     0.023563
      px      :     0.012546
      py      :     0.005450
 14 H s       :     0.862965  s :     0.862965
      pz      :     0.005567  p :     0.023563
      px      :     0.012546
      py      :     0.005450
 15 H s       :     0.847039  s :     0.847039
      pz      :     0.018335  p :     0.024041
      px      :     0.004451
      py      :     0.001256


                     *******************************
                     * LOEWDIN POPULATION ANALYSIS *
                     *******************************

----------------------
LOEWDIN ATOMIC CHARGES
----------------------
   0 N :    0.080270
   1 N :    0.080269
   2 C :   -0.146650
   3 C :   -0.146650
   4 C :    0.116435
   5 Cl:    0.247730
   6 Cl:    0.247730
   7 C :    0.055638
   8 C :    0.055638
   9 H :    0.055236
  10 H :    0.055236
  11 H :    0.058477
  12 H :    0.058477
  13 H :    0.058477
  14 H :    0.058477
  15 H :    0.065208

-------------------------------
LOEWDIN REDUCED ORBITAL CHARGES
-------------------------------
  0 N s       :     3.051502  s :     3.051502
      pz      :     1.193091  p :     3.792141
      px      :     1.401959
      py      :     1.197091
      dz2     :     0.018348  d :     0.076088
      dxz     :     0.012945
      dyz     :     0.025892
      dx2y2   :     0.009244
      dxy     :     0.009657
  1 N s       :     3.051502  s :     3.051502
      pz      :     1.193091  p :     3.792141
      px      :     1.401959
      py      :     1.197091
      dz2     :     0.018348  d :     0.076088
      dxz     :     0.012945
      dyz     :     0.025892
      dx2y2   :     0.009244
      dxy     :     0.009657
  2 C s       :     2.880192  s :     2.880192
      pz      :     0.939141  p :     3.105055
      px      :     1.107918
      py      :     1.057996
      dz2     :     0.054239  d :     0.161402
      dxz     :     0.023070
      dyz     :     0.042591
      dx2y2   :     0.019545
      dxy     :     0.021958
  3 C s       :     2.880192  s :     2.880192
      pz      :     0.939141  p :     3.105055
      px      :     1.107918
      py      :     1.057996
      dz2     :     0.054239  d :     0.161402
      dxz     :     0.023070
      dyz     :     0.042591
      dx2y2   :     0.019545
      dxy     :     0.021958
  4 C s       :     2.835829  s :     2.835829
      pz      :     1.021187  p :     2.889811
      px      :     0.970832
      py      :     0.897792
      dz2     :     0.029508  d :     0.157925
      dxz     :     0.010153
      dyz     :     0.059417
      dx2y2   :     0.023307
      dxy     :     0.035539
  5 Cls       :     5.729707  s :     5.729707
      pz      :     3.479577  p :    10.969493
      px      :     3.886646
      py      :     3.603270
      dz2     :     0.009766  d :     0.053070
      dxz     :     0.007250
      dyz     :     0.025565
      dx2y2   :     0.005299
      dxy     :     0.005189
  6 Cls       :     5.729707  s :     5.729707
      pz      :     3.479577  p :    10.969493
      px      :     3.886646
      py      :     3.603270
      dz2     :     0.009766  d :     0.053070
      dxz     :     0.007250
      dyz     :     0.025565
      dx2y2   :     0.005299
      dxy     :     0.005189
  7 C s       :     2.835714  s :     2.835714
      pz      :     1.071769  p :     3.018455
      px      :     1.106279
      py      :     0.840408
      dz2     :     0.021271  d :     0.090193
      dxz     :     0.006697
      dyz     :     0.014463
      dx2y2   :     0.025494
      dxy     :     0.022267
  8 C s       :     2.835714  s :     2.835714
      pz      :     1.071769  p :     3.018455
      px      :     1.106279
      py      :     0.840408
      dz2     :     0.021271  d :     0.090193
      dxz     :     0.006697
      dyz     :     0.014463
      dx2y2   :     0.025494
      dxy     :     0.022267
  9 H s       :     0.878242  s :     0.878242
      pz      :     0.045232  p :     0.066521
      px      :     0.013174
      py      :     0.008115
 10 H s       :     0.878242  s :     0.878242
      pz      :     0.045232  p :     0.066521
      px      :     0.013174
      py      :     0.008115
 11 H s       :     0.874459  s :     0.874459
      pz      :     0.015568  p :     0.067064
      px      :     0.035149
      py      :     0.016347
 12 H s       :     0.874459  s :     0.874459
      pz      :     0.015568  p :     0.067064
      px      :     0.035149
      py      :     0.016347
 13 H s       :     0.874459  s :     0.874459
      pz      :     0.015568  p :     0.067064
      px      :     0.035149
      py      :     0.016347
 14 H s       :     0.874459  s :     0.874459
      pz      :     0.015568  p :     0.067064
      px      :     0.035149
      py      :     0.016347
 15 H s       :     0.861714  s :     0.861714
      pz      :     0.052128  p :     0.073078
      px      :     0.014416
      py      :     0.006534


                      *****************************
                      * MAYER POPULATION ANALYSIS *
                      *****************************

  NA   - Mulliken gross atomic population
  ZA   - Total nuclear charge
  QA   - Mulliken gross atomic charge
  VA   - Mayer's total valence
  BVA  - Mayer's bonded valence
  FA   - Mayer's free valence

  ATOM       NA         ZA         QA         VA         BVA        FA
  0 N      7.2166     7.0000    -0.2166     3.4873     3.4873    -0.0000
  1 N      7.2166     7.0000    -0.2166     3.4873     3.4873    -0.0000
  2 C      5.8924     6.0000     0.1076     4.0035     4.0035     0.0000
  3 C      5.8924     6.0000     0.1076     4.0035     4.0035    -0.0000
  4 C      5.7879     6.0000     0.2121     3.8714     3.8714    -0.0000
  5 Cl    16.9474    17.0000     0.0526     1.2918     1.2918    -0.0000
  6 Cl    16.9474    17.0000     0.0526     1.2918     1.2918    -0.0000
  7 C      5.9347     6.0000     0.0653     3.8299     3.8299    -0.0000
  8 C      5.9347     6.0000     0.0653     3.8299     3.8299    -0.0000
  9 H      0.9065     1.0000     0.0935     0.9972     0.9972    -0.0000
 10 H      0.9065     1.0000     0.0935     0.9972     0.9972    -0.0000
 11 H      0.8865     1.0000     0.1135     0.9921     0.9921    -0.0000
 12 H      0.8865     1.0000     0.1135     0.9921     0.9921    -0.0000
 13 H      0.8865     1.0000     0.1135     0.9921     0.9921    -0.0000
 14 H      0.8865     1.0000     0.1135     0.9921     0.9921    -0.0000
 15 H      0.8711     1.0000     0.1289     0.9943     0.9943    -0.0000

  Mayer bond orders larger than 0.100000
B(  0-N ,  2-C ) :   1.1669 B(  0-N ,  4-C ) :   1.3496 B(  0-N ,  7-C ) :   0.8764 
B(  1-N ,  3-C ) :   1.1669 B(  1-N ,  4-C ) :   1.3496 B(  1-N ,  8-C ) :   0.8764 
B(  2-C ,  3-C ) :   1.5403 B(  2-C ,  5-Cl) :   1.1804 B(  3-C ,  6-Cl) :   1.1804 
B(  4-C , 15-H ) :   0.9664 B(  7-C ,  9-H ) :   0.9698 B(  7-C , 11-H ) :   0.9701 
B(  7-C , 14-H ) :   0.9701 B(  8-C , 10-H ) :   0.9698 B(  8-C , 12-H ) :   0.9701 
B(  8-C , 13-H ) :   0.9701 

-------
TIMINGS
-------

Total SCF time: 0 days 0 hours 0 min 30 sec 

Total time                  ....      30.038 sec
Sum of individual times     ....      29.774 sec  ( 99.1%)

Fock matrix formation       ....      28.499 sec  ( 94.9%)
  Split-RI-J                ....       1.278 sec  (  4.5% of F)
  Chain of spheres X        ....      24.283 sec  ( 85.2% of F)
  XC integration            ....       2.865 sec  ( 10.1% of F)
    Basis function eval.    ....       0.873 sec  ( 30.5% of XC)
    Density eval.           ....       0.512 sec  ( 17.9% of XC)
    XC-Functional eval.     ....       0.448 sec  ( 15.7% of XC)
    XC-Potential eval.      ....       0.575 sec  ( 20.1% of XC)
Diagonalization             ....       0.037 sec  (  0.1%)
Density matrix formation    ....       0.004 sec  (  0.0%)
Population analysis         ....       0.009 sec  (  0.0%)
Initial guess               ....       0.138 sec  (  0.5%)
Orbital Transformation      ....       0.000 sec  (  0.0%)
Orbital Orthonormalization  ....       0.000 sec  (  0.0%)
DIIS solution               ....       0.023 sec  (  0.1%)
SOSCF solution              ....       0.025 sec  (  0.1%)
Grid generation             ....       1.038 sec  (  3.5%)

Maximum memory used throughout the entire SCF-calculation: 53.6 MB


-------------------------------------------------------------------------------
                          DFT DISPERSION CORRECTION                            
                                                                               
                                 DFTD4 V2.5                                    
-------------------------------------------------------------------------------
The WB97X functional is recognized
Active option DFTDOPT                   ...         5   

Starting D4
-------------------------   ----------------
Dispersion correction           -0.002508357
-------------------------   ----------------


-------------------------   --------------------
FINAL SINGLE POINT ENERGY     -1223.824445628404
-------------------------   --------------------


                            ***************************************
                            *     ORCA property calculations      *
                            ***************************************

                                    ---------------------
                                    Active property flags
                                    ---------------------
   (+) Dipole Moment


------------------------------------------------------------------------------
                       ORCA ELECTRIC PROPERTIES CALCULATION
------------------------------------------------------------------------------

Dipole Moment Calculation                       ... on
Quadrupole Moment Calculation                   ... off
Polarizability Calculation                      ... off
GBWName                                         ... DFT_water_outs/3+-gasSP.gbw
Electron density                                ... DFT_water_outs/3+-gasSP.scfp
The origin for moment calculation is the CENTER OF MASS  = ( 0.000000,  0.000000 -0.181901)

-------------
DIPOLE MOMENT
-------------
                                X             Y             Z
Electronic contribution:      0.00000       0.00000     -13.93011
Nuclear contribution   :      0.00000       0.00000      16.51434
                        -----------------------------------------
Total Dipole Moment    :      0.00000       0.00000       2.58423
                        -----------------------------------------
Magnitude (a.u.)       :      2.58423
Magnitude (Debye)      :      6.56858



--------------------
Rotational spectrum 
--------------------
 
Rotational constants in cm-1:     0.051070     0.036427     0.021438 
Rotational constants in MHz :  1531.045042  1092.041975   642.698411 

 Dipole components along the rotational axes: 
x,y,z [a.u.] :     0.000000     2.584226     0.000000 
x,y,z [Debye]:     0.000001     6.568581     0.000000 

 

Timings for individual modules:

Sum of individual times         ...       31.625 sec (=   0.527 min)
GTO integral calculation        ...        0.778 sec (=   0.013 min)   2.5 %
SCF iterations                  ...       30.846 sec (=   0.514 min)  97.5 %
                             ****ORCA TERMINATED NORMALLY****
TOTAL RUN TIME: 0 days 0 hours 0 minutes 32 seconds 222 msec
