
                                 *****************
                                 * O   R   C   A *
                                 *****************

                                            #,                                       
                                            ###                                      
                                            ####                                     
                                            #####                                    
                                            ######                                   
                                           ########,                                 
                                     ,,################,,,,,                         
                               ,,#################################,,                 
                          ,,##########################################,,             
                       ,#########################################, ''#####,          
                    ,#############################################,,   '####,        
                  ,##################################################,,,,####,       
                ,###########''''           ''''###############################       
              ,#####''   ,,,,##########,,,,          '''####'''          '####       
            ,##' ,,,,###########################,,,                        '##       
           ' ,,###''''                  '''############,,,                           
         ,,##''                                '''############,,,,        ,,,,,,###''
      ,#''                                            '''#######################'''  
     '                                                          ''''####''''         
             ,#######,   #######,   ,#######,      ##                                
            ,#'     '#,  ##    ##  ,#'     '#,    #''#        ######   ,####,        
            ##       ##  ##   ,#'  ##            #'  '#       #        #'  '#        
            ##       ##  #######   ##           ,######,      #####,   #    #        
            '#,     ,#'  ##    ##  '#,     ,#' ,#      #,         ##   #,  ,#        
             '#######'   ##     ##  '#######'  #'      '#     #####' # '####'        



                  #######################################################
                  #                        -***-                        #
                  #          Department of theory and spectroscopy      #
                  #    Directorship and core code : Frank Neese         #
                  #        Max Planck Institute fuer Kohlenforschung    #
                  #                Kaiser Wilhelm Platz 1               #
                  #                 D-45470 Muelheim/Ruhr               #
                  #                      Germany                        #
                  #                                                     #
                  #                  All rights reserved                #
                  #                        -***-                        #
                  #######################################################


                         Program Version 5.0.4 -  RELEASE  -


 With contributions from (in alphabetic order):
   Daniel Aravena         : Magnetic Suceptibility
   Michael Atanasov       : Ab Initio Ligand Field Theory (pilot matlab implementation)
   Alexander A. Auer      : GIAO ZORA, VPT2 properties, NMR spectrum
   Ute Becker             : Parallelization
   Giovanni Bistoni       : ED, misc. LED, open-shell LED, HFLD
   Martin Brehm           : Molecular dynamics
   Dmytro Bykov           : SCF Hessian
   Vijay G. Chilkuri      : MRCI spin determinant printing, contributions to CSF-ICE
   Dipayan Datta          : RHF DLPNO-CCSD density
   Achintya Kumar Dutta   : EOM-CC, STEOM-CC
   Dmitry Ganyushin       : Spin-Orbit,Spin-Spin,Magnetic field MRCI
   Miquel Garcia          : C-PCM and meta-GGA Hessian, CC/C-PCM, Gaussian charge scheme
   Yang Guo               : DLPNO-NEVPT2, F12-NEVPT2, CIM, IAO-localization
   Andreas Hansen         : Spin unrestricted coupled pair/coupled cluster methods
   Benjamin Helmich-Paris : MC-RPA, TRAH-SCF, COSX integrals
   Lee Huntington         : MR-EOM, pCC
   Robert Izsak           : Overlap fitted RIJCOSX, COSX-SCS-MP3, EOM
   Marcus Kettner         : VPT2
   Christian Kollmar      : KDIIS, OOCD, Brueckner-CCSD(T), CCSD density, CASPT2, CASPT2-K
   Simone Kossmann        : Meta GGA functionals, TD-DFT gradient, OOMP2, MP2 Hessian
   Martin Krupicka        : Initial AUTO-CI
   Lucas Lang             : DCDCAS
   Marvin Lechner         : AUTO-CI (C++ implementation), FIC-MRCC
   Dagmar Lenk            : GEPOL surface, SMD
   Dimitrios Liakos       : Extrapolation schemes; Compound Job, initial MDCI parallelization
   Dimitrios Manganas     : Further ROCIS development; embedding schemes
   Dimitrios Pantazis     : SARC Basis sets
   Anastasios Papadopoulos: AUTO-CI, single reference methods and gradients
   Taras Petrenko         : DFT Hessian,TD-DFT gradient, ASA, ECA, R-Raman, ABS, FL, XAS/XES, NRVS
   Peter Pinski           : DLPNO-MP2, DLPNO-MP2 Gradient
   Christoph Reimann      : Effective Core Potentials
   Marius Retegan         : Local ZFS, SOC
   Christoph Riplinger    : Optimizer, TS searches, QM/MM, DLPNO-CCSD(T), (RO)-DLPNO pert. Triples
   Tobias Risthaus        : Range-separated hybrids, TD-DFT gradient, RPA, STAB
   Michael Roemelt        : Original ROCIS implementation
   Masaaki Saitow         : Open-shell DLPNO-CCSD energy and density
   Barbara Sandhoefer     : DKH picture change effects
   Avijit Sen             : IP-ROCIS
   Kantharuban Sivalingam : CASSCF convergence, NEVPT2, FIC-MRCI
   Bernardo de Souza      : ESD, SOC TD-DFT
   Georgi Stoychev        : AutoAux, RI-MP2 NMR, DLPNO-MP2 response
   Willem Van den Heuvel  : Paramagnetic NMR
   Boris Wezisla          : Elementary symmetry handling
   Frank Wennmohs         : Technical directorship


 We gratefully acknowledge several colleagues who have allowed us to
 interface, adapt or use parts of their codes:
   Stefan Grimme, W. Hujo, H. Kruse, P. Pracht,  : VdW corrections, initial TS optimization,
                  C. Bannwarth, S. Ehlert          DFT functionals, gCP, sTDA/sTD-DF
   Ed Valeev, F. Pavosevic, A. Kumar             : LibInt (2-el integral package), F12 methods
   Garnet Chan, S. Sharma, J. Yang, R. Olivares  : DMRG
   Ulf Ekstrom                                   : XCFun DFT Library
   Mihaly Kallay                                 : mrcc  (arbitrary order and MRCC methods)
   Jiri Pittner, Ondrej Demel                    : Mk-CCSD
   Frank Weinhold                                : gennbo (NPA and NBO analysis)
   Christopher J. Cramer and Donald G. Truhlar   : smd solvation model
   Lars Goerigk                                  : TD-DFT with DH, B97 family of functionals
   V. Asgeirsson, H. Jonsson                     : NEB implementation
   FAccTs GmbH                                   : IRC, NEB, NEB-TS, DLPNO-Multilevel, CI-OPT
                                                   MM, QMMM, 2- and 3-layer-ONIOM, Crystal-QMMM,
                                                   LR-CPCM, SF, NACMEs, symmetry and pop. for TD-DFT,
                                                   nearIR, NL-DFT gradient (VV10), updates on ESD,
                                                   ML-optimized integration grids
   S Lehtola, MJT Oliveira, MAL Marques          : LibXC Library
   Liviu Ungur et al                             : ANISO software


 Your calculation uses the libint2 library for the computation of 2-el integrals
 For citations please refer to: http://libint.valeyev.net

 Your ORCA version has been built with support for libXC version: 5.1.0
 For citations please refer to: https://tddft.org/programs/libxc/

 This ORCA versions uses:
   CBLAS   interface :  Fast vector & matrix operations
   LAPACKE interface :  Fast linear algebra routines
   SCALAPACK package :  Parallel linear algebra routines
   Shared memory     :  Shared parallel matrices
   BLAS/LAPACK       :  OpenBLAS 0.3.15  USE64BITINT DYNAMIC_ARCH NO_AFFINITY SkylakeX SINGLE_THREADED
        Core in use  :  SkylakeX
   Copyright (c) 2011-2014, The OpenBLAS Project


Your calculation utilizes the atom-pairwise dispersion correction
based on tight binding partial charges (D4)
Cite in your paper:
E.Caldeweyher, C.Bannwarth, S.Grimme, J.Chem.Phys., (2017), 147, 034112.
E.Caldeweyher, S.Ehlert, A.Hansen, H.Neugebauer, S.Grimme, J.Chem.Phys., (2018), in progress.
   

XCFun DFT library Copyright 2009-2010 Ulf Ekstrom and contributors.
See http://admol.org/xcfun for more information.
This is free software; see the source code for copying conditions.
There is ABSOLUTELY NO WARRANTY; not even for MERCHANTABILITY or FITNESS FOR A PARTICULAR PURPOSE.
For details see the documentation.
Scientific users of this library should cite U. Ekstrom, L. Visscher, R. Bast, A. J. Thorvaldsen and K. Ruud;
J.Chem.Theor.Comp. 2010, DOI: 10.1021/ct100117s
XCFun Version 0.99 

================================================================================

----- Orbital basis set information -----
Your calculation utilizes the basis: def2-SVP
   F. Weigend and R. Ahlrichs, Phys. Chem. Chem. Phys. 7, 3297 (2005).

----- AuxJ basis set information -----
Your calculation utilizes the auxiliary basis: def2/J
   F. Weigend, Phys. Chem. Chem. Phys. 8, 1057 (2006).

================================================================================
                                        WARNINGS
                       Please study these warnings very carefully!
================================================================================


INFO   : the flag for use of the SHARK integral package has been found!

================================================================================
                                       INPUT FILE
================================================================================
NAME = DFT_water_outs/3-gasSP.inp
|  1> ! SP wB97X D4 def2-SVP def2/J defgrid2 
|  2> %maxcore 3000
|  3> %PAL NPROCS 4 END
|  4> * xyz 0 1
|  5> N -0.0 1.0684 1.1124
|  6> N 0.0 -1.0684 1.1124
|  7> C -0.0 0.6785 -0.2132
|  8> C 0.0 -0.6785 -0.2132
|  9> C 0.0 -0.0 1.9551
| 10> Cl -0.0 1.7625 -1.5261
| 11> Cl -0.0 -1.7625 -1.5261
| 12> C -0.0 2.4526 1.5504
| 13> C 0.0 -2.4526 1.5504
| 14> H -0.0 2.4521 2.6463
| 15> H 0.0 -2.4521 2.6463
| 16> H -0.8957 2.9738 1.183
| 17> H -0.8957 -2.9738 1.183
| 18> H 0.8957 -2.9738 1.183
| 19> H 0.8957 2.9738 1.183
| 20> **                         ****END OF INPUT****
================================================================================

                       ****************************
                       * Single Point Calculation *
                       ****************************

---------------------------------
CARTESIAN COORDINATES (ANGSTROEM)
---------------------------------
  N     -0.000000    1.068400    1.112400
  N      0.000000   -1.068400    1.112400
  C     -0.000000    0.678500   -0.213200
  C      0.000000   -0.678500   -0.213200
  C      0.000000   -0.000000    1.955100
  Cl    -0.000000    1.762500   -1.526100
  Cl    -0.000000   -1.762500   -1.526100
  C     -0.000000    2.452600    1.550400
  C      0.000000   -2.452600    1.550400
  H     -0.000000    2.452100    2.646300
  H      0.000000   -2.452100    2.646300
  H     -0.895700    2.973800    1.183000
  H     -0.895700   -2.973800    1.183000
  H      0.895700   -2.973800    1.183000
  H      0.895700    2.973800    1.183000

----------------------------
CARTESIAN COORDINATES (A.U.)
----------------------------
  NO LB      ZA    FRAG     MASS         X           Y           Z
   0 N     7.0000    0    14.007   -0.000000    2.018983    2.102131
   1 N     7.0000    0    14.007    0.000000   -2.018983    2.102131
   2 C     6.0000    0    12.011   -0.000000    1.282179   -0.402890
   3 C     6.0000    0    12.011    0.000000   -1.282179   -0.402890
   4 C     6.0000    0    12.011    0.000000   -0.000000    3.694604
   5 Cl   17.0000    0    35.453   -0.000000    3.330642   -2.883911
   6 Cl   17.0000    0    35.453   -0.000000   -3.330642   -2.883911
   7 C     6.0000    0    12.011   -0.000000    4.634742    2.929831
   8 C     6.0000    0    12.011    0.000000   -4.634742    2.929831
   9 H     1.0000    0     1.008   -0.000000    4.633797    5.000782
  10 H     1.0000    0     1.008    0.000000   -4.633797    5.000782
  11 H     1.0000    0     1.008   -1.692628    5.619668    2.235546
  12 H     1.0000    0     1.008   -1.692628   -5.619668    2.235546
  13 H     1.0000    0     1.008    1.692628   -5.619668    2.235546
  14 H     1.0000    0     1.008    1.692628    5.619668    2.235546

--------------------------------
INTERNAL COORDINATES (ANGSTROEM)
--------------------------------
 N      0   0   0     0.000000000000     0.00000000     0.00000000
 N      1   0   0     2.136800000000     0.00000000     0.00000000
 C      1   2   0     1.381751558711    73.60975765     0.00000000
 C      3   1   2     1.357000000000   106.39024235     0.00000000
 C      1   2   3     1.360743124179    38.26459412   180.00000085
 Cl     3   1   2     1.702575228881   124.06486689   180.00000000
 Cl     4   3   1     1.702575228881   129.54489075   180.00000085
 C      1   2   3     1.451844909073   162.44115675   180.00000085
 C      2   1   3     1.451844909073   162.44115675   180.00000085
 H      8   1   2     1.095900114061   107.53270228     0.00000000
 H      9   2   1     1.095900114061   107.53270228     0.00000000
 H      8   1   2     1.099504747602   110.55688276   240.46330423
 H      9   2   1     1.099504747602   110.55688276   119.53669577
 H      9   2   1     1.099504747602   110.55688276   240.46330423
 H      8   1   2     1.099504747602   110.55688276   119.53669577

---------------------------
INTERNAL COORDINATES (A.U.)
---------------------------
 N      0   0   0     0.000000000000     0.00000000     0.00000000
 N      1   0   0     4.037966802963     0.00000000     0.00000000
 C      1   2   0     2.611132031082    73.60975765     0.00000000
 C      3   1   2     2.564358363731   106.39024235     0.00000000
 C      1   2   3     2.571431843314    38.26459412   180.00000085
 Cl     3   1   2     3.217400904984   124.06486689   180.00000000
 Cl     4   3   1     3.217400904984   129.54489075   180.00000085
 C      1   2   3     2.743589267075   162.44115675   180.00000085
 C      2   1   3     2.743589267075   162.44115675   180.00000085
 H      8   1   2     2.070951085709   107.53270228     0.00000000
 H      9   2   1     2.070951085709   107.53270228     0.00000000
 H      8   1   2     2.077762855915   110.55688276   240.46330423
 H      9   2   1     2.077762855915   110.55688276   119.53669577
 H      9   2   1     2.077762855915   110.55688276   240.46330423
 H      8   1   2     2.077762855915   110.55688276   119.53669577

---------------------
BASIS SET INFORMATION
---------------------
There are 4 groups of distinct atoms

 Group   1 Type N   : 7s4p1d contracted to 3s2p1d pattern {511/31/1}
 Group   2 Type C   : 7s4p1d contracted to 3s2p1d pattern {511/31/1}
 Group   3 Type Cl  : 10s7p1d contracted to 4s3p1d pattern {5311/511/1}
 Group   4 Type H   : 4s1p contracted to 2s1p pattern {31/1}

Atom   0N    basis set group =>   1
Atom   1N    basis set group =>   1
Atom   2C    basis set group =>   2
Atom   3C    basis set group =>   2
Atom   4C    basis set group =>   2
Atom   5Cl   basis set group =>   3
Atom   6Cl   basis set group =>   3
Atom   7C    basis set group =>   2
Atom   8C    basis set group =>   2
Atom   9H    basis set group =>   4
Atom  10H    basis set group =>   4
Atom  11H    basis set group =>   4
Atom  12H    basis set group =>   4
Atom  13H    basis set group =>   4
Atom  14H    basis set group =>   4
---------------------------------
AUXILIARY/J BASIS SET INFORMATION
---------------------------------
There are 4 groups of distinct atoms

 Group   1 Type N   : 12s5p4d2f1g contracted to 6s4p3d1f1g pattern {711111/2111/211/2/1}
 Group   2 Type C   : 12s5p4d2f1g contracted to 6s4p3d1f1g pattern {711111/2111/211/2/1}
 Group   3 Type Cl  : 14s5p5d2f1g contracted to 8s4p3d1f1g pattern {71111111/2111/311/2/1}
 Group   4 Type H   : 5s2p1d contracted to 3s1p1d pattern {311/2/1}

Atom   0N    basis set group =>   1
Atom   1N    basis set group =>   1
Atom   2C    basis set group =>   2
Atom   3C    basis set group =>   2
Atom   4C    basis set group =>   2
Atom   5Cl   basis set group =>   3
Atom   6Cl   basis set group =>   3
Atom   7C    basis set group =>   2
Atom   8C    basis set group =>   2
Atom   9H    basis set group =>   4
Atom  10H    basis set group =>   4
Atom  11H    basis set group =>   4
Atom  12H    basis set group =>   4
Atom  13H    basis set group =>   4
Atom  14H    basis set group =>   4


           ************************************************************
           *        Program running with 4 parallel MPI-processes     *
           *              working on a common directory               *
           ************************************************************
------------------------------------------------------------------------------
                           ORCA GTO INTEGRAL CALCULATION
                           -- RI-GTO INTEGRALS CHOSEN --
------------------------------------------------------------------------------
------------------------------------------------------------------------------
                   ___                                                        
                  /   \      - P O W E R E D   B Y -                         
                 /     \                                                     
                 |  |  |   _    _      __       _____    __    __             
                 |  |  |  | |  | |    /  \     |  _  \  |  |  /  |          
                  \  \/   | |  | |   /    \    | | | |  |  | /  /          
                 / \  \   | |__| |  /  /\  \   | |_| |  |  |/  /          
                |  |  |   |  __  | /  /__\  \  |    /   |      \           
                |  |  |   | |  | | |   __   |  |    \   |  |\   \          
                \     /   | |  | | |  |  |  |  | |\  \  |  | \   \       
                 \___/    |_|  |_| |__|  |__|  |_| \__\ |__|  \__/        
                                                                              
                      - O R C A' S   B I G   F R I E N D -                    
                                      &                                       
                       - I N T E G R A L  F E E D E R -                       
                                                                              
 v1 FN, 2020, v2 2021                                                         
------------------------------------------------------------------------------


Reading SHARK input file DFT_water_outs/3-gasSP.SHARKINP.tmp ... ok
----------------------
SHARK INTEGRAL PACKAGE
----------------------

Number of atoms                             ...     15
Number of basis functions                   ...    164
Number of shells                            ...     76
Maximum angular momentum                    ...      2
Integral batch strategy                     ... SHARK/LIBINT Hybrid
RI-J (if used) integral strategy            ... SPLIT-RIJ (Revised 2003 algorithm where possible)
Printlevel                                  ...      1
Contraction scheme used                     ... SEGMENTED contraction
Coulomb Range Separation                    ... NOT USED
Exchange Range Separation                   ... Long Range
   Mu parameter                             ...  0.300000
   Scaling (regular/separated)              ...  0.157706  0.842294
Finite Nucleus Model                        ... NOT USED
Auxiliary Coulomb fitting basis             ... AVAILABLE
   # of basis functions in Aux-J            ...    511
   # of shells in Aux-J                     ...    169
   Maximum angular momentum in Aux-J        ...      4
Auxiliary J/K fitting basis                 ... NOT available
Auxiliary Correlation fitting basis         ... NOT available
Auxiliary 'external' fitting basis          ... NOT available
Integral threshold                          ...     1.000000e-10
Primitive cut-off                           ...     1.000000e-11
Primitive pair pre-selection threshold      ...     1.000000e-11

Calculating pre-screening integrals         ... done (  0.0 sec) Dimension = 76
Organizing shell pair data                  ... done (  0.0 sec)
Shell pair information
Total number of shell pairs                 ...      2926
Shell pairs after pre-screening             ...      2617
Total number of primitive shell pairs       ...     11480
Primitive shell pairs kept                  ...      7189
          la=0 lb=0:    769 shell pairs
          la=1 lb=0:    948 shell pairs
          la=1 lb=1:    315 shell pairs
          la=2 lb=0:    329 shell pairs
          la=2 lb=1:    214 shell pairs
          la=2 lb=2:     42 shell pairs

Calculating one electron integrals          ... done (  0.0 sec)
Calculating RI/J V-Matrix + Cholesky decomp.... done (  0.0 sec)
Calculating Nuclear repulsion               ... done (  0.0 sec) ENN=    605.817785923326 Eh

SHARK setup successfully completed in   0.2 seconds

Maximum memory used throughout the entire GTOINT-calculation: 11.4 MB


           ************************************************************
           *        Program running with 4 parallel MPI-processes     *
           *              working on a common directory               *
           ************************************************************
-------------------------------------------------------------------------------
                                 ORCA SCF
-------------------------------------------------------------------------------

------------
SCF SETTINGS
------------
Hamiltonian:
 Density Functional     Method          .... DFT(GTOs)
 Exchange Functional    Exchange        .... WB97X
 Correlation Functional Correlation     .... WB97X
 Gradients option       PostSCFGGA      .... off
 Hybrid DFT is turned on
   Fraction HF Exchange ScalHFX         ....  0.157706
   Scaling of DF-GGA-X  ScalDFX         ....  0.000000
   Scaling of DF-GGA-C  ScalDFC         ....  1.000000
   Scaling of DF-LDA-C  ScalLDAC        ....  1.000000
   Perturbative correction              ....  0.000000
   Density functional embedding theory  .... OFF
 Long-range corrected/Screened/Range-Separated Hybrid DFT is turned on
   Amount of maximum screened exact exchange              ....  0.842294
   Range separation parameter mu (erf(mu*r12)/r12)        ....  0.300000
 RI-approximation to the Coulomb term is turned on
   Number of AuxJ basis functions       .... 511
   RIJ-COSX (HFX calculated with COS-X)).... on


General Settings:
 Integral files         IntName         .... DFT_water_outs/3-gasSP
 Hartree-Fock type      HFTyp           .... RHF
 Total Charge           Charge          ....    0
 Multiplicity           Mult            ....    1
 Number of Electrons    NEL             ....   84
 Basis Dimension        Dim             ....  164
 Nuclear Repulsion      ENuc            ....    605.8177859233 Eh

Convergence Acceleration:
 DIIS                   CNVDIIS         .... on
   Start iteration      DIISMaxIt       ....    12
   Startup error        DIISStart       ....  0.200000
   # of expansion vecs  DIISMaxEq       ....     5
   Bias factor          DIISBfac        ....   1.050
   Max. coefficient     DIISMaxC        ....  10.000
 Trust-Rad. Augm. Hess. CNVTRAH         .... auto
   Auto Start mean grad. ratio tolernc. ....  1.125000
   Auto Start start iteration           ....    20
   Auto Start num. interpolation iter.  ....    10
   Max. Number of Micro iterations      ....    16
   Max. Number of Macro iterations      .... Maxiter - #DIIS iter
   Number of Davidson start vectors     ....     2
   Converg. threshold I  (grad. norm)   ....   5.000e-05
   Converg. threshold II (energy diff.) ....   1.000e-06
   Grad. Scal. Fac. for Micro threshold ....   0.100
   Minimum threshold for Micro iter.    ....   0.010
   NR start threshold (gradient norm)   ....   0.001
   Initial trust radius                 ....   0.400
   Minimum AH scaling param. (alpha)    ....   1.000
   Maximum AH scaling param. (alpha)    .... 1000.000
   Orbital update algorithm             .... Taylor
   White noise on init. David. guess    .... on
   Maximum white noise                  ....   0.010
   Quad. conv. algorithm                .... NR
 SOSCF                  CNVSOSCF        .... on
   Start iteration      SOSCFMaxIt      ....   150
   Startup grad/error   SOSCFStart      ....  0.003300
 Level Shifting         CNVShift        .... on
   Level shift para.    LevelShift      ....    0.2500
   Turn off err/grad.   ShiftErr        ....    0.0010
 Zerner damping         CNVZerner       .... off
 Static damping         CNVDamp         .... on
   Fraction old density DampFac         ....    0.7000
   Max. Damping (<1)    DampMax         ....    0.9800
   Min. Damping (>=0)   DampMin         ....    0.0000
   Turn off err/grad.   DampErr         ....    0.1000
 Fernandez-Rico         CNVRico         .... off

SCF Procedure:
 Maximum # iterations   MaxIter         ....   125
 SCF integral mode      SCFMode         .... Direct
   Integral package                     .... SHARK and LIBINT hybrid scheme
 Reset frequency        DirectResetFreq ....    20
 Integral Threshold     Thresh          ....  1.000e-10 Eh
 Primitive CutOff       TCut            ....  1.000e-11 Eh

Convergence Tolerance:
 Convergence Check Mode ConvCheckMode   .... Total+1el-Energy
 Convergence forced     ConvForced      .... 0
 Energy Change          TolE            ....  1.000e-06 Eh
 1-El. energy change                    ....  1.000e-03 Eh
 Orbital Gradient       TolG            ....  5.000e-05
 Orbital Rotation angle TolX            ....  5.000e-05
 DIIS Error             TolErr          ....  1.000e-06


Diagonalization of the overlap matrix:
Smallest eigenvalue                        ... 8.768e-04
Time for diagonalization                   ...    0.006 sec
Threshold for overlap eigenvalues          ... 1.000e-08
Number of eigenvalues below threshold      ... 0
Time for construction of square roots      ...    0.003 sec
Total time needed                          ...    0.010 sec

Time for model grid setup =    0.133 sec

------------------------------
INITIAL GUESS: MODEL POTENTIAL
------------------------------
Loading Hartree-Fock densities                     ... done
Calculating cut-offs                               ... done
Initializing the effective Hamiltonian             ... done
Setting up the integral package (SHARK)            ... done
Starting the Coulomb interaction                   ... done (   0.1 sec)
Reading the grid                                   ... done
Mapping shells                                     ... done
Starting the XC term evaluation                    ... done (   0.1 sec)
  promolecular density results
     # of electrons  =     83.995738516
     EX              =    -95.244808209
     EC              =     -3.022317502
     EX+EC           =    -98.267125711
Transforming the Hamiltonian                       ... done (   0.0 sec)
Diagonalizing the Hamiltonian                      ... done (   0.0 sec)
Back transforming the eigenvectors                 ... done (   0.0 sec)
Now organizing SCF variables                       ... done
                      ------------------
                      INITIAL GUESS DONE (   0.4 sec)
                      ------------------
-------------------
DFT GRID GENERATION
-------------------

General Integration Accuracy     IntAcc      ... 4.388
Radial Grid Type                 RadialGrid  ... OptM3 with GC (2021)
Angular Grid (max. ang.)         AngularGrid ... 4 (Lebedev-302)
Angular grid pruning method      GridPruning ... 4 (adaptive)
Weight generation scheme         WeightScheme... Becke
Basis function cutoff            BFCut       ... 1.0000e-10
Integration weight cutoff        WCut        ... 1.0000e-14
Angular grids for H and He will be reduced by one unit
Partially contracted basis set               ... off
Rotationally invariant grid construction     ... off

Total number of grid points                  ...    76127
Total number of batches                      ...     1197
Average number of points per batch           ...       63
Average number of grid points per atom       ...     5075
Time for grid setup =    0.689 sec

--------------------
COSX GRID GENERATION
--------------------

GRIDX 1
-------
General Integration Accuracy     IntAcc      ... 3.816
Radial Grid Type                 RadialGrid  ... OptM3 with GC (2021)
Angular Grid (max. ang.)         AngularGrid ... 1 (Lebedev-50)
Angular grid pruning method      GridPruning ... 4 (adaptive)
Weight generation scheme         WeightScheme... Becke
Basis function cutoff            BFCut       ... 1.0000e-10
Integration weight cutoff        WCut        ... 1.0000e-14
Angular grids for H and He will be reduced by one unit
Partially contracted basis set               ... on
Rotationally invariant grid construction     ... off

Total number of grid points                  ...     9535
Total number of batches                      ...      158
Average number of points per batch           ...       60
Average number of grid points per atom       ...      636
UseSFitting                                  ... on

GRIDX 2
-------
General Integration Accuracy     IntAcc      ... 4.020
Radial Grid Type                 RadialGrid  ... OptM3 with GC (2021)
Angular Grid (max. ang.)         AngularGrid ... 2 (Lebedev-110)
Angular grid pruning method      GridPruning ... 4 (adaptive)
Weight generation scheme         WeightScheme... Becke
Basis function cutoff            BFCut       ... 1.0000e-10
Integration weight cutoff        WCut        ... 1.0000e-14
Angular grids for H and He will be reduced by one unit
Partially contracted basis set               ... on
Rotationally invariant grid construction     ... off

Total number of grid points                  ...    21097
Total number of batches                      ...      337
Average number of points per batch           ...       62
Average number of grid points per atom       ...     1406
UseSFitting                                  ... on

GRIDX 3
-------
General Integration Accuracy     IntAcc      ... 4.338
Radial Grid Type                 RadialGrid  ... OptM3 with GC (2021)
Angular Grid (max. ang.)         AngularGrid ... 3 (Lebedev-194)
Angular grid pruning method      GridPruning ... 4 (adaptive)
Weight generation scheme         WeightScheme... Becke
Basis function cutoff            BFCut       ... 1.0000e-10
Integration weight cutoff        WCut        ... 1.0000e-14
Angular grids for H and He will be reduced by one unit
Partially contracted basis set               ... on
Rotationally invariant grid construction     ... off

Total number of grid points                  ...    47599
Total number of batches                      ...      751
Average number of points per batch           ...       63
Average number of grid points per atom       ...     3173
UseSFitting                                  ... on

Time for X-Grid setup             =    0.445 sec

--------------
SCF ITERATIONS
--------------
ITER       Energy         Delta-E        Max-DP      RMS-DP      [F,P]     Damp
               ***  Starting incremental Fock matrix formation  ***
  0  -1223.2867190467   0.000000000000 0.08471234  0.00153279  0.1197324 0.7000
  1  -1223.3317223694  -0.045003322680 0.07312956  0.00119170  0.0750001 0.7000
                               ***Turning on DIIS***
  2  -1223.3562325842  -0.024510214800 0.16463075  0.00250478  0.0412680 0.0000
  3  -1223.3978471166  -0.041614532361 0.02772003  0.00077461  0.0240275 0.0000
  4  -1223.4032794435  -0.005432326865 0.00482716  0.00020565  0.0034354 0.0000
                      *** Initiating the SOSCF procedure ***
                           *** Shutting down DIIS ***
                      *** Re-Reading the Fockian *** 
                      *** Removing any level shift *** 
ITER      Energy       Delta-E        Grad      Rot      Max-DP    RMS-DP
  5  -1223.40347441  -0.0001949675  0.001898  0.001898  0.003714  0.000093
               *** Restarting incremental Fock matrix formation ***
  6  -1223.40357832  -0.0001039138  0.001037  0.002330  0.001610  0.000067
  7  -1223.40359521  -0.0000168888  0.000564  0.002439  0.001658  0.000051
  8  -1223.40359852  -0.0000033015  0.000148  0.000278  0.001011  0.000013
  9  -1223.40359925  -0.0000007397  0.000047  0.000093  0.000204  0.000004
                 **** Energy Check signals convergence ****
              ***Rediagonalizing the Fockian in SOSCF/NRSCF***

               *****************************************************
               *                     SUCCESS                       *
               *           SCF CONVERGED AFTER  10 CYCLES          *
               *****************************************************

Old exchange energy                            =    -26.392916660 Eh
New exchange energy                            =    -26.392918563 Eh
Exchange energy change after final integration =     -0.000001903 Eh
Total energy after final integration           =  -1223.403601211 Eh
Final COS-X integration done in                =     5.625 sec

----------------
TOTAL SCF ENERGY
----------------

Total Energy       :        -1223.40360121 Eh          -33290.50445 eV

Components:
Nuclear Repulsion  :          605.81778592 Eh           16485.14004 eV
Electronic Energy  :        -1829.22138713 Eh          -49775.64449 eV
One Electron Energy:        -2883.33933464 Eh          -78459.65211 eV
Two Electron Energy:         1054.11794751 Eh           28684.00762 eV
Max COSX asymmetry :            0.00000212 Eh               0.00006 eV

Virial components:
Potential Energy   :        -2441.64065476 Eh          -66440.41998 eV
Kinetic Energy     :         1218.23705355 Eh           33149.91554 eV
Virial Ratio       :            2.00424100


DFT components:
N(Alpha)           :       41.999980079379 electrons
N(Beta)            :       41.999980079379 electrons
N(Total)           :       83.999960158757 electrons
E(XC)              :      -73.198391309717 Eh       
DFET-embed. en.    :        0.000000000000 Eh       

---------------
SCF CONVERGENCE
---------------

  Last Energy change         ...   -5.2888e-08  Tolerance :   1.0000e-06
  Last MAX-Density change    ...    5.3291e-15  Tolerance :   1.0000e-05
  Last RMS-Density change    ...    7.5291e-17  Tolerance :   1.0000e-06
  Last Orbital Gradient      ...    1.5463e-05  Tolerance :   5.0000e-05
  Last Orbital Rotation      ...    3.9179e-05  Tolerance :   5.0000e-05

             **** THE GBW FILE WAS UPDATED (DFT_water_outs/3-gasSP.gbw) ****
             **** DENSITY DFT_water_outs/3-gasSP.scfp WAS UPDATED ****
             **** ENERGY FILE WAS UPDATED (DFT_water_outs/3-gasSP.en.tmp) ****
             **** THE GBW FILE WAS UPDATED (DFT_water_outs/3-gasSP.gbw) ****
             **** DENSITY DFT_water_outs/3-gasSP.scfp WAS UPDATED ****
----------------
ORBITAL ENERGIES
----------------

  NO   OCC          E(Eh)            E(eV) 
   0   2.0000    -101.501060     -2761.9843 
   1   2.0000    -101.501045     -2761.9839 
   2   2.0000     -14.468236      -393.7007 
   3   2.0000     -14.468230      -393.7005 
   4   2.0000     -10.359233      -281.8891 
   5   2.0000     -10.358656      -281.8734 
   6   2.0000     -10.315614      -280.7021 
   7   2.0000     -10.315586      -280.7014 
   8   2.0000     -10.286279      -279.9039 
   9   2.0000      -9.573632      -260.5118 
  10   2.0000      -9.573611      -260.5112 
  11   2.0000      -7.342688      -199.8047 
  12   2.0000      -7.342683      -199.8046 
  13   2.0000      -7.331394      -199.4974 
  14   2.0000      -7.331383      -199.4971 
  15   2.0000      -7.331369      -199.4967 
  16   2.0000      -7.331365      -199.4966 
  17   2.0000      -1.175065       -31.9751 
  18   2.0000      -1.066555       -29.0224 
  19   2.0000      -1.024052       -27.8659 
  20   2.0000      -0.989762       -26.9328 
  21   2.0000      -0.905357       -24.6360 
  22   2.0000      -0.834441       -22.7063 
  23   2.0000      -0.812464       -22.1083 
  24   2.0000      -0.714661       -19.4469 
  25   2.0000      -0.709048       -19.2942 
  26   2.0000      -0.640057       -17.4168 
  27   2.0000      -0.615571       -16.7505 
  28   2.0000      -0.580833       -15.8053 
  29   2.0000      -0.567509       -15.4427 
  30   2.0000      -0.566886       -15.4258 
  31   2.0000      -0.558395       -15.1947 
  32   2.0000      -0.519764       -14.1435 
  33   2.0000      -0.516435       -14.0529 
  34   2.0000      -0.500377       -13.6159 
  35   2.0000      -0.468510       -12.7488 
  36   2.0000      -0.458893       -12.4871 
  37   2.0000      -0.446388       -12.1468 
  38   2.0000      -0.442755       -12.0480 
  39   2.0000      -0.382276       -10.4023 
  40   2.0000      -0.320395        -8.7184 
  41   2.0000      -0.317624        -8.6430 
  42   0.0000       0.104642         2.8475 
  43   0.0000       0.127559         3.4711 
  44   0.0000       0.128796         3.5047 
  45   0.0000       0.164159         4.4670 
  46   0.0000       0.168287         4.5793 
  47   0.0000       0.175722         4.7816 
  48   0.0000       0.212558         5.7840 
  49   0.0000       0.214474         5.8361 
  50   0.0000       0.224929         6.1206 
  51   0.0000       0.232639         6.3304 
  52   0.0000       0.241129         6.5614 
  53   0.0000       0.266951         7.2641 
  54   0.0000       0.314167         8.5489 
  55   0.0000       0.336514         9.1570 
  56   0.0000       0.353158         9.6099 
  57   0.0000       0.424988        11.5645 
  58   0.0000       0.429155        11.6779 
  59   0.0000       0.455079        12.3833 
  60   0.0000       0.474378        12.9085 
  61   0.0000       0.491816        13.3830 
  62   0.0000       0.533125        14.5071 
  63   0.0000       0.546219        14.8634 
  64   0.0000       0.547261        14.8917 
  65   0.0000       0.571131        15.5413 
  66   0.0000       0.590492        16.0681 
  67   0.0000       0.620187        16.8761 
  68   0.0000       0.631585        17.1863 
  69   0.0000       0.673808        18.3352 
  70   0.0000       0.678856        18.4726 
  71   0.0000       0.684639        18.6300 
  72   0.0000       0.692213        18.8361 
  73   0.0000       0.696637        18.9565 
  74   0.0000       0.732842        19.9417 
  75   0.0000       0.749420        20.3928 
  76   0.0000       0.751528        20.4501 
  77   0.0000       0.752190        20.4681 
  78   0.0000       0.755399        20.5554 
  79   0.0000       0.764845        20.8125 
  80   0.0000       0.772194        21.0125 
  81   0.0000       0.779825        21.2201 
  82   0.0000       0.808400        21.9977 
  83   0.0000       0.818712        22.2783 
  84   0.0000       0.827668        22.5220 
  85   0.0000       0.860919        23.4268 
  86   0.0000       0.861626        23.4460 
  87   0.0000       0.867035        23.5932 
  88   0.0000       0.868975        23.6460 
  89   0.0000       0.877534        23.8789 
  90   0.0000       0.877873        23.8881 
  91   0.0000       0.936752        25.4903 
  92   0.0000       0.952343        25.9146 
  93   0.0000       0.955638        26.0042 
  94   0.0000       0.956979        26.0407 
  95   0.0000       1.000911        27.2362 
  96   0.0000       1.039706        28.2918 
  97   0.0000       1.041617        28.3438 
  98   0.0000       1.043392        28.3921 
  99   0.0000       1.068225        29.0679 
 100   0.0000       1.128399        30.7053 
 101   0.0000       1.152324        31.3563 
 102   0.0000       1.163650        31.6645 
 103   0.0000       1.209086        32.9009 
 104   0.0000       1.258920        34.2570 
 105   0.0000       1.283746        34.9325 
 106   0.0000       1.328686        36.1554 
 107   0.0000       1.335824        36.3496 
 108   0.0000       1.340785        36.4846 
 109   0.0000       1.397755        38.0348 
 110   0.0000       1.501845        40.8673 
 111   0.0000       1.509374        41.0721 
 112   0.0000       1.554606        42.3030 
 113   0.0000       1.609159        43.7874 
 114   0.0000       1.620059        44.0841 
 115   0.0000       1.620882        44.1064 
 116   0.0000       1.626778        44.2669 
 117   0.0000       1.649781        44.8928 
 118   0.0000       1.665036        45.3079 
 119   0.0000       1.734865        47.2081 
 120   0.0000       1.743887        47.4536 
 121   0.0000       1.750706        47.6391 
 122   0.0000       1.875088        51.0237 
 123   0.0000       1.878940        51.1286 
 124   0.0000       1.879137        51.1339 
 125   0.0000       1.912394        52.0389 
 126   0.0000       1.927478        52.4493 
 127   0.0000       1.938033        52.7366 
 128   0.0000       1.944930        52.9242 
 129   0.0000       1.992913        54.2299 
 130   0.0000       2.068225        56.2793 
 131   0.0000       2.086702        56.7820 
 132   0.0000       2.111388        57.4538 
 133   0.0000       2.146583        58.4115 
 134   0.0000       2.146701        58.4147 
 135   0.0000       2.180552        59.3358 
 136   0.0000       2.193844        59.6975 
 137   0.0000       2.246469        61.1295 
 138   0.0000       2.268435        61.7273 
 139   0.0000       2.347731        63.8850 
 140   0.0000       2.358821        64.1868 
 141   0.0000       2.372479        64.5584 
 142   0.0000       2.424236        65.9668 
 143   0.0000       2.430289        66.1315 
 144   0.0000       2.484779        67.6143 
 145   0.0000       2.498294        67.9820 
 146   0.0000       2.570688        69.9520 
 147   0.0000       2.592778        70.5531 
 148   0.0000       2.741449        74.5986 
 149   0.0000       2.743702        74.6599 
 150   0.0000       2.774318        75.4930 
 151   0.0000       2.829615        76.9977 
 152   0.0000       2.831210        77.0411 
 153   0.0000       2.851682        77.5982 
 154   0.0000       2.914291        79.3019 
 155   0.0000       2.944173        80.1150 
 156   0.0000       3.029258        82.4303 
 157   0.0000       3.029385        82.4338 
 158   0.0000       3.037333        82.6500 
 159   0.0000       3.080222        83.8171 
 160   0.0000       3.223785        87.7237 
 161   0.0000       3.278447        89.2111 
 162   0.0000       3.377768        91.9137 
 163   0.0000       3.419346        93.0451 

                    ********************************
                    * MULLIKEN POPULATION ANALYSIS *
                    ********************************

-----------------------
MULLIKEN ATOMIC CHARGES
-----------------------
   0 N :   -0.245039
   1 N :   -0.245040
   2 C :    0.086585
   3 C :    0.086583
   4 C :   -0.102394
   5 Cl:   -0.062125
   6 Cl:   -0.062125
   7 C :    0.106031
   8 C :    0.106030
   9 H :    0.066192
  10 H :    0.066192
  11 H :    0.049778
  12 H :    0.049778
  13 H :    0.049778
  14 H :    0.049778
Sum of atomic charges:   -0.0000000

--------------------------------
MULLIKEN REDUCED ORBITAL CHARGES
--------------------------------
  0 N s       :     3.401890  s :     3.401890
      pz      :     1.102093  p :     3.810303
      px      :     1.536220
      py      :     1.171990
      dz2     :     0.009493  d :     0.032846
      dxz     :     0.005535
      dyz     :     0.008312
      dx2y2   :     0.005093
      dxy     :     0.004414
  1 N s       :     3.401891  s :     3.401891
      pz      :     1.102094  p :     3.810303
      px      :     1.536219
      py      :     1.171990
      dz2     :     0.009493  d :     0.032846
      dxz     :     0.005535
      dyz     :     0.008312
      dx2y2   :     0.005093
      dxy     :     0.004414
  2 C s       :     3.020752  s :     3.020752
      pz      :     0.764534  p :     2.823102
      px      :     1.139306
      py      :     0.919262
      dz2     :     0.020151  d :     0.069562
      dxz     :     0.011829
      dyz     :     0.018872
      dx2y2   :     0.007085
      dxy     :     0.011624
  3 C s       :     3.020753  s :     3.020753
      pz      :     0.764534  p :     2.823103
      px      :     1.139306
      py      :     0.919263
      dz2     :     0.020151  d :     0.069562
      dxz     :     0.011829
      dyz     :     0.018872
      dx2y2   :     0.007085
      dxy     :     0.011624
  4 C s       :     3.638828  s :     3.638828
      pz      :     1.103004  p :     2.396463
      px      :     0.657612
      py      :     0.635847
      dz2     :     0.008926  d :     0.067104
      dxz     :     0.010171
      dyz     :     0.029237
      dx2y2   :     0.007081
      dxy     :     0.011689
  5 Cls       :     5.937348  s :     5.937348
      pz      :     3.513748  p :    11.082774
      px      :     3.931788
      py      :     3.637238
      dz2     :     0.007879  d :     0.042004
      dxz     :     0.006517
      dyz     :     0.018587
      dx2y2   :     0.004219
      dxy     :     0.004801
  6 Cls       :     5.937348  s :     5.937348
      pz      :     3.513748  p :    11.082773
      px      :     3.931788
      py      :     3.637238
      dz2     :     0.007879  d :     0.042004
      dxz     :     0.006517
      dyz     :     0.018587
      dx2y2   :     0.004219
      dxy     :     0.004801
  7 C s       :     2.994454  s :     2.994454
      pz      :     1.043757  p :     2.861175
      px      :     1.030178
      py      :     0.787239
      dz2     :     0.008236  d :     0.038340
      dxz     :     0.002976
      dyz     :     0.006200
      dx2y2   :     0.009841
      dxy     :     0.011088
  8 C s       :     2.994454  s :     2.994454
      pz      :     1.043757  p :     2.861175
      px      :     1.030178
      py      :     0.787240
      dz2     :     0.008236  d :     0.038340
      dxz     :     0.002976
      dyz     :     0.006200
      dx2y2   :     0.009841
      dxy     :     0.011088
  9 H s       :     0.910639  s :     0.910639
      pz      :     0.016012  p :     0.023169
      px      :     0.004691
      py      :     0.002466
 10 H s       :     0.910639  s :     0.910639
      pz      :     0.016012  p :     0.023169
      px      :     0.004691
      py      :     0.002466
 11 H s       :     0.927244  s :     0.927244
      pz      :     0.005751  p :     0.022978
      px      :     0.011992
      py      :     0.005235
 12 H s       :     0.927243  s :     0.927243
      pz      :     0.005751  p :     0.022978
      px      :     0.011992
      py      :     0.005235
 13 H s       :     0.927243  s :     0.927243
      pz      :     0.005751  p :     0.022979
      px      :     0.011992
      py      :     0.005235
 14 H s       :     0.927244  s :     0.927244
      pz      :     0.005751  p :     0.022978
      px      :     0.011992
      py      :     0.005235


                     *******************************
                     * LOEWDIN POPULATION ANALYSIS *
                     *******************************

----------------------
LOEWDIN ATOMIC CHARGES
----------------------
   0 N :    0.009155
   1 N :    0.009155
   2 C :   -0.179555
   3 C :   -0.179555
   4 C :   -0.233957
   5 Cl:    0.156821
   6 Cl:    0.156821
   7 C :    0.030745
   8 C :    0.030745
   9 H :    0.042912
  10 H :    0.042912
  11 H :    0.028450
  12 H :    0.028450
  13 H :    0.028450
  14 H :    0.028450

-------------------------------
LOEWDIN REDUCED ORBITAL CHARGES
-------------------------------
  0 N s       :     3.065825  s :     3.065825
      pz      :     1.186235  p :     3.848776
      px      :     1.463750
      py      :     1.198792
      dz2     :     0.024568  d :     0.076243
      dxz     :     0.010958
      dyz     :     0.023215
      dx2y2   :     0.010506
      dxy     :     0.006996
  1 N s       :     3.065825  s :     3.065825
      pz      :     1.186235  p :     3.848776
      px      :     1.463750
      py      :     1.198792
      dz2     :     0.024568  d :     0.076243
      dxz     :     0.010958
      dyz     :     0.023215
      dx2y2   :     0.010506
      dxy     :     0.006996
  2 C s       :     2.887241  s :     2.887241
      pz      :     0.936824  p :     3.131650
      px      :     1.144941
      py      :     1.049884
      dz2     :     0.052099  d :     0.160663
      dxz     :     0.023059
      dyz     :     0.043254
      dx2y2   :     0.018880
      dxy     :     0.023372
  3 C s       :     2.887242  s :     2.887242
      pz      :     0.936824  p :     3.131650
      px      :     1.144941
      py      :     1.049885
      dz2     :     0.052099  d :     0.160663
      dxz     :     0.023059
      dyz     :     0.043254
      dx2y2   :     0.018880
      dxy     :     0.023372
  4 C s       :     3.215851  s :     3.215851
      pz      :     1.353489  p :     2.874734
      px      :     0.715521
      py      :     0.805725
      dz2     :     0.014170  d :     0.143371
      dxz     :     0.014241
      dyz     :     0.067213
      dx2y2   :     0.021988
      dxy     :     0.025759
  5 Cls       :     5.732113  s :     5.732113
      pz      :     3.515392  p :    11.061422
      px      :     3.910382
      py      :     3.635647
      dz2     :     0.009347  d :     0.049644
      dxz     :     0.007571
      dyz     :     0.022329
      dx2y2   :     0.004735
      dxy     :     0.005662
  6 Cls       :     5.732113  s :     5.732113
      pz      :     3.515393  p :    11.061422
      px      :     3.910382
      py      :     3.635647
      dz2     :     0.009347  d :     0.049644
      dxz     :     0.007571
      dyz     :     0.022329
      dx2y2   :     0.004735
      dxy     :     0.005662
  7 C s       :     2.833038  s :     2.833038
      pz      :     1.077001  p :     3.041413
      px      :     1.080137
      py      :     0.884275
      dz2     :     0.021952  d :     0.094804
      dxz     :     0.006713
      dyz     :     0.014319
      dx2y2   :     0.023233
      dxy     :     0.028586
  8 C s       :     2.833038  s :     2.833038
      pz      :     1.077001  p :     3.041413
      px      :     1.080137
      py      :     0.884275
      dz2     :     0.021952  d :     0.094804
      dxz     :     0.006713
      dyz     :     0.014319
      dx2y2   :     0.023233
      dxy     :     0.028586
  9 H s       :     0.891157  s :     0.891157
      pz      :     0.045161  p :     0.065931
      px      :     0.012307
      py      :     0.008463
 10 H s       :     0.891157  s :     0.891157
      pz      :     0.045161  p :     0.065931
      px      :     0.012307
      py      :     0.008463
 11 H s       :     0.907026  s :     0.907026
      pz      :     0.015608  p :     0.064525
      px      :     0.032685
      py      :     0.016232
 12 H s       :     0.907026  s :     0.907026
      pz      :     0.015608  p :     0.064524
      px      :     0.032685
      py      :     0.016232
 13 H s       :     0.907026  s :     0.907026
      pz      :     0.015608  p :     0.064525
      px      :     0.032685
      py      :     0.016232
 14 H s       :     0.907026  s :     0.907026
      pz      :     0.015608  p :     0.064525
      px      :     0.032685
      py      :     0.016232


                      *****************************
                      * MAYER POPULATION ANALYSIS *
                      *****************************

  NA   - Mulliken gross atomic population
  ZA   - Total nuclear charge
  QA   - Mulliken gross atomic charge
  VA   - Mayer's total valence
  BVA  - Mayer's bonded valence
  FA   - Mayer's free valence

  ATOM       NA         ZA         QA         VA         BVA        FA
  0 N      7.2450     7.0000    -0.2450     3.3781     3.3781    -0.0000
  1 N      7.2450     7.0000    -0.2450     3.3781     3.3781    -0.0000
  2 C      5.9134     6.0000     0.0866     3.9522     3.9522     0.0000
  3 C      5.9134     6.0000     0.0866     3.9522     3.9522     0.0000
  4 C      6.1024     6.0000    -0.1024     2.6624     2.6624    -0.0000
  5 Cl    17.0621    17.0000    -0.0621     1.1871     1.1871    -0.0000
  6 Cl    17.0621    17.0000    -0.0621     1.1871     1.1871    -0.0000
  7 C      5.8940     6.0000     0.1060     3.8783     3.8783    -0.0000
  8 C      5.8940     6.0000     0.1060     3.8783     3.8783    -0.0000
  9 H      0.9338     1.0000     0.0662     1.0173     1.0173    -0.0000
 10 H      0.9338     1.0000     0.0662     1.0173     1.0173     0.0000
 11 H      0.9502     1.0000     0.0498     0.9960     0.9960    -0.0000
 12 H      0.9502     1.0000     0.0498     0.9960     0.9960    -0.0000
 13 H      0.9502     1.0000     0.0498     0.9960     0.9960    -0.0000
 14 H      0.9502     1.0000     0.0498     0.9960     0.9960     0.0000

  Mayer bond orders larger than 0.100000
B(  0-N ,  2-C ) :   1.1290 B(  0-N ,  4-C ) :   1.2157 B(  0-N ,  7-C ) :   0.9400 
B(  1-N ,  3-C ) :   1.1290 B(  1-N ,  4-C ) :   1.2157 B(  1-N ,  8-C ) :   0.9400 
B(  2-C ,  3-C ) :   1.6040 B(  2-C ,  5-Cl) :   1.0771 B(  3-C ,  6-Cl) :   1.0771 
B(  7-C ,  9-H ) :   0.9706 B(  7-C , 11-H ) :   0.9787 B(  7-C , 14-H ) :   0.9787 
B(  8-C , 10-H ) :   0.9706 B(  8-C , 12-H ) :   0.9787 B(  8-C , 13-H ) :   0.9787 


-------
TIMINGS
-------

Total SCF time: 0 days 0 hours 0 min 31 sec 

Total time                  ....      31.438 sec
Sum of individual times     ....      31.019 sec  ( 98.7%)

Fock matrix formation       ....      29.400 sec  ( 93.5%)
  Split-RI-J                ....       1.422 sec  (  4.8% of F)
  Chain of spheres X        ....      24.227 sec  ( 82.4% of F)
  XC integration            ....       3.684 sec  ( 12.5% of F)
    Basis function eval.    ....       0.970 sec  ( 26.3% of XC)
    Density eval.           ....       0.559 sec  ( 15.2% of XC)
    XC-Functional eval.     ....       0.713 sec  ( 19.3% of XC)
    XC-Potential eval.      ....       0.629 sec  ( 17.1% of XC)
Diagonalization             ....       0.039 sec  (  0.1%)
Density matrix formation    ....       0.005 sec  (  0.0%)
Population analysis         ....       0.012 sec  (  0.0%)
Initial guess               ....       0.239 sec  (  0.8%)
Orbital Transformation      ....       0.000 sec  (  0.0%)
Orbital Orthonormalization  ....       0.000 sec  (  0.0%)
DIIS solution               ....       0.027 sec  (  0.1%)
SOSCF solution              ....       0.029 sec  (  0.1%)
Grid generation             ....       1.267 sec  (  4.0%)

Maximum memory used throughout the entire SCF-calculation: 53.0 MB


-------------------------------------------------------------------------------
                          DFT DISPERSION CORRECTION                            
                                                                               
                                 DFTD4 V2.5                                    
-------------------------------------------------------------------------------
The WB97X functional is recognized
Active option DFTDOPT                   ...         5   

Starting D4
-------------------------   ----------------
Dispersion correction           -0.002555340
-------------------------   ----------------


-------------------------   --------------------
FINAL SINGLE POINT ENERGY     -1223.406156550388
-------------------------   --------------------


                            ***************************************
                            *     ORCA property calculations      *
                            ***************************************

                                    ---------------------
                                    Active property flags
                                    ---------------------
   (+) Dipole Moment


------------------------------------------------------------------------------
                       ORCA ELECTRIC PROPERTIES CALCULATION
------------------------------------------------------------------------------

Dipole Moment Calculation                       ... on
Quadrupole Moment Calculation                   ... off
Polarizability Calculation                      ... off
GBWName                                         ... DFT_water_outs/3-gasSP.gbw
Electron density                                ... DFT_water_outs/3-gasSP.scfp
The origin for moment calculation is the CENTER OF MASS  = ( 0.000000,  0.000000 -0.129825)

-------------
DIPOLE MOMENT
-------------
                                X             Y             Z
Electronic contribution:      0.00000       0.00000     -13.96589
Nuclear contribution   :      0.00000       0.00000      13.71683
                        -----------------------------------------
Total Dipole Moment    :      0.00000       0.00000      -0.24906
                        -----------------------------------------
Magnitude (a.u.)       :      0.24906
Magnitude (Debye)      :      0.63306



--------------------
Rotational spectrum 
--------------------
 
Rotational constants in cm-1:     0.051589     0.036742     0.021637 
Rotational constants in MHz :  1546.608274  1101.498610   648.664585 

 Dipole components along the rotational axes: 
x,y,z [a.u.] :     0.000001    -0.249060     0.000000 
x,y,z [Debye]:     0.000002    -0.633060     0.000000 

 

Timings for individual modules:

Sum of individual times         ...       32.375 sec (=   0.540 min)
GTO integral calculation        ...        0.571 sec (=   0.010 min)   1.8 %
SCF iterations                  ...       31.804 sec (=   0.530 min)  98.2 %
                             ****ORCA TERMINATED NORMALLY****
TOTAL RUN TIME: 0 days 0 hours 0 minutes 32 seconds 985 msec
