
                                 *****************
                                 * O   R   C   A *
                                 *****************

                                            #,                                       
                                            ###                                      
                                            ####                                     
                                            #####                                    
                                            ######                                   
                                           ########,                                 
                                     ,,################,,,,,                         
                               ,,#################################,,                 
                          ,,##########################################,,             
                       ,#########################################, ''#####,          
                    ,#############################################,,   '####,        
                  ,##################################################,,,,####,       
                ,###########''''           ''''###############################       
              ,#####''   ,,,,##########,,,,          '''####'''          '####       
            ,##' ,,,,###########################,,,                        '##       
           ' ,,###''''                  '''############,,,                           
         ,,##''                                '''############,,,,        ,,,,,,###''
      ,#''                                            '''#######################'''  
     '                                                          ''''####''''         
             ,#######,   #######,   ,#######,      ##                                
            ,#'     '#,  ##    ##  ,#'     '#,    #''#        ######   ,####,        
            ##       ##  ##   ,#'  ##            #'  '#       #        #'  '#        
            ##       ##  #######   ##           ,######,      #####,   #    #        
            '#,     ,#'  ##    ##  '#,     ,#' ,#      #,         ##   #,  ,#        
             '#######'   ##     ##  '#######'  #'      '#     #####' # '####'        



                  #######################################################
                  #                        -***-                        #
                  #          Department of theory and spectroscopy      #
                  #    Directorship and core code : Frank Neese         #
                  #        Max Planck Institute fuer Kohlenforschung    #
                  #                Kaiser Wilhelm Platz 1               #
                  #                 D-45470 Muelheim/Ruhr               #
                  #                      Germany                        #
                  #                                                     #
                  #                  All rights reserved                #
                  #                        -***-                        #
                  #######################################################


                         Program Version 5.0.4 -  RELEASE  -


 With contributions from (in alphabetic order):
   Daniel Aravena         : Magnetic Suceptibility
   Michael Atanasov       : Ab Initio Ligand Field Theory (pilot matlab implementation)
   Alexander A. Auer      : GIAO ZORA, VPT2 properties, NMR spectrum
   Ute Becker             : Parallelization
   Giovanni Bistoni       : ED, misc. LED, open-shell LED, HFLD
   Martin Brehm           : Molecular dynamics
   Dmytro Bykov           : SCF Hessian
   Vijay G. Chilkuri      : MRCI spin determinant printing, contributions to CSF-ICE
   Dipayan Datta          : RHF DLPNO-CCSD density
   Achintya Kumar Dutta   : EOM-CC, STEOM-CC
   Dmitry Ganyushin       : Spin-Orbit,Spin-Spin,Magnetic field MRCI
   Miquel Garcia          : C-PCM and meta-GGA Hessian, CC/C-PCM, Gaussian charge scheme
   Yang Guo               : DLPNO-NEVPT2, F12-NEVPT2, CIM, IAO-localization
   Andreas Hansen         : Spin unrestricted coupled pair/coupled cluster methods
   Benjamin Helmich-Paris : MC-RPA, TRAH-SCF, COSX integrals
   Lee Huntington         : MR-EOM, pCC
   Robert Izsak           : Overlap fitted RIJCOSX, COSX-SCS-MP3, EOM
   Marcus Kettner         : VPT2
   Christian Kollmar      : KDIIS, OOCD, Brueckner-CCSD(T), CCSD density, CASPT2, CASPT2-K
   Simone Kossmann        : Meta GGA functionals, TD-DFT gradient, OOMP2, MP2 Hessian
   Martin Krupicka        : Initial AUTO-CI
   Lucas Lang             : DCDCAS
   Marvin Lechner         : AUTO-CI (C++ implementation), FIC-MRCC
   Dagmar Lenk            : GEPOL surface, SMD
   Dimitrios Liakos       : Extrapolation schemes; Compound Job, initial MDCI parallelization
   Dimitrios Manganas     : Further ROCIS development; embedding schemes
   Dimitrios Pantazis     : SARC Basis sets
   Anastasios Papadopoulos: AUTO-CI, single reference methods and gradients
   Taras Petrenko         : DFT Hessian,TD-DFT gradient, ASA, ECA, R-Raman, ABS, FL, XAS/XES, NRVS
   Peter Pinski           : DLPNO-MP2, DLPNO-MP2 Gradient
   Christoph Reimann      : Effective Core Potentials
   Marius Retegan         : Local ZFS, SOC
   Christoph Riplinger    : Optimizer, TS searches, QM/MM, DLPNO-CCSD(T), (RO)-DLPNO pert. Triples
   Tobias Risthaus        : Range-separated hybrids, TD-DFT gradient, RPA, STAB
   Michael Roemelt        : Original ROCIS implementation
   Masaaki Saitow         : Open-shell DLPNO-CCSD energy and density
   Barbara Sandhoefer     : DKH picture change effects
   Avijit Sen             : IP-ROCIS
   Kantharuban Sivalingam : CASSCF convergence, NEVPT2, FIC-MRCI
   Bernardo de Souza      : ESD, SOC TD-DFT
   Georgi Stoychev        : AutoAux, RI-MP2 NMR, DLPNO-MP2 response
   Willem Van den Heuvel  : Paramagnetic NMR
   Boris Wezisla          : Elementary symmetry handling
   Frank Wennmohs         : Technical directorship


 We gratefully acknowledge several colleagues who have allowed us to
 interface, adapt or use parts of their codes:
   Stefan Grimme, W. Hujo, H. Kruse, P. Pracht,  : VdW corrections, initial TS optimization,
                  C. Bannwarth, S. Ehlert          DFT functionals, gCP, sTDA/sTD-DF
   Ed Valeev, F. Pavosevic, A. Kumar             : LibInt (2-el integral package), F12 methods
   Garnet Chan, S. Sharma, J. Yang, R. Olivares  : DMRG
   Ulf Ekstrom                                   : XCFun DFT Library
   Mihaly Kallay                                 : mrcc  (arbitrary order and MRCC methods)
   Jiri Pittner, Ondrej Demel                    : Mk-CCSD
   Frank Weinhold                                : gennbo (NPA and NBO analysis)
   Christopher J. Cramer and Donald G. Truhlar   : smd solvation model
   Lars Goerigk                                  : TD-DFT with DH, B97 family of functionals
   V. Asgeirsson, H. Jonsson                     : NEB implementation
   FAccTs GmbH                                   : IRC, NEB, NEB-TS, DLPNO-Multilevel, CI-OPT
                                                   MM, QMMM, 2- and 3-layer-ONIOM, Crystal-QMMM,
                                                   LR-CPCM, SF, NACMEs, symmetry and pop. for TD-DFT,
                                                   nearIR, NL-DFT gradient (VV10), updates on ESD,
                                                   ML-optimized integration grids
   S Lehtola, MJT Oliveira, MAL Marques          : LibXC Library
   Liviu Ungur et al                             : ANISO software


 Your calculation uses the libint2 library for the computation of 2-el integrals
 For citations please refer to: http://libint.valeyev.net

 Your ORCA version has been built with support for libXC version: 5.1.0
 For citations please refer to: https://tddft.org/programs/libxc/

 This ORCA versions uses:
   CBLAS   interface :  Fast vector & matrix operations
   LAPACKE interface :  Fast linear algebra routines
   SCALAPACK package :  Parallel linear algebra routines
   Shared memory     :  Shared parallel matrices
   BLAS/LAPACK       :  OpenBLAS 0.3.15  USE64BITINT DYNAMIC_ARCH NO_AFFINITY SkylakeX SINGLE_THREADED
        Core in use  :  SkylakeX
   Copyright (c) 2011-2014, The OpenBLAS Project


Your calculation utilizes the atom-pairwise dispersion correction
based on tight binding partial charges (D4)
Cite in your paper:
E.Caldeweyher, C.Bannwarth, S.Grimme, J.Chem.Phys., (2017), 147, 034112.
E.Caldeweyher, S.Ehlert, A.Hansen, H.Neugebauer, S.Grimme, J.Chem.Phys., (2018), in progress.
   

XCFun DFT library Copyright 2009-2010 Ulf Ekstrom and contributors.
See http://admol.org/xcfun for more information.
This is free software; see the source code for copying conditions.
There is ABSOLUTELY NO WARRANTY; not even for MERCHANTABILITY or FITNESS FOR A PARTICULAR PURPOSE.
For details see the documentation.
Scientific users of this library should cite U. Ekstrom, L. Visscher, R. Bast, A. J. Thorvaldsen and K. Ruud;
J.Chem.Theor.Comp. 2010, DOI: 10.1021/ct100117s
XCFun Version 0.99 

================================================================================

----- Orbital basis set information -----
Your calculation utilizes the basis: def2-SVP
   F. Weigend and R. Ahlrichs, Phys. Chem. Chem. Phys. 7, 3297 (2005).

----- AuxJ basis set information -----
Your calculation utilizes the auxiliary basis: def2/J
   F. Weigend, Phys. Chem. Chem. Phys. 8, 1057 (2006).

================================================================================
                                        WARNINGS
                       Please study these warnings very carefully!
================================================================================


WARNING: Geometry Optimization
  ===> : Switching off AutoStart
         For restart on a previous wavefunction, please use MOREAD

INFO   : the flag for use of the SHARK integral package has been found!

================================================================================
                                       INPUT FILE
================================================================================
NAME = Min_369.inp
|  1> ! Opt FREQ wB97X D4 Def2-SVP SlowConv TightSCF DEFGRID2 Def2/J RIJCOSX CPCM(Water)
|  2>         
|  3> %MAXCORE 4000
|  4> 
|  5> %scf MaxIter 20000 end
|  6> 
|  7> %geom
|  8> MaxIter 500
|  9> end
| 10> 
| 11> %PAL NPROCS 8 END
| 12> 
| 13> * xyz 1 1
| 14> C 1.45903 -0.40223 -0.36105
| 15> C 0.45409 -1.26774 -0.62664
| 16> N 0.88028 0.66928 0.33499
| 17> N -0.74331 -0.81762 -0.10077
| 18> C -0.45366 0.38904 0.4522
| 19> H 2.51833 -0.28238 -0.72361
| 20> H 0.46421 -2.15965 -1.17722
| 21> C 1.42364 1.97135 0.71142
| 22> C -2.15953 -1.2846 -0.15882
| 23> H 0.84597 2.23787 1.59399
| 24> H -2.7147 -0.41484 0.15975
| 25> H -1.16002 1.11883 0.76232
| 26> C 1.324 3.01942 -0.43864
| 27> C -2.55887 -1.49095 -1.63376
| 28> C -2.47084 -2.5304 0.702
| 29> C 2.88297 1.77135 1.14301
| 30> H 2.02692 2.6846 -1.22211
| 31> H -2.0312 -2.37827 -2.06105
| 32> H -2.05921 -3.44453 0.25918
| 33> H 3.48222 1.52745 0.23969
| 34> H 0.27434 3.14955 -0.79641
| 35> H -2.19116 -0.68702 -2.25055
| 36> H -2.04127 -2.38242 1.71441
| 37> H 2.9024 0.88572 1.83388
| 38> H 1.71458 4.0284 -0.03013
| 39> H -3.64349 -1.5666 -1.82458
| 40> H -3.5851 -2.52454 0.69624
| 41> H 3.29915 2.65267 1.68904
| 42> **                         ****END OF INPUT****
================================================================================

                       *****************************
                       * Geometry Optimization Run *
                       *****************************

Geometry optimization settings:
Update method            Update   .... BFGS
Choice of coordinates    CoordSys .... Z-matrix Internals
Initial Hessian          InHess   .... Almoef's Model

Convergence Tolerances:
Energy Change            TolE     ....  5.0000e-06 Eh
Max. Gradient            TolMAXG  ....  3.0000e-04 Eh/bohr
RMS Gradient             TolRMSG  ....  1.0000e-04 Eh/bohr
Max. Displacement        TolMAXD  ....  4.0000e-03 bohr
RMS Displacement         TolRMSD  ....  2.0000e-03 bohr
Strict Convergence                ....  False
------------------------------------------------------------------------------
                        ORCA OPTIMIZATION COORDINATE SETUP
------------------------------------------------------------------------------

The optimization will be done in new redundant internal coordinates
Making redundant internal coordinates   ...  (new redundants) done
Evaluating the initial hessian          ...  (Almloef) done
Evaluating the coordinates              ...  done
Calculating the B-matrix                .... done
Calculating the G-matrix                .... done
Diagonalizing the G-matrix              .... done
Small eigenvalue found = 1.591e-02
Small eigenvalue found = 2.277e-02
The first mode is                       ....   69
The number of degrees of freedom        ....   78

    -----------------------------------------------------------------
                    Redundant Internal Coordinates


    -----------------------------------------------------------------
         Definition                    Initial Value    Approx d2E/dq
    -----------------------------------------------------------------
      1. B(C   1,C   0)                  1.3526         0.716794   
      2. B(N   2,C   0)                  1.4027         0.534096   
      3. B(N   3,C   1)                  1.3831         0.574002   
      4. B(C   4,N   3)                  1.3586         0.628097   
      5. B(C   4,N   2)                  1.3681         0.606502   
      6. B(H   5,C   0)                  1.1260         0.315463   
      7. B(H   6,C   1)                  1.0482         0.419852   
      8. B(C   7,N   2)                  1.4602         0.432313   
      9. B(C   8,N   3)                  1.4924         0.384217   
     10. B(H   9,C   7)                  1.0880         0.362804   
     11. B(H  10,C   8)                  1.0799         0.373713   
     12. B(H  11,C   4)                  1.0619         0.399203   
     13. B(C  12,C   7)                  1.5592         0.335611   
     14. B(C  13,C   8)                  1.5419         0.357576   
     15. B(C  14,C   8)                  1.5459         0.352322   
     16. B(C  15,C   7)                  1.5349         0.366912   
     17. B(H  16,C  12)                  1.1045         0.341360   
     18. B(H  17,C  13)                  1.1173         0.325743   
     19. B(H  18,C  14)                  1.0960         0.352281   
     20. B(H  19,C  15)                  1.1111         0.333224   
     21. B(H  20,C  12)                  1.1166         0.326617   
     22. B(H  21,C  13)                  1.0779         0.376419   
     23. B(H  22,C  14)                  1.1097         0.334978   
     24. B(H  23,C  15)                  1.1234         0.318523   
     25. B(H  24,C  12)                  1.1565         0.282059   
     26. B(H  25,C  13)                  1.1039         0.342208   
     27. B(H  26,C  14)                  1.1143         0.329359   
     28. B(H  27,C  15)                  1.1172         0.325887   
     29. A(C   1,C   0,H   5)          134.7346         0.353670   
     30. A(C   1,C   0,N   2)          106.2417         0.430911   
     31. A(N   2,C   0,H   5)          117.8148         0.334582   
     32. A(C   0,C   1,N   3)          111.1196         0.436533   
     33. A(N   3,C   1,H   6)          119.0118         0.355305   
     34. A(C   0,C   1,H   6)          129.8240         0.371361   
     35. A(C   4,N   2,C   7)          121.5592         0.400257   
     36. A(C   0,N   2,C   7)          130.9602         0.391428   
     37. A(C   0,N   2,C   4)          106.7584         0.415514   
     38. A(C   1,N   3,C   8)          134.8258         0.388304   
     39. A(C   1,N   3,C   4)          105.0247         0.423521   
     40. A(C   4,N   3,C   8)          119.7414         0.394467   
     41. A(N   2,C   4,H  11)          122.1953         0.355585   
     42. A(N   2,C   4,N   3)          110.7901         0.427717   
     43. A(N   3,C   4,H  11)          125.9751         0.357704   
     44. A(N   2,C   7,H   9)          103.2960         0.330634   
     45. A(H   9,C   7,C  15)          107.9774         0.323759   
     46. A(N   2,C   7,C  15)          108.0640         0.369094   
     47. A(C  12,C   7,C  15)          110.8396         0.355688   
     48. A(H   9,C   7,C  12)          113.5630         0.319069   
     49. A(N   2,C   7,C  12)          112.6722         0.363498   
     50. A(N   3,C   8,H  10)          102.9657         0.325852   
     51. A(N   3,C   8,C  14)          114.9358         0.359223   
     52. A(C  13,C   8,C  14)          111.8786         0.357069   
     53. A(H  10,C   8,C  14)          112.4112         0.323178   
     54. A(H  10,C   8,C  13)          104.8818         0.323964   
     55. A(N   3,C   8,C  13)          108.9572         0.360130   
     56. A(C   7,C  12,H  16)          106.1865         0.315918   
     57. A(H  20,C  12,H  24)          109.2077         0.275811   
     58. A(H  16,C  12,H  24)          107.4630         0.277687   
     59. A(C   7,C  12,H  24)          107.7177         0.306326   
     60. A(H  16,C  12,H  20)          113.9729         0.284056   
     61. A(C   7,C  12,H  20)          112.0096         0.313662   
     62. A(C   8,C  13,H  17)          110.4744         0.316771   
     63. A(H  17,C  13,H  25)          110.0904         0.284047   
     64. A(H  21,C  13,H  25)          106.7008         0.290536   
     65. A(C   8,C  13,H  25)          115.4041         0.319327   
     66. A(H  17,C  13,H  21)          102.2609         0.288299   
     67. A(C   8,C  13,H  21)          111.0502         0.324348   
     68. A(C   8,C  14,H  18)          111.8100         0.320069   
     69. A(H  22,C  14,H  26)          113.0238         0.283592   
     70. A(H  18,C  14,H  26)          112.2019         0.285823   
     71. A(C   8,C  14,H  26)          101.2009         0.316577   
     72. A(H  18,C  14,H  22)          109.5396         0.286578   
     73. A(C   8,C  14,H  22)          108.8201         0.317450   
     74. A(C   7,C  15,H  19)          108.2265         0.319284   
     75. A(H  23,C  15,H  27)          108.3544         0.280926   
     76. A(H  19,C  15,H  27)          111.6915         0.282896   
     77. A(C   7,C  15,H  27)          112.8815         0.318126   
     78. A(H  19,C  15,H  23)          108.5175         0.281895   
     79. A(C   7,C  15,H  23)          106.9832         0.316944   
     80. D(H   6,C   1,C   0,N   2)    175.9146         0.036335   
     81. D(H   6,C   1,C   0,H   5)      9.3106         0.036335   
     82. D(N   3,C   1,C   0,H   5)   -168.1900         0.036335   
     83. D(N   3,C   1,C   0,N   2)     -1.5860         0.036335   
     84. D(C   7,N   2,C   0,H   5)     -0.8544         0.022669   
     85. D(C   7,N   2,C   0,C   1)   -170.1304         0.022669   
     86. D(C   4,N   2,C   0,H   5)    169.2767         0.022669   
     87. D(C   4,N   2,C   0,C   1)      0.0008         0.022669   
     88. D(C   8,N   3,C   1,C   0)    174.8312         0.026391   
     89. D(C   4,N   3,C   1,H   6)   -175.2769         0.026391   
     90. D(C   8,N   3,C   1,H   6)     -2.9740         0.026391   
     91. D(C   4,N   3,C   1,C   0)      2.5282         0.026391   
     92. D(H  11,C   4,N   2,C   0)   -167.3715         0.029687   
     93. D(N   3,C   4,N   2,C   7)    172.8730         0.029687   
     94. D(N   3,C   4,N   2,C   0)      1.6098         0.029687   
     95. D(H  11,C   4,N   3,C   8)     -7.7554         0.032011   
     96. D(H  11,C   4,N   3,C   1)    165.9636         0.032011   
     97. D(N   2,C   4,N   3,C   8)   -176.2266         0.032011   
     98. D(N   2,C   4,N   3,C   1)     -2.5076         0.032011   
     99. D(H  11,C   4,N   2,C   7)      3.8918         0.029687   
    100. D(C  15,C   7,N   2,C   4)    151.8029         0.015934   
    101. D(C  15,C   7,N   2,C   0)    -39.3017         0.015934   
    102. D(C  12,C   7,N   2,C   4)    -85.3922         0.015934   
    103. D(C  12,C   7,N   2,C   0)     83.5033         0.015934   
    104. D(H   9,C   7,N   2,C   4)     37.5565         0.015934   
    105. D(H   9,C   7,N   2,C   0)   -153.5481         0.015934   
    106. D(C  13,C   8,N   3,C   4)    119.3317         0.012631   
    107. D(H  10,C   8,N   3,C   4)      8.3699         0.012631   
    108. D(H  10,C   8,N   3,C   1)   -163.0623         0.012631   
    109. D(C  14,C   8,N   3,C   1)     74.3567         0.012631   
    110. D(C  13,C   8,N   3,C   1)    -52.1005         0.012631   
    111. D(C  14,C   8,N   3,C   4)   -114.2112         0.012631   
    112. D(H  24,C  12,C   7,C  15)    -62.2141         0.009142   
    113. D(H  24,C  12,C   7,H   9)     59.5417         0.009142   
    114. D(H  24,C  12,C   7,N   2)    176.5486         0.009142   
    115. D(H  20,C  12,C   7,C  15)    177.6756         0.009142   
    116. D(H  20,C  12,C   7,H   9)    -60.5687         0.009142   
    117. D(H  20,C  12,C   7,N   2)     56.4382         0.009142   
    118. D(H  16,C  12,C   7,C  15)     52.6693         0.009142   
    119. D(H  16,C  12,C   7,H   9)    174.4250         0.009142   
    120. D(H  16,C  12,C   7,N   2)    -68.5680         0.009142   
    121. D(H  25,C  13,C   8,C  14)     67.8022         0.010268   
    122. D(H  25,C  13,C   8,H  10)    -54.3258         0.010268   
    123. D(H  25,C  13,C   8,N   3)   -164.0047         0.010268   
    124. D(H  21,C  13,C   8,C  14)   -170.6193         0.010268   
    125. D(H  21,C  13,C   8,H  10)     67.2528         0.010268   
    126. D(H  21,C  13,C   8,N   3)    -42.4261         0.010268   
    127. D(H  17,C  13,C   8,C  14)    -57.8765         0.010268   
    128. D(H  17,C  13,C   8,H  10)    179.9955         0.010268   
    129. D(H  17,C  13,C   8,N   3)     70.3166         0.010268   
    130. D(H  26,C  14,C   8,H  10)     49.3428         0.009991   
    131. D(H  26,C  14,C   8,N   3)    166.6907         0.009991   
    132. D(H  22,C  14,C   8,C  13)    172.3778         0.009991   
    133. D(H  22,C  14,C   8,H  10)    -69.9136         0.009991   
    134. D(H  22,C  14,C   8,N   3)     47.4343         0.009991   
    135. D(H  18,C  14,C   8,C  13)     51.2480         0.009991   
    136. D(H  18,C  14,C   8,H  10)    168.9566         0.009991   
    137. D(H  26,C  14,C   8,C  13)    -68.3658         0.009991   
    138. D(H  18,C  14,C   8,N   3)    -73.6956         0.009991   
    139. D(H  23,C  15,C   7,N   2)    -46.2677         0.010773   
    140. D(H  19,C  15,C   7,C  12)    -53.4278         0.010773   
    141. D(H  19,C  15,C   7,H   9)   -178.4023         0.010773   
    142. D(H  19,C  15,C   7,N   2)     70.4881         0.010773   
    143. D(H  27,C  15,C   7,C  12)     70.7209         0.010773   
    144. D(H  27,C  15,C   7,H   9)    -54.2536         0.010773   
    145. D(H  27,C  15,C   7,N   2)   -165.3633         0.010773   
    146. D(H  23,C  15,C   7,C  12)   -170.1835         0.010773   
    147. D(H  23,C  15,C   7,H   9)     64.8420         0.010773   
    -----------------------------------------------------------------

Number of atoms                         .... 28
Number of degrees of freedom            .... 147

         *************************************************************
         *                GEOMETRY OPTIMIZATION CYCLE   1            *
         *************************************************************
---------------------------------
CARTESIAN COORDINATES (ANGSTROEM)
---------------------------------
  C      1.459030   -0.402230   -0.361050
  C      0.454090   -1.267740   -0.626640
  N      0.880280    0.669280    0.334990
  N     -0.743310   -0.817620   -0.100770
  C     -0.453660    0.389040    0.452200
  H      2.518330   -0.282380   -0.723610
  H      0.464210   -2.159650   -1.177220
  C      1.423640    1.971350    0.711420
  C     -2.159530   -1.284600   -0.158820
  H      0.845970    2.237870    1.593990
  H     -2.714700   -0.414840    0.159750
  H     -1.160020    1.118830    0.762320
  C      1.324000    3.019420   -0.438640
  C     -2.558870   -1.490950   -1.633760
  C     -2.470840   -2.530400    0.702000
  C      2.882970    1.771350    1.143010
  H      2.026920    2.684600   -1.222110
  H     -2.031200   -2.378270   -2.061050
  H     -2.059210   -3.444530    0.259180
  H      3.482220    1.527450    0.239690
  H      0.274340    3.149550   -0.796410
  H     -2.191160   -0.687020   -2.250550
  H     -2.041270   -2.382420    1.714410
  H      2.902400    0.885720    1.833880
  H      1.714580    4.028400   -0.030130
  H     -3.643490   -1.566600   -1.824580
  H     -3.585100   -2.524540    0.696240
  H      3.299150    2.652670    1.689040

----------------------------
CARTESIAN COORDINATES (A.U.)
----------------------------
  NO LB      ZA    FRAG     MASS         X           Y           Z
   0 C     6.0000    0    12.011    2.757167   -0.760105   -0.682286
   1 C     6.0000    0    12.011    0.858106   -2.395681   -1.184178
   2 N     7.0000    0    14.007    1.663488    1.264756    0.633039
   3 N     7.0000    0    14.007   -1.404652   -1.545078   -0.190428
   4 C     6.0000    0    12.011   -0.857293    0.735179    0.854534
   5 H     1.0000    0     1.008    4.758954   -0.533621   -1.367425
   6 H     1.0000    0     1.008    0.877230   -4.081147   -2.224623
   7 C     6.0000    0    12.011    2.690290    3.725312    1.344389
   8 C     6.0000    0    12.011   -4.080920   -2.427542   -0.300126
   9 H     1.0000    0     1.008    1.598652    4.228961    3.012205
  10 H     1.0000    0     1.008   -5.130040   -0.783934    0.301884
  11 H     1.0000    0     1.008   -2.192120    2.114282    1.440576
  12 C     6.0000    0    12.011    2.501997    5.705877   -0.828909
  13 C     6.0000    0    12.011   -4.835564   -2.817487   -3.087359
  14 C     6.0000    0    12.011   -4.669211   -4.781763    1.326588
  15 C     6.0000    0    12.011    5.448024    3.347366    2.159976
  16 H     1.0000    0     1.008    3.830324    5.073159   -2.309453
  17 H     1.0000    0     1.008   -3.838412   -4.494279   -3.894820
  18 H     1.0000    0     1.008   -3.891343   -6.509218    0.489779
  19 H     1.0000    0     1.008    6.580442    2.886462    0.452948
  20 H     1.0000    0     1.008    0.518427    5.951787   -1.504997
  21 H     1.0000    0     1.008   -4.140692   -1.298280   -4.252923
  22 H     1.0000    0     1.008   -3.857441   -4.502121    3.239765
  23 H     1.0000    0     1.008    5.484741    1.673768    3.465531
  24 H     1.0000    0     1.008    3.240087    7.612573   -0.056937
  25 H     1.0000    0     1.008   -6.885198   -2.960445   -3.447957
  26 H     1.0000    0     1.008   -6.774857   -4.770689    1.315703
  27 H     1.0000    0     1.008    6.234490    5.012820    3.191823

--------------------------------
INTERNAL COORDINATES (ANGSTROEM)
--------------------------------
 C      0   0   0     0.000000000000     0.00000000     0.00000000
 C      1   0   0     1.352608595197     0.00000000     0.00000000
 N      1   2   0     1.402696305050   106.24168115     0.00000000
 N      2   1   3     1.383081353826   111.11955262   358.41399697
 C      4   2   1     1.358565897923   105.02469991     2.52817597
 H      1   2   3     1.126024096589   134.73455540   193.39599781
 H      2   1   3     1.048209997520   129.82402182   175.91456014
 C      3   1   2     1.460248581372   130.96019433   189.86961368
 C      4   2   1     1.492353581193   134.82583819   174.83116597
 H      8   3   1     1.087963852433   103.29597059   206.45194502
 H      9   4   2     1.079899546902   102.96570541   196.93773832
 H      5   4   2     1.061937996354   125.97511612   165.96357291
 C      8   3   1     1.559171850086   112.67219136    83.50332586
 C      9   4   2     1.541914641509   108.95723655   307.89950398
 C      9   4   2     1.545943927994   114.93578853    74.35666009
 C      8   3   1     1.534898686233   108.06400442   320.69833943
 H     13   8   3     1.104547961702   106.18651783   291.43195632
 H     14   9   4     1.117295464682   110.47435243    70.31656102
 H     15   9   4     1.095975577374   111.81003609   286.30440753
 H     16   8   3     1.111114213256   108.22648122    70.48805864
 H     13   8   3     1.116565853589   112.00962180    56.43823826
 H     14   9   4     1.077935059779   111.05016684   317.57385929
 H     15   9   4     1.109685754347   108.82008320    47.43426215
 H     16   8   3     1.123396358682   106.98321647   313.73234837
 H     13   8   3     1.156492021979   107.71767952   176.54856916
 H     14   9   4     1.103873063038   115.40408085   195.99528770
 H     15   9   4     1.114290296467   101.20093538   166.69066115
 H     16   8   3     1.117174782968   112.88152823   194.63674494

---------------------------
INTERNAL COORDINATES (A.U.)
---------------------------
 C      0   0   0     0.000000000000     0.00000000     0.00000000
 C      1   0   0     2.556059811310     0.00000000     0.00000000
 N      1   2   0     2.650711865607   106.24168115     0.00000000
 N      2   1   3     2.613644979663   111.11955262   358.41399697
 C      4   2   1     2.567317481960   105.02469991     2.52817597
 H      1   2   3     2.127877162750   134.73455540   193.39599781
 H      2   1   3     1.980829826150   129.82402182   175.91456014
 C      3   1   2     2.759469906241   130.96019433   189.86961368
 C      4   2   1     2.820139563432   134.82583819   174.83116597
 H      8   3   1     2.055953724704   103.29597059   206.45194502
 H      9   4   2     2.040714395791   102.96570541   196.93773832
 H      5   4   2     2.006771984314   125.97511612   165.96357291
 C      8   3   1     2.946407792381   112.67219136    83.50332586
 C      9   4   2     2.913796394335   108.95723655   307.89950398
 C      9   4   2     2.921410642306   114.93578853    74.35666009
 C      8   3   1     2.900538160296   108.06400442   320.69833943
 H     13   8   3     2.087293149398   106.18651783   291.43195632
 H     14   9   4     2.111382438922   110.47435243    70.31656102
 H     15   9   4     2.071093690703   111.81003609   286.30440753
 H     16   8   3     2.099701566562   108.22648122    70.48805864
 H     13   8   3     2.110003673770   112.00962180    56.43823826
 H     14   9   4     2.037002053134   111.05016684   317.57385929
 H     15   9   4     2.097002170429   108.82008320    47.43426215
 H     16   8   3     2.122911457753   106.98321647   313.73234837
 H     13   8   3     2.185453197604   107.71767952   176.54856916
 H     14   9   4     2.086017775754   115.40408085   195.99528770
 H     15   9   4     2.105703494008   101.20093538   166.69066115
 H     16   8   3     2.111154383533   112.88152823   194.63674494

---------------------
BASIS SET INFORMATION
---------------------
There are 3 groups of distinct atoms

 Group   1 Type C   : 7s4p1d contracted to 3s2p1d pattern {511/31/1}
 Group   2 Type N   : 7s4p1d contracted to 3s2p1d pattern {511/31/1}
 Group   3 Type H   : 4s1p contracted to 2s1p pattern {31/1}

Atom   0C    basis set group =>   1
Atom   1C    basis set group =>   1
Atom   2N    basis set group =>   2
Atom   3N    basis set group =>   2
Atom   4C    basis set group =>   1
Atom   5H    basis set group =>   3
Atom   6H    basis set group =>   3
Atom   7C    basis set group =>   1
Atom   8C    basis set group =>   1
Atom   9H    basis set group =>   3
Atom  10H    basis set group =>   3
Atom  11H    basis set group =>   3
Atom  12C    basis set group =>   1
Atom  13C    basis set group =>   1
Atom  14C    basis set group =>   1
Atom  15C    basis set group =>   1
Atom  16H    basis set group =>   3
Atom  17H    basis set group =>   3
Atom  18H    basis set group =>   3
Atom  19H    basis set group =>   3
Atom  20H    basis set group =>   3
Atom  21H    basis set group =>   3
Atom  22H    basis set group =>   3
Atom  23H    basis set group =>   3
Atom  24H    basis set group =>   3
Atom  25H    basis set group =>   3
Atom  26H    basis set group =>   3
Atom  27H    basis set group =>   3
---------------------------------
AUXILIARY/J BASIS SET INFORMATION
---------------------------------
There are 3 groups of distinct atoms

 Group   1 Type C   : 12s5p4d2f1g contracted to 6s4p3d1f1g pattern {711111/2111/211/2/1}
 Group   2 Type N   : 12s5p4d2f1g contracted to 6s4p3d1f1g pattern {711111/2111/211/2/1}
 Group   3 Type H   : 5s2p1d contracted to 3s1p1d pattern {311/2/1}

Atom   0C    basis set group =>   1
Atom   1C    basis set group =>   1
Atom   2N    basis set group =>   2
Atom   3N    basis set group =>   2
Atom   4C    basis set group =>   1
Atom   5H    basis set group =>   3
Atom   6H    basis set group =>   3
Atom   7C    basis set group =>   1
Atom   8C    basis set group =>   1
Atom   9H    basis set group =>   3
Atom  10H    basis set group =>   3
Atom  11H    basis set group =>   3
Atom  12C    basis set group =>   1
Atom  13C    basis set group =>   1
Atom  14C    basis set group =>   1
Atom  15C    basis set group =>   1
Atom  16H    basis set group =>   3
Atom  17H    basis set group =>   3
Atom  18H    basis set group =>   3
Atom  19H    basis set group =>   3
Atom  20H    basis set group =>   3
Atom  21H    basis set group =>   3
Atom  22H    basis set group =>   3
Atom  23H    basis set group =>   3
Atom  24H    basis set group =>   3
Atom  25H    basis set group =>   3
Atom  26H    basis set group =>   3
Atom  27H    basis set group =>   3


           ************************************************************
           *        Program running with 8 parallel MPI-processes     *
           *              working on a common directory               *
           ************************************************************
------------------------------------------------------------------------------
                           ORCA GTO INTEGRAL CALCULATION
                           -- RI-GTO INTEGRALS CHOSEN --
------------------------------------------------------------------------------
------------------------------------------------------------------------------
                   ___                                                        
                  /   \      - P O W E R E D   B Y -                         
                 /     \                                                     
                 |  |  |   _    _      __       _____    __    __             
                 |  |  |  | |  | |    /  \     |  _  \  |  |  /  |          
                  \  \/   | |  | |   /    \    | | | |  |  | /  /          
                 / \  \   | |__| |  /  /\  \   | |_| |  |  |/  /          
                |  |  |   |  __  | /  /__\  \  |    /   |      \           
                |  |  |   | |  | | |   __   |  |    \   |  |\   \          
                \     /   | |  | | |  |  |  |  | |\  \  |  | \   \       
                 \___/    |_|  |_| |__|  |__|  |_| \__\ |__|  \__/        
                                                                              
                      - O R C A' S   B I G   F R I E N D -                    
                                      &                                       
                       - I N T E G R A L  F E E D E R -                       
                                                                              
 v1 FN, 2020, v2 2021                                                         
------------------------------------------------------------------------------


Reading SHARK input file Min_369.SHARKINP.tmp ... ok
----------------------
SHARK INTEGRAL PACKAGE
----------------------

Number of atoms                             ...     28
Number of basis functions                   ...    239
Number of shells                            ...    117
Maximum angular momentum                    ...      2
Integral batch strategy                     ... SHARK/LIBINT Hybrid
RI-J (if used) integral strategy            ... SPLIT-RIJ (Revised 2003 algorithm where possible)
Printlevel                                  ...      1
Contraction scheme used                     ... SEGMENTED contraction
Coulomb Range Separation                    ... NOT USED
Exchange Range Separation                   ... Long Range
   Mu parameter                             ...  0.300000
   Scaling (regular/separated)              ...  0.157706  0.842294
Finite Nucleus Model                        ... NOT USED
Auxiliary Coulomb fitting basis             ... AVAILABLE
   # of basis functions in Aux-J            ...    726
   # of shells in Aux-J                     ...    250
   Maximum angular momentum in Aux-J        ...      4
Auxiliary J/K fitting basis                 ... NOT available
Auxiliary Correlation fitting basis         ... NOT available
Auxiliary 'external' fitting basis          ... NOT available
Integral threshold                          ...     2.500000e-11
Primitive cut-off                           ...     2.500000e-12
Primitive pair pre-selection threshold      ...     2.500000e-12

Calculating pre-screening integrals         ... done (  0.0 sec) Dimension = 117
Organizing shell pair data                  ... done (  0.0 sec)
Shell pair information
Total number of shell pairs                 ...      6903
Shell pairs after pre-screening             ...      5993
Total number of primitive shell pairs       ...     23847
Primitive shell pairs kept                  ...     14668
          la=0 lb=0:   2039 shell pairs
          la=1 lb=0:   2263 shell pairs
          la=1 lb=1:    650 shell pairs
          la=2 lb=0:    632 shell pairs
          la=2 lb=1:    354 shell pairs
          la=2 lb=2:     55 shell pairs

Calculating one electron integrals          ... done (  0.0 sec)
Calculating RI/J V-Matrix + Cholesky decomp.... done (  0.0 sec)
Calculating Nuclear repulsion               ... done (  0.0 sec) ENN=    640.944240785834 Eh

SHARK setup successfully completed in   0.4 seconds

Maximum memory used throughout the entire GTOINT-calculation: 14.4 MB


           ************************************************************
           *        Program running with 8 parallel MPI-processes     *
           *              working on a common directory               *
           ************************************************************
-------------------------------------------------------------------------------
                                 ORCA SCF
-------------------------------------------------------------------------------

------------
SCF SETTINGS
------------
Hamiltonian:
 Density Functional     Method          .... DFT(GTOs)
 Exchange Functional    Exchange        .... WB97X
 Correlation Functional Correlation     .... WB97X
 Gradients option       PostSCFGGA      .... off
 Hybrid DFT is turned on
   Fraction HF Exchange ScalHFX         ....  0.157706
   Scaling of DF-GGA-X  ScalDFX         ....  0.000000
   Scaling of DF-GGA-C  ScalDFC         ....  1.000000
   Scaling of DF-LDA-C  ScalLDAC        ....  1.000000
   Perturbative correction              ....  0.000000
   Density functional embedding theory  .... OFF
 Long-range corrected/Screened/Range-Separated Hybrid DFT is turned on
   Amount of maximum screened exact exchange              ....  0.842294
   Range separation parameter mu (erf(mu*r12)/r12)        ....  0.300000
 RI-approximation to the Coulomb term is turned on
   Number of AuxJ basis functions       .... 726
   RIJ-COSX (HFX calculated with COS-X)).... on


General Settings:
 Integral files         IntName         .... Min_369
 Hartree-Fock type      HFTyp           .... RHF
 Total Charge           Charge          ....    1
 Multiplicity           Mult            ....    1
 Number of Electrons    NEL             ....   84
 Basis Dimension        Dim             ....  239
 Nuclear Repulsion      ENuc            ....    640.9442407858 Eh

Convergence Acceleration:
 DIIS                   CNVDIIS         .... on
   Start iteration      DIISMaxIt       ....     0
   Startup error        DIISStart       ....  0.200000
   # of expansion vecs  DIISMaxEq       ....     5
   Bias factor          DIISBfac        ....   1.050
   Max. coefficient     DIISMaxC        ....  10.000
 Trust-Rad. Augm. Hess. CNVTRAH         .... auto
   Auto Start mean grad. ratio tolernc. ....  1.125000
   Auto Start start iteration           ....    20
   Auto Start num. interpolation iter.  ....    10
   Max. Number of Micro iterations      ....    16
   Max. Number of Macro iterations      .... Maxiter - #DIIS iter
   Number of Davidson start vectors     ....     2
   Converg. threshold I  (grad. norm)   ....   1.000e-05
   Converg. threshold II (energy diff.) ....   1.000e-08
   Grad. Scal. Fac. for Micro threshold ....   0.100
   Minimum threshold for Micro iter.    ....   0.010
   NR start threshold (gradient norm)   ....   0.001
   Initial trust radius                 ....   0.400
   Minimum AH scaling param. (alpha)    ....   1.000
   Maximum AH scaling param. (alpha)    .... 1000.000
   Orbital update algorithm             .... Taylor
   White noise on init. David. guess    .... on
   Maximum white noise                  ....   0.010
   Quad. conv. algorithm                .... NR
 SOSCF                  CNVSOSCF        .... on
   Start iteration      SOSCFMaxIt      ....   150
   Startup grad/error   SOSCFStart      ....  0.001000
 Level Shifting         CNVShift        .... on
   Level shift para.    LevelShift      ....    0.2500
   Turn off err/grad.   ShiftErr        ....    0.0000
 Zerner damping         CNVZerner       .... off
 Static damping         CNVDamp         .... on
   Fraction old density DampFac         ....    0.8500
   Max. Damping (<1)    DampMax         ....    0.9800
   Min. Damping (>=0)   DampMin         ....    0.0000
   Turn off err/grad.   DampErr         ....    0.0300
 Fernandez-Rico         CNVRico         .... off

SCF Procedure:
 Maximum # iterations   MaxIter         .... 20000
 SCF integral mode      SCFMode         .... Direct
   Integral package                     .... SHARK and LIBINT hybrid scheme
 Reset frequency        DirectResetFreq ....    20
 Integral Threshold     Thresh          ....  2.500e-11 Eh
 Primitive CutOff       TCut            ....  2.500e-12 Eh

Convergence Tolerance:
 Convergence Check Mode ConvCheckMode   .... Total+1el-Energy
 Convergence forced     ConvForced      .... 0
 Energy Change          TolE            ....  1.000e-08 Eh
 1-El. energy change                    ....  1.000e-05 Eh
 Orbital Gradient       TolG            ....  1.000e-05
 Orbital Rotation angle TolX            ....  1.000e-05
 DIIS Error             TolErr          ....  5.000e-07


Diagonalization of the overlap matrix:
Smallest eigenvalue                        ... 1.432e-03
Time for diagonalization                   ...    0.010 sec
Threshold for overlap eigenvalues          ... 1.000e-08
Number of eigenvalues below threshold      ... 0
Time for construction of square roots      ...    0.007 sec
Total time needed                          ...    0.018 sec

Time for model grid setup =    0.142 sec

------------------------------
INITIAL GUESS: MODEL POTENTIAL
------------------------------
Loading Hartree-Fock densities                     ... done
Calculating cut-offs                               ... done
Initializing the effective Hamiltonian             ... done
Setting up the integral package (SHARK)            ... done
Starting the Coulomb interaction                   ... done (   0.1 sec)
Reading the grid                                   ... done
Mapping shells                                     ... done
Starting the XC term evaluation                    ... done (   0.1 sec)
  promolecular density results
     # of electrons  =     84.995239346
     EX              =    -64.138790376
     EC              =     -2.803750290
     EX+EC           =    -66.942540666
Transforming the Hamiltonian                       ... done (   0.0 sec)
Diagonalizing the Hamiltonian                      ... done (   0.0 sec)
Back transforming the eigenvectors                 ... done (   0.0 sec)
Now organizing SCF variables                       ... done
                      ------------------
                      INITIAL GUESS DONE (   0.4 sec)
                      ------------------
-------------------
DFT GRID GENERATION
-------------------

General Integration Accuracy     IntAcc      ... 4.388
Radial Grid Type                 RadialGrid  ... OptM3 with GC (2021)
Angular Grid (max. ang.)         AngularGrid ... 4 (Lebedev-302)
Angular grid pruning method      GridPruning ... 4 (adaptive)
Weight generation scheme         WeightScheme... Becke
Basis function cutoff            BFCut       ... 1.0000e-11
Integration weight cutoff        WCut        ... 1.0000e-14
Angular grids for H and He will be reduced by one unit
Partially contracted basis set               ... off
Rotationally invariant grid construction     ... off

Total number of grid points                  ...   120236
Total number of batches                      ...     1892
Average number of points per batch           ...       63
Average number of grid points per atom       ...     4294
Time for grid setup =    0.709 sec

--------------------
COSX GRID GENERATION
--------------------

GRIDX 1
-------
General Integration Accuracy     IntAcc      ... 3.816
Radial Grid Type                 RadialGrid  ... OptM3 with GC (2021)
Angular Grid (max. ang.)         AngularGrid ... 1 (Lebedev-50)
Angular grid pruning method      GridPruning ... 4 (adaptive)
Weight generation scheme         WeightScheme... Becke
Basis function cutoff            BFCut       ... 1.0000e-11
Integration weight cutoff        WCut        ... 1.0000e-14
Angular grids for H and He will be reduced by one unit
Partially contracted basis set               ... on
Rotationally invariant grid construction     ... off

Total number of grid points                  ...    15378
Total number of batches                      ...      254
Average number of points per batch           ...       60
Average number of grid points per atom       ...      549
UseSFitting                                  ... on

GRIDX 2
-------
General Integration Accuracy     IntAcc      ... 4.020
Radial Grid Type                 RadialGrid  ... OptM3 with GC (2021)
Angular Grid (max. ang.)         AngularGrid ... 2 (Lebedev-110)
Angular grid pruning method      GridPruning ... 4 (adaptive)
Weight generation scheme         WeightScheme... Becke
Basis function cutoff            BFCut       ... 1.0000e-11
Integration weight cutoff        WCut        ... 1.0000e-14
Angular grids for H and He will be reduced by one unit
Partially contracted basis set               ... on
Rotationally invariant grid construction     ... off

Total number of grid points                  ...    32145
Total number of batches                      ...      516
Average number of points per batch           ...       62
Average number of grid points per atom       ...     1148
UseSFitting                                  ... on

GRIDX 3
-------
General Integration Accuracy     IntAcc      ... 4.338
Radial Grid Type                 RadialGrid  ... OptM3 with GC (2021)
Angular Grid (max. ang.)         AngularGrid ... 3 (Lebedev-194)
Angular grid pruning method      GridPruning ... 4 (adaptive)
Weight generation scheme         WeightScheme... Becke
Basis function cutoff            BFCut       ... 1.0000e-11
Integration weight cutoff        WCut        ... 1.0000e-14
Angular grids for H and He will be reduced by one unit
Partially contracted basis set               ... on
Rotationally invariant grid construction     ... off

Total number of grid points                  ...    70050
Total number of batches                      ...     1109
Average number of points per batch           ...       63
Average number of grid points per atom       ...     2502
UseSFitting                                  ... on

Time for X-Grid setup             =    1.082 sec


--------------------
CPCM SOLVATION MODEL
--------------------
CPCM parameters:
  Epsilon                                         ...      80.4000
  Refrac                                          ...       1.3300
  Rsolv                                           ...       1.3000
  Surface type                                    ... GAUSSIAN VDW
  Epsilon function type                           ...         CPCM
Radii:
 Radius for C  used is    3.8550 Bohr (=   2.0400 Ang.)
 Radius for N  used is    3.5149 Bohr (=   1.8600 Ang.)
 Radius for H  used is    2.4944 Bohr (=   1.3200 Ang.)
Calculating surface                               ...        done! (  0.0s)
GEPOL surface points                              ...         1529
GEPOL Volume                                      ...    1472.8904
GEPOL Surface-area                                ...     826.2306
Calculating surface distance matrix               ...        done! (  0.0s)
Performing Cholesky decomposition & store         ...        done! (  0.1s)
Overall time for CPCM initialization              ...                 0.2s
--------------
SCF ITERATIONS
--------------
ITER       Energy         Delta-E        Max-DP      RMS-DP      [F,P]     Damp
               ***  Starting incremental Fock matrix formation  ***
  0   -461.9079840780   0.000000000000 0.03272262  0.00060359  0.1477088 0.8500
  1   -461.9485547155  -0.040570637455 0.02945864  0.00056833  0.1186280 0.8500
                               ***Turning on DIIS***
  2   -461.9792563735  -0.030701658016 0.02301498  0.00046289  0.0906971 0.8500
  3   -462.0019384834  -0.022682109894 0.01426900  0.00032842  0.0684357 0.8500
  4   -462.0193697136  -0.017431230217 0.00952094  0.00025139  0.0543487 0.8500
  5   -462.0330597396  -0.013690026010 0.00721016  0.00020604  0.0448841 0.8500
  6   -462.0441683945  -0.011108654817 0.00583434  0.00017376  0.0377310 0.8500
  7   -462.0533524425  -0.009184048024 0.00498115  0.00014950  0.0319470 0.8500
  8   -462.0610302730  -0.007677830560 0.02835332  0.00085762  0.0270093 0.0000
  9   -462.1022728248  -0.041242551787 0.00132239  0.00003110  0.0011824 0.0000
                      *** Initiating the SOSCF procedure ***
                           *** Shutting down DIIS ***
                      *** Re-Reading the Fockian *** 
                      *** Removing any level shift *** 
ITER      Energy       Delta-E        Grad      Rot      Max-DP    RMS-DP
 10   -462.10228891  -0.0000160830  0.000115  0.000115  0.000391  0.000012
               *** Restarting incremental Fock matrix formation ***
 11   -462.10229552  -0.0000066140  0.000076  0.000163  0.000350  0.000009
 12   -462.10229586  -0.0000003419  0.000050  0.000094  0.000175  0.000005
 13   -462.10229594  -0.0000000747  0.000015  0.000019  0.000055  0.000002
 14   -462.10229595  -0.0000000110  0.000010  0.000014  0.000021  0.000001
 15   -462.10229595  -0.0000000033  0.000004  0.000008  0.000009  0.000000
                  ***Gradient check signals convergence***
              ***Rediagonalizing the Fockian in SOSCF/NRSCF***

               *****************************************************
               *                     SUCCESS                       *
               *           SCF CONVERGED AFTER  16 CYCLES          *
               *****************************************************

Old exchange energy                            =    -21.367965179 Eh
New exchange energy                            =    -21.367937561 Eh
Exchange energy change after final integration =      0.000027617 Eh
Total energy after final integration           =   -462.102268329 Eh
Final COS-X integration done in                =     7.788 sec

----------------
TOTAL SCF ENERGY
----------------

Total Energy       :         -462.10226833 Eh          -12574.44199 eV

Components:
Nuclear Repulsion  :          640.94424079 Eh           17440.97947 eV
Electronic Energy  :        -1103.04650912 Eh          -30015.42147 eV
One Electron Energy:        -1878.57470716 Eh          -51118.61660 eV
Two Electron Energy:          775.52819804 Eh           21103.19513 eV
Max COSX asymmetry :            0.00000224 Eh               0.00006 eV
CPCM Dielectric    :           -0.07938310 Eh              -2.16012 eV

Virial components:
Potential Energy   :         -918.12184638 Eh          -24983.36557 eV
Kinetic Energy     :          456.01957805 Eh           12408.92358 eV
Virial Ratio       :            2.01333866


DFT components:
N(Alpha)           :       41.999972984823 electrons
N(Beta)            :       41.999972984823 electrons
N(Total)           :       83.999945969647 electrons
E(XC)              :      -47.088184994325 Eh       
DFET-embed. en.    :        0.000000000000 Eh       
CPCM Solvation Model Properties:
Surface-charge          :           -1.02216153
Charge-correction       :            0.00295830 Eh               0.08050 eV
Free-energy (cav+disp)  :  This term is not implemented in the current solvation scheme

---------------
SCF CONVERGENCE
---------------

  Last Energy change         ...    6.0363e-09  Tolerance :   1.0000e-08
  Last MAX-Density change    ...    3.9968e-15  Tolerance :   1.0000e-07
  Last RMS-Density change    ...    4.3498e-17  Tolerance :   5.0000e-09
  Last Orbital Gradient      ...    1.0274e-06  Tolerance :   1.0000e-05
  Last Orbital Rotation      ...    3.1363e-06  Tolerance :   1.0000e-05

             **** THE GBW FILE WAS UPDATED (Min_369.gbw) ****
             **** DENSITY Min_369.scfp WAS UPDATED ****
             **** ENERGY FILE WAS UPDATED (Min_369.en.tmp) ****
             **** THE GBW FILE WAS UPDATED (Min_369.gbw) ****
             **** DENSITY Min_369.scfp WAS UPDATED ****
----------------
ORBITAL ENERGIES
----------------

  NO   OCC          E(Eh)            E(eV) 
   0   2.0000     -14.515366      -394.9832 
   1   2.0000     -14.511425      -394.8759 
   2   2.0000     -10.386704      -282.6366 
   3   2.0000     -10.342490      -281.4335 
   4   2.0000     -10.342226      -281.4263 
   5   2.0000     -10.336886      -281.2810 
   6   2.0000     -10.335544      -281.2445 
   7   2.0000     -10.285027      -279.8698 
   8   2.0000     -10.280707      -279.7523 
   9   2.0000     -10.280221      -279.7390 
  10   2.0000     -10.274633      -279.5870 
  11   2.0000      -1.202596       -32.7243 
  12   2.0000      -1.092882       -29.7388 
  13   2.0000      -0.963820       -26.2269 
  14   2.0000      -0.913465       -24.8566 
  15   2.0000      -0.909978       -24.7618 
  16   2.0000      -0.819494       -22.2996 
  17   2.0000      -0.815931       -22.2026 
  18   2.0000      -0.791849       -21.5473 
  19   2.0000      -0.786970       -21.4145 
  20   2.0000      -0.738131       -20.0856 
  21   2.0000      -0.702110       -19.1054 
  22   2.0000      -0.666824       -18.1452 
  23   2.0000      -0.629401       -17.1269 
  24   2.0000      -0.613192       -16.6858 
  25   2.0000      -0.588362       -16.0101 
  26   2.0000      -0.578897       -15.7526 
  27   2.0000      -0.572279       -15.5725 
  28   2.0000      -0.567015       -15.4293 
  29   2.0000      -0.558504       -15.1977 
  30   2.0000      -0.542516       -14.7626 
  31   2.0000      -0.512016       -13.9327 
  32   2.0000      -0.505517       -13.7558 
  33   2.0000      -0.502445       -13.6722 
  34   2.0000      -0.494564       -13.4578 
  35   2.0000      -0.488302       -13.2874 
  36   2.0000      -0.468128       -12.7384 
  37   2.0000      -0.461269       -12.5518 
  38   2.0000      -0.456900       -12.4329 
  39   2.0000      -0.454880       -12.3779 
  40   2.0000      -0.412309       -11.2195 
  41   2.0000      -0.374192       -10.1823 
  42   0.0000       0.044658         1.2152 
  43   0.0000       0.090423         2.4605 
  44   0.0000       0.136718         3.7203 
  45   0.0000       0.142405         3.8750 
  46   0.0000       0.163331         4.4445 
  47   0.0000       0.172808         4.7023 
  48   0.0000       0.176880         4.8131 
  49   0.0000       0.191129         5.2009 
  50   0.0000       0.197695         5.3795 
  51   0.0000       0.200175         5.4470 
  52   0.0000       0.207860         5.6562 
  53   0.0000       0.214816         5.8454 
  54   0.0000       0.217868         5.9285 
  55   0.0000       0.237531         6.4635 
  56   0.0000       0.242122         6.5885 
  57   0.0000       0.244757         6.6602 
  58   0.0000       0.251468         6.8428 
  59   0.0000       0.254116         6.9149 
  60   0.0000       0.263591         7.1727 
  61   0.0000       0.264784         7.2051 
  62   0.0000       0.275438         7.4951 
  63   0.0000       0.281345         7.6558 
  64   0.0000       0.295187         8.0325 
  65   0.0000       0.299448         8.1484 
  66   0.0000       0.308053         8.3826 
  67   0.0000       0.327061         8.8998 
  68   0.0000       0.329366         8.9625 
  69   0.0000       0.348980         9.4962 
  70   0.0000       0.413404        11.2493 
  71   0.0000       0.422082        11.4854 
  72   0.0000       0.451550        12.2873 
  73   0.0000       0.465235        12.6597 
  74   0.0000       0.493534        13.4297 
  75   0.0000       0.496647        13.5145 
  76   0.0000       0.501488        13.6462 
  77   0.0000       0.514261        13.9937 
  78   0.0000       0.519093        14.1252 
  79   0.0000       0.522567        14.2198 
  80   0.0000       0.538778        14.6609 
  81   0.0000       0.549840        14.9619 
  82   0.0000       0.592885        16.1332 
  83   0.0000       0.600120        16.3301 
  84   0.0000       0.620387        16.8816 
  85   0.0000       0.637598        17.3499 
  86   0.0000       0.646596        17.5948 
  87   0.0000       0.663070        18.0430 
  88   0.0000       0.671629        18.2760 
  89   0.0000       0.679122        18.4798 
  90   0.0000       0.701017        19.0756 
  91   0.0000       0.706053        19.2127 
  92   0.0000       0.714158        19.4332 
  93   0.0000       0.720648        19.6098 
  94   0.0000       0.727672        19.8010 
  95   0.0000       0.731104        19.8944 
  96   0.0000       0.738564        20.0974 
  97   0.0000       0.746387        20.3102 
  98   0.0000       0.754562        20.5327 
  99   0.0000       0.760225        20.6868 
 100   0.0000       0.763801        20.7841 
 101   0.0000       0.771490        20.9933 
 102   0.0000       0.779840        21.2205 
 103   0.0000       0.782618        21.2961 
 104   0.0000       0.785959        21.3870 
 105   0.0000       0.793937        21.6041 
 106   0.0000       0.795931        21.6584 
 107   0.0000       0.802831        21.8461 
 108   0.0000       0.806972        21.9588 
 109   0.0000       0.814386        22.1606 
 110   0.0000       0.815440        22.1892 
 111   0.0000       0.820268        22.3206 
 112   0.0000       0.829172        22.5629 
 113   0.0000       0.829734        22.5782 
 114   0.0000       0.834989        22.7212 
 115   0.0000       0.850014        23.1301 
 116   0.0000       0.883199        24.0331 
 117   0.0000       0.907599        24.6970 
 118   0.0000       0.961229        26.1564 
 119   0.0000       0.982075        26.7236 
 120   0.0000       1.009138        27.4600 
 121   0.0000       1.025875        27.9155 
 122   0.0000       1.066601        29.0237 
 123   0.0000       1.114146        30.3175 
 124   0.0000       1.126281        30.6477 
 125   0.0000       1.145316        31.1656 
 126   0.0000       1.162899        31.6441 
 127   0.0000       1.182143        32.1677 
 128   0.0000       1.210808        32.9478 
 129   0.0000       1.229423        33.4543 
 130   0.0000       1.259200        34.2646 
 131   0.0000       1.261807        34.3355 
 132   0.0000       1.308466        35.6052 
 133   0.0000       1.336852        36.3776 
 134   0.0000       1.354800        36.8660 
 135   0.0000       1.404096        38.2074 
 136   0.0000       1.408010        38.3139 
 137   0.0000       1.435710        39.0677 
 138   0.0000       1.459367        39.7114 
 139   0.0000       1.468121        39.9496 
 140   0.0000       1.513787        41.1922 
 141   0.0000       1.521218        41.3945 
 142   0.0000       1.570017        42.7223 
 143   0.0000       1.605616        43.6910 
 144   0.0000       1.612842        43.8877 
 145   0.0000       1.617173        44.0055 
 146   0.0000       1.632135        44.4127 
 147   0.0000       1.641164        44.6583 
 148   0.0000       1.657560        45.1045 
 149   0.0000       1.706255        46.4295 
 150   0.0000       1.719819        46.7987 
 151   0.0000       1.756915        47.8081 
 152   0.0000       1.769206        48.1426 
 153   0.0000       1.776731        48.3473 
 154   0.0000       1.782597        48.5069 
 155   0.0000       1.807046        49.1722 
 156   0.0000       1.811622        49.2968 
 157   0.0000       1.825708        49.6800 
 158   0.0000       1.829383        49.7800 
 159   0.0000       1.849012        50.3142 
 160   0.0000       1.860886        50.6373 
 161   0.0000       1.868732        50.8508 
 162   0.0000       1.879012        51.1305 
 163   0.0000       1.880922        51.1825 
 164   0.0000       1.890337        51.4387 
 165   0.0000       1.901412        51.7401 
 166   0.0000       1.908329        51.9283 
 167   0.0000       1.912615        52.0449 
 168   0.0000       1.926731        52.4290 
 169   0.0000       1.941909        52.8420 
 170   0.0000       1.960187        53.3394 
 171   0.0000       1.961571        53.3771 
 172   0.0000       1.972003        53.6609 
 173   0.0000       1.979896        53.8757 
 174   0.0000       1.985109        54.0176 
 175   0.0000       1.999964        54.4218 
 176   0.0000       2.003043        54.5056 
 177   0.0000       2.009654        54.6855 
 178   0.0000       2.028841        55.2076 
 179   0.0000       2.036220        55.4084 
 180   0.0000       2.062687        56.1286 
 181   0.0000       2.070429        56.3392 
 182   0.0000       2.072930        56.4073 
 183   0.0000       2.121289        57.7232 
 184   0.0000       2.137534        58.1653 
 185   0.0000       2.162525        58.8453 
 186   0.0000       2.173678        59.1488 
 187   0.0000       2.203820        59.9690 
 188   0.0000       2.218034        60.3558 
 189   0.0000       2.237741        60.8920 
 190   0.0000       2.249082        61.2006 
 191   0.0000       2.299711        62.5783 
 192   0.0000       2.312250        62.9195 
 193   0.0000       2.344475        63.7964 
 194   0.0000       2.359522        64.2058 
 195   0.0000       2.397092        65.2282 
 196   0.0000       2.422699        65.9250 
 197   0.0000       2.439876        66.3924 
 198   0.0000       2.446436        66.5709 
 199   0.0000       2.471063        67.2411 
 200   0.0000       2.472383        67.2770 
 201   0.0000       2.502313        68.0914 
 202   0.0000       2.520410        68.5839 
 203   0.0000       2.526854        68.7592 
 204   0.0000       2.547558        69.3226 
 205   0.0000       2.561573        69.7040 
 206   0.0000       2.579941        70.2038 
 207   0.0000       2.591408        70.5158 
 208   0.0000       2.619796        71.2883 
 209   0.0000       2.634652        71.6925 
 210   0.0000       2.653145        72.1957 
 211   0.0000       2.673174        72.7408 
 212   0.0000       2.733534        74.3832 
 213   0.0000       2.754612        74.9568 
 214   0.0000       2.776565        75.5542 
 215   0.0000       2.795394        76.0665 
 216   0.0000       2.805881        76.3519 
 217   0.0000       2.842613        77.3514 
 218   0.0000       2.890034        78.6418 
 219   0.0000       2.913803        79.2886 
 220   0.0000       2.933424        79.8225 
 221   0.0000       2.938185        79.9521 
 222   0.0000       2.953765        80.3760 
 223   0.0000       2.967719        80.7557 
 224   0.0000       2.976036        80.9820 
 225   0.0000       2.982144        81.1483 
 226   0.0000       2.997005        81.5526 
 227   0.0000       3.014966        82.0414 
 228   0.0000       3.027077        82.3710 
 229   0.0000       3.055293        83.1388 
 230   0.0000       3.071945        83.5919 
 231   0.0000       3.080670        83.8293 
 232   0.0000       3.109450        84.6124 
 233   0.0000       3.149411        85.6998 
 234   0.0000       3.166982        86.1780 
 235   0.0000       3.260476        88.7221 
 236   0.0000       3.446743        93.7906 
 237   0.0000       3.511468        95.5519 
 238   0.0000       3.582586        97.4871 

                    ********************************
                    * MULLIKEN POPULATION ANALYSIS *
                    ********************************

-----------------------
MULLIKEN ATOMIC CHARGES
-----------------------
   0 C :    0.056890
   1 C :    0.097687
   2 N :   -0.232861
   3 N :   -0.216010
   4 C :    0.252750
   5 H :    0.131534
   6 H :    0.074483
   7 C :   -0.036885
   8 C :   -0.025894
   9 H :    0.074560
  10 H :    0.073802
  11 H :    0.125465
  12 C :   -0.024768
  13 C :   -0.042112
  14 C :    0.001432
  15 C :   -0.070547
  16 H :    0.054200
  17 H :    0.052196
  18 H :    0.058326
  19 H :    0.059931
  20 H :    0.067825
  21 H :    0.041980
  22 H :    0.060294
  23 H :    0.062661
  24 H :    0.076175
  25 H :    0.074507
  26 H :    0.072109
  27 H :    0.080270
Sum of atomic charges:    1.0000000

--------------------------------
MULLIKEN REDUCED ORBITAL CHARGES
--------------------------------
  0 C s       :     3.160814  s :     3.160814
      pz      :     0.955696  p :     2.736170
      px      :     0.928320
      py      :     0.852154
      dz2     :     0.006540  d :     0.046126
      dxz     :     0.007587
      dyz     :     0.009040
      dx2y2   :     0.010458
      dxy     :     0.012500
  1 C s       :     3.131632  s :     3.131632
      pz      :     0.976033  p :     2.722705
      px      :     0.795622
      py      :     0.951050
      dz2     :     0.005100  d :     0.047976
      dxz     :     0.012257
      dyz     :     0.005694
      dx2y2   :     0.012133
      dxy     :     0.012793
  2 N s       :     3.422948  s :     3.422948
      pz      :     1.404156  p :     3.778798
      px      :     1.154833
      py      :     1.219809
      dz2     :     0.004265  d :     0.031115
      dxz     :     0.005266
      dyz     :     0.005491
      dx2y2   :     0.009104
      dxy     :     0.006989
  3 N s       :     3.413194  s :     3.413194
      pz      :     1.369371  p :     3.771722
      px      :     1.186046
      py      :     1.216305
      dz2     :     0.004778  d :     0.031093
      dxz     :     0.005826
      dyz     :     0.004315
      dx2y2   :     0.009378
      dxy     :     0.006797
  4 C s       :     3.096594  s :     3.096594
      pz      :     0.912041  p :     2.587311
      px      :     0.833027
      py      :     0.842244
      dz2     :     0.007031  d :     0.063344
      dxz     :     0.011629
      dyz     :     0.010242
      dx2y2   :     0.019235
      dxy     :     0.015206
  5 H s       :     0.845091  s :     0.845091
      pz      :     0.005033  p :     0.023375
      px      :     0.015833
      py      :     0.002508
  6 H s       :     0.899625  s :     0.899625
      pz      :     0.008742  p :     0.025892
      px      :     0.002313
      py      :     0.014838
  7 C s       :     3.105472  s :     3.105472
      pz      :     1.045023  p :     2.875978
      px      :     1.032503
      py      :     0.798451
      dz2     :     0.009508  d :     0.055436
      dxz     :     0.010465
      dyz     :     0.010989
      dx2y2   :     0.013432
      dxy     :     0.011041
  8 C s       :     3.111651  s :     3.111651
      pz      :     1.059604  p :     2.859834
      px      :     0.750208
      py      :     1.050023
      dz2     :     0.013022  d :     0.054409
      dxz     :     0.007989
      dyz     :     0.009351
      dx2y2   :     0.012910
      dxy     :     0.011137
  9 H s       :     0.904045  s :     0.904045
      pz      :     0.011824  p :     0.021395
      px      :     0.006479
      py      :     0.003092
 10 H s       :     0.903981  s :     0.903981
      pz      :     0.004922  p :     0.022217
      px      :     0.006315
      py      :     0.010979
 11 H s       :     0.849237  s :     0.849237
      pz      :     0.005510  p :     0.025298
      px      :     0.009389
      py      :     0.010399
 12 C s       :     3.058458  s :     3.058458
      pz      :     0.974129  p :     2.942177
      px      :     1.016549
      py      :     0.951500
      dz2     :     0.002974  d :     0.024132
      dxz     :     0.006043
      dyz     :     0.006650
      dx2y2   :     0.005611
      dxy     :     0.002854
 13 C s       :     3.024599  s :     3.024599
      pz      :     0.920227  p :     2.991852
      px      :     1.024540
      py      :     1.047085
      dz2     :     0.006041  d :     0.025661
      dxz     :     0.003677
      dyz     :     0.007336
      dx2y2   :     0.004952
      dxy     :     0.003655
 14 C s       :     3.028612  s :     3.028612
      pz      :     0.984188  p :     2.944958
      px      :     1.010287
      py      :     0.950483
      dz2     :     0.005763  d :     0.024998
      dxz     :     0.002816
      dyz     :     0.006113
      dx2y2   :     0.007471
      dxy     :     0.002836
 15 C s       :     3.060886  s :     3.060886
      pz      :     1.007877  p :     2.984567
      px      :     0.937824
      py      :     1.038866
      dz2     :     0.002798  d :     0.025094
      dxz     :     0.006544
      dyz     :     0.006223
      dx2y2   :     0.006740
      dxy     :     0.002789
 16 H s       :     0.922407  s :     0.922407
      pz      :     0.009514  p :     0.023393
      px      :     0.008731
      py      :     0.005148
 17 H s       :     0.924591  s :     0.924591
      pz      :     0.005113  p :     0.023213
      px      :     0.006533
      py      :     0.011567
 18 H s       :     0.917956  s :     0.917956
      pz      :     0.005948  p :     0.023718
      px      :     0.005982
      py      :     0.011788
 19 H s       :     0.916767  s :     0.916767
      pz      :     0.011310  p :     0.023302
      px      :     0.007125
      py      :     0.004868
 20 H s       :     0.909611  s :     0.909611
      pz      :     0.004820  p :     0.022565
      px      :     0.013737
      py      :     0.004008
 21 H s       :     0.933000  s :     0.933000
      pz      :     0.007571  p :     0.025020
      px      :     0.006269
      py      :     0.011179
 22 H s       :     0.916548  s :     0.916548
      pz      :     0.013225  p :     0.023158
      px      :     0.005796
      py      :     0.004137
 23 H s       :     0.914616  s :     0.914616
      pz      :     0.008271  p :     0.022723
      px      :     0.003627
      py      :     0.010825
 24 H s       :     0.902269  s :     0.902269
      pz      :     0.004784  p :     0.021556
      px      :     0.005071
      py      :     0.011700
 25 H s       :     0.901828  s :     0.901828
      pz      :     0.003723  p :     0.023665
      px      :     0.015025
      py      :     0.004917
 26 H s       :     0.904207  s :     0.904207
      pz      :     0.004165  p :     0.023684
      px      :     0.015304
      py      :     0.004215
 27 H s       :     0.896991  s :     0.896991
      pz      :     0.006932  p :     0.022739
      px      :     0.004902
      py      :     0.010906


                     *******************************
                     * LOEWDIN POPULATION ANALYSIS *
                     *******************************

----------------------
LOEWDIN ATOMIC CHARGES
----------------------
   0 C :    0.015282
   1 C :    0.028256
   2 N :    0.085062
   3 N :    0.090058
   4 C :    0.150653
   5 H :    0.076180
   6 H :    0.045572
   7 C :    0.034047
   8 C :    0.053730
   9 H :    0.044824
  10 H :    0.046758
  11 H :    0.059035
  12 C :   -0.060669
  13 C :   -0.059788
  14 C :   -0.050739
  15 C :   -0.060425
  16 H :    0.036332
  17 H :    0.037878
  18 H :    0.037216
  19 H :    0.035970
  20 H :    0.038692
  21 H :    0.031512
  22 H :    0.039430
  23 H :    0.040365
  24 H :    0.055253
  25 H :    0.047519
  26 H :    0.052460
  27 H :    0.049536

-------------------------------
LOEWDIN REDUCED ORBITAL CHARGES
-------------------------------
  0 C s       :     2.873078  s :     2.873078
      pz      :     0.987514  p :     3.000467
      px      :     1.056786
      py      :     0.956166
      dz2     :     0.013958  d :     0.111173
      dxz     :     0.015690
      dyz     :     0.021789
      dx2y2   :     0.027232
      dxy     :     0.032504
  1 C s       :     2.843771  s :     2.843771
      pz      :     1.011569  p :     3.008865
      px      :     0.938268
      py      :     1.059028
      dz2     :     0.010455  d :     0.119108
      dxz     :     0.028787
      dyz     :     0.012458
      dx2y2   :     0.032617
      dxy     :     0.034790
  2 N s       :     3.070085  s :     3.070085
      pz      :     1.352223  p :     3.774772
      px      :     1.201124
      py      :     1.221426
      dz2     :     0.008163  d :     0.070081
      dxz     :     0.010423
      dyz     :     0.010922
      dx2y2   :     0.022833
      dxy     :     0.017740
  3 N s       :     3.069167  s :     3.069167
      pz      :     1.330551  p :     3.771229
      px      :     1.197797
      py      :     1.242880
      dz2     :     0.009062  d :     0.069546
      dxz     :     0.012190
      dyz     :     0.009330
      dx2y2   :     0.022781
      dxy     :     0.016183
  4 C s       :     2.849874  s :     2.849874
      pz      :     0.951949  p :     2.854272
      px      :     0.949602
      py      :     0.952721
      dz2     :     0.013505  d :     0.145201
      dxz     :     0.023341
      dyz     :     0.022237
      dx2y2   :     0.048679
      dxy     :     0.037439
  5 H s       :     0.855970  s :     0.855970
      pz      :     0.015315  p :     0.067850
      px      :     0.043831
      py      :     0.008704
  6 H s       :     0.876256  s :     0.876256
      pz      :     0.026456  p :     0.078172
      px      :     0.009999
      py      :     0.041717
  7 C s       :     2.839871  s :     2.839871
      pz      :     1.055440  p :     2.998672
      px      :     1.050515
      py      :     0.892718
      dz2     :     0.020779  d :     0.127410
      dxz     :     0.022753
      dyz     :     0.027530
      dx2y2   :     0.032616
      dxy     :     0.023732
  8 C s       :     2.842131  s :     2.842131
      pz      :     1.073316  p :     2.980509
      px      :     0.838552
      py      :     1.068642
      dz2     :     0.029609  d :     0.123629
      dxz     :     0.016772
      dyz     :     0.021048
      dx2y2   :     0.029724
      dxy     :     0.026477
  9 H s       :     0.886363  s :     0.886363
      pz      :     0.035042  p :     0.068813
      px      :     0.021877
      py      :     0.011894
 10 H s       :     0.882892  s :     0.882892
      pz      :     0.017921  p :     0.070349
      px      :     0.018836
      py      :     0.033592
 11 H s       :     0.862355  s :     0.862355
      pz      :     0.018228  p :     0.078610
      px      :     0.028931
      py      :     0.031451
 12 C s       :     2.866346  s :     2.866346
      pz      :     1.035115  p :     3.131231
      px      :     1.065505
      py      :     1.030611
      dz2     :     0.007349  d :     0.063091
      dxz     :     0.015414
      dyz     :     0.018219
      dx2y2   :     0.015227
      dxy     :     0.006882
 13 C s       :     2.840699  s :     2.840699
      pz      :     0.994577  p :     3.151644
      px      :     1.072569
      py      :     1.084498
      dz2     :     0.017661  d :     0.067444
      dxz     :     0.009407
      dyz     :     0.017859
      dx2y2   :     0.013321
      dxy     :     0.009197
 14 C s       :     2.849274  s :     2.849274
      pz      :     1.046068  p :     3.135335
      px      :     1.064558
      py      :     1.024709
      dz2     :     0.014943  d :     0.066131
      dxz     :     0.007367
      dyz     :     0.016807
      dx2y2   :     0.019836
      dxy     :     0.007178
 15 C s       :     2.853818  s :     2.853818
      pz      :     1.059332  p :     3.140442
      px      :     1.008547
      py      :     1.072564
      dz2     :     0.006917  d :     0.066164
      dxz     :     0.017089
      dyz     :     0.016694
      dx2y2   :     0.018217
      dxy     :     0.007247
 16 H s       :     0.897488  s :     0.897488
      pz      :     0.027317  p :     0.066181
      px      :     0.024089
      py      :     0.014775
 17 H s       :     0.898561  s :     0.898561
      pz      :     0.015862  p :     0.063560
      px      :     0.017643
      py      :     0.030055
 18 H s       :     0.896125  s :     0.896125
      pz      :     0.016755  p :     0.066659
      px      :     0.016275
      py      :     0.033629
 19 H s       :     0.898928  s :     0.898928
      pz      :     0.030942  p :     0.065102
      px      :     0.021001
      py      :     0.013159
 20 H s       :     0.897660  s :     0.897660
      pz      :     0.014261  p :     0.063648
      px      :     0.037782
      py      :     0.011605
 21 H s       :     0.897951  s :     0.897951
      pz      :     0.023563  p :     0.070537
      px      :     0.017070
      py      :     0.029904
 22 H s       :     0.896187  s :     0.896187
      pz      :     0.036906  p :     0.064383
      px      :     0.015593
      py      :     0.011884
 23 H s       :     0.896925  s :     0.896925
      pz      :     0.022272  p :     0.062710
      px      :     0.011200
      py      :     0.029238
 24 H s       :     0.887569  s :     0.887569
      pz      :     0.012901  p :     0.057177
      px      :     0.012550
      py      :     0.031726
 25 H s       :     0.886872  s :     0.886872
      pz      :     0.012225  p :     0.065609
      px      :     0.040416
      py      :     0.012968
 26 H s       :     0.883413  s :     0.883413
      pz      :     0.011238  p :     0.064127
      px      :     0.041409
      py      :     0.011481
 27 H s       :     0.887133  s :     0.887133
      pz      :     0.018480  p :     0.063331
      px      :     0.015081
      py      :     0.029770


                      *****************************
                      * MAYER POPULATION ANALYSIS *
                      *****************************

  NA   - Mulliken gross atomic population
  ZA   - Total nuclear charge
  QA   - Mulliken gross atomic charge
  VA   - Mayer's total valence
  BVA  - Mayer's bonded valence
  FA   - Mayer's free valence

  ATOM       NA         ZA         QA         VA         BVA        FA
  0 C      5.9431     6.0000     0.0569     3.8217     3.8217     0.0000
  1 C      5.9023     6.0000     0.0977     3.8584     3.8584     0.0000
  2 N      7.2329     7.0000    -0.2329     3.4045     3.4045     0.0000
  3 N      7.2160     7.0000    -0.2160     3.4138     3.4138     0.0000
  4 C      5.7472     6.0000     0.2528     3.8570     3.8570     0.0000
  5 H      0.8685     1.0000     0.1315     0.9880     0.9880     0.0000
  6 H      0.9255     1.0000     0.0745     1.0042     1.0042     0.0000
  7 C      6.0369     6.0000    -0.0369     4.0309     4.0309     0.0000
  8 C      6.0259     6.0000    -0.0259     4.0390     4.0390    -0.0000
[...]
     31       0.000651  -0.003294  -0.013293   0.002518   0.000581   0.001283
     32      -0.000914  -0.003216  -0.012986   0.002925   0.000018   0.000482
     33       0.000005   0.000159  -0.000482  -0.628649  -0.027014   0.060874
     34       0.000004  -0.000374   0.000311   0.566003   0.024773  -0.054785
     35       0.000039  -0.000267   0.000336   0.513854   0.022322  -0.049763
     36      -0.000418  -0.024734   0.006868   0.000083  -0.000486   0.000369
     37      -0.000360  -0.026292   0.007373   0.000017   0.000399  -0.000350
     38      -0.000375  -0.025375   0.007085  -0.000043   0.000255  -0.000202
     39      -0.037697  -0.012882  -0.046785  -0.000053   0.000287   0.000320
     40      -0.044873  -0.012686  -0.045646  -0.000038  -0.000340  -0.000308
     41       0.018453   0.006080   0.022015  -0.000034  -0.000181  -0.000158
     42       0.061781  -0.014746  -0.053539  -0.000044   0.000431   0.000445
     43       0.021405  -0.004327  -0.015622  -0.000069  -0.000439  -0.000388
     44       0.029480  -0.005447  -0.019546  -0.000006  -0.000595  -0.000573
     45       0.000167  -0.028268   0.007732   0.000094  -0.000446   0.000329
     46       0.000368  -0.073830   0.020299   0.000036   0.000253  -0.000219
     47      -0.000076   0.006896  -0.001829  -0.000009   0.000458  -0.000370
     48      -0.000647  -0.060775   0.017203  -0.001011   0.004892  -0.003846
     49       0.000392   0.038772  -0.010995   0.000442  -0.003101   0.002490
     50       0.000448   0.045547  -0.012919   0.000994  -0.004026   0.003101
     51       0.019697   0.013692   0.050809  -0.000198  -0.002592  -0.002480
     52      -0.029837  -0.017353  -0.064123   0.000386   0.003008   0.002820
     53      -0.022139  -0.014812  -0.054913   0.000609   0.002963   0.002666
     54      -0.020780   0.011537   0.042747  -0.000495  -0.005111  -0.004821
     55       0.032469  -0.014980  -0.055334   0.000825   0.005984   0.005580
     56       0.029002  -0.012953  -0.047807   0.000363   0.005131   0.004963
     57       0.000188  -0.080558   0.022531  -0.001231   0.005454  -0.004147
     58      -0.000077   0.046837  -0.013154   0.000728  -0.003643   0.002784
     59      -0.000143   0.058243  -0.016297   0.000553  -0.003978   0.003150
     60       0.003259   0.199245  -0.055383   0.000027   0.001807  -0.001342
     61      -0.000913  -0.055253   0.015366  -0.000022  -0.000522   0.000363
     62       0.002268   0.138079  -0.038373  -0.000046   0.001322  -0.000958
     63      -0.030176  -0.008487  -0.030581   0.000045  -0.000147  -0.000115
     64       0.372578   0.105892   0.381193  -0.000163   0.001587   0.001465
     65      -0.174379  -0.049447  -0.177982   0.000025  -0.000783  -0.000692
     66      -0.185756   0.038577   0.139275   0.000030   0.001079   0.001001
     67      -0.049664   0.010409   0.037607   0.000003   0.000199   0.000191
     68      -0.439194   0.091080   0.328931  -0.000038   0.002348   0.002121
     69      -0.000793   0.142512  -0.039014  -0.000047   0.000605  -0.000452
     70      -0.001517   0.269714  -0.073823  -0.000116   0.001314  -0.001001
     71       0.002140  -0.380709   0.104217   0.000101  -0.001752   0.001289
     72       0.002270   0.156452  -0.043827   0.000214  -0.000352   0.000503
     73       0.004836   0.331712  -0.092902   0.000559  -0.001118   0.001278
     74       0.001739   0.119382  -0.033401  -0.000066  -0.000662   0.000631
     75       0.457899   0.148572   0.538910  -0.000365  -0.000854  -0.001289
     76       0.192801   0.062650   0.227276  -0.000105  -0.000216  -0.000440
     77      -0.026986  -0.008511  -0.030736  -0.000255   0.000302   0.000290
     78      -0.530200   0.125974   0.457906  -0.000239  -0.001645  -0.001952
     79      -0.234731   0.056013   0.203755  -0.000382  -0.000408  -0.000591
     80       0.056007  -0.013315  -0.048431   0.000184   0.000170   0.000195
     81      -0.001327   0.274173  -0.075539   0.000361  -0.000228   0.000384
     82      -0.002757   0.565319  -0.155670   0.000272  -0.001319   0.001361
     83      -0.001177   0.239892  -0.066078   0.000342  -0.000474   0.000517


-----------
IR SPECTRUM
-----------

 Mode   freq       eps      Int      T**2         TX        TY        TZ
       cm**-1   L/(mol*cm) km/mol    a.u.
----------------------------------------------------------------------------
  6:     38.50   0.000008    0.04  0.000061  (-0.002112  0.003328 -0.006760)
  7:     50.81   0.000002    0.01  0.000010  ( 0.000866 -0.002272  0.002104)
  8:    119.82   0.000054    0.27  0.000140  ( 0.004334 -0.005628  0.009454)
  9:    153.72   0.000001    0.00  0.000001  (-0.000972  0.000608  0.000081)
 10:    156.81   0.000052    0.26  0.000103  (-0.005732  0.006256  0.005548)
 11:    235.96   0.000004    0.02  0.000006  ( 0.002066 -0.000525  0.001122)
 12:    252.46   0.000010    0.05  0.000012  (-0.001176 -0.003086  0.000961)
 13:    264.20   0.000032    0.16  0.000038  (-0.005542  0.000673  0.002548)
 14:    274.71   0.000011    0.05  0.000012  ( 0.003366  0.000424 -0.000887)
 15:    290.02   0.000042    0.21  0.000045  ( 0.002109 -0.004663 -0.004394)
 16:    302.28   0.000074    0.37  0.000076  (-0.006072 -0.006185 -0.001141)
 17:    358.39   0.000013    0.06  0.000011  ( 0.002253  0.002470 -0.000049)
 18:    398.06   0.000205    1.04  0.000161  (-0.003919  0.005866 -0.010533)
 19:    443.59   0.000001    0.01  0.000001  (-0.000090  0.000591  0.000749)
 20:    455.96   0.000193    0.98  0.000132  ( 0.007293 -0.006258 -0.006321)
 21:    554.23   0.000111    0.56  0.000062  ( 0.005286  0.005737  0.001192)
 22:    630.86   0.000036    0.18  0.000018  ( 0.002347 -0.001307 -0.003217)
 23:    676.60   0.001019    5.15  0.000470  (-0.016037 -0.013092 -0.006420)
 24:    678.74   0.014812   74.85  0.006810  ( 0.022073 -0.038390  0.069636)
 25:    688.77   0.000015    0.08  0.000007  (-0.001435  0.000639 -0.002100)
 26:    770.27   0.008888   44.92  0.003601  (-0.015585  0.027399 -0.051061)
 27:    896.93   0.005419   27.38  0.001885  ( 0.012021 -0.019674  0.036793)
 28:    912.46   0.000423    2.14  0.000145  (-0.008881 -0.007529 -0.003039)
 29:    918.38   0.000150    0.76  0.000051  (-0.004488  0.005091  0.002188)
 30:    918.82   0.000610    3.08  0.000207  ( 0.008575 -0.007275 -0.008986)
 31:    940.81   0.000590    2.98  0.000196  (-0.004090  0.006696 -0.011584)
 32:    945.83   0.000595    3.01  0.000196  (-0.003476  0.006663 -0.011824)
 33:    965.51   0.000067    0.34  0.000022  ( 0.002197 -0.001919  0.003611)
 34:    965.79   0.000283    1.43  0.000091  ( 0.002293 -0.005202  0.007688)
 35:   1035.83   0.003589   18.14  0.001081  ( 0.023955  0.022167  0.003991)
 36:   1044.61   0.000238    1.20  0.000071  ( 0.004410 -0.005400 -0.004746)
 37:   1093.72   0.000053    0.27  0.000015  (-0.002212 -0.003060 -0.000899)
 38:   1109.56   0.005561   28.10  0.001564  ( 0.025646 -0.022115 -0.020428)
 39:   1117.30   0.000953    4.82  0.000266  ( 0.011286 -0.008997 -0.007612)
 40:   1171.52   0.001919    9.70  0.000511  ( 0.005184  0.017802 -0.012943)
 41:   1172.05   0.018733   94.67  0.004988  (-0.051255 -0.046855 -0.012861)
 42:   1174.91   0.002975   15.03  0.000790  (-0.008455  0.012260 -0.023840)
 43:   1196.43   0.000175    0.89  0.000046  (-0.005679  0.001287  0.003440)
 44:   1219.85   0.030605  154.66  0.007829  (-0.063254 -0.060512 -0.012908)
 45:   1271.99   0.009021   45.59  0.002213  ( 0.033417  0.032380  0.006934)
 46:   1345.13   0.000053    0.27  0.000012  ( 0.001227 -0.000131  0.003295)
 47:   1348.48   0.000194    0.98  0.000045  (-0.005070 -0.001583  0.004073)
 48:   1353.29   0.001383    6.99  0.000319  (-0.013085  0.009572  0.007486)
 49:   1371.06   0.009450   47.76  0.002151  (-0.032818 -0.032022 -0.006963)
 50:   1400.96   0.000319    1.61  0.000071  (-0.002868  0.007575  0.002329)
 51:   1403.79   0.004312   21.79  0.000959  (-0.012836  0.013326 -0.024824)
 52:   1404.36   0.004233   21.39  0.000941  (-0.014547  0.006825 -0.026123)
 53:   1408.60   0.005198   26.27  0.001152  (-0.022582 -0.024165  0.007601)
 54:   1416.39   0.003108   15.71  0.000685  (-0.014618  0.016509  0.014092)
 55:   1447.02   0.000020    0.10  0.000004  (-0.001894  0.000757 -0.000280)
 56:   1447.43   0.000026    0.13  0.000006  ( 0.000353 -0.000604 -0.002271)
 57:   1454.35   0.000448    2.26  0.000096  (-0.001760  0.003845 -0.008845)
 58:   1457.45   0.003548   17.93  0.000760  ( 0.023438 -0.008610 -0.011676)
 59:   1458.42   0.001078    5.45  0.000231  (-0.002838  0.014863  0.001319)
 60:   1463.64   0.002790   14.10  0.000595  (-0.004917  0.016116  0.017633)
 61:   1468.18   0.003672   18.56  0.000781  (-0.016956  0.016326  0.015048)
 62:   1469.54   0.000754    3.81  0.000160  ( 0.009666  0.008143  0.000593)
 63:   1498.80   0.001646    8.32  0.000343  (-0.013928 -0.012044 -0.001928)
 64:   1513.22   0.000234    1.18  0.000048  ( 0.004926 -0.003544 -0.003377)
 65:   1648.39   0.040937  206.88  0.007750  (-0.064168 -0.059036 -0.012132)
 66:   1650.96   0.002239   11.31  0.000423  (-0.012498  0.012191  0.010877)
 67:   3072.22   0.002579   13.03  0.000262  ( 0.000194  0.007935 -0.014105)
 68:   3072.70   0.002991   15.11  0.000304  ( 0.004950 -0.007646  0.014859)
 69:   3074.20   0.001430    7.23  0.000145  (-0.002084 -0.010804 -0.004904)
 70:   3074.61   0.001736    8.77  0.000176  ( 0.012548 -0.003412  0.002659)
 71:   3132.92   0.000597    3.02  0.000059  (-0.004562  0.004433  0.004359)
 72:   3133.21   0.000966    4.88  0.000096  ( 0.006355 -0.005172 -0.005394)
 73:   3176.32   0.000925    4.68  0.000091  ( 0.002896 -0.004724  0.007759)
 74:   3176.70   0.001256    6.35  0.000123  (-0.006912  0.007595 -0.004234)
 75:   3179.01   0.004798   24.25  0.000471  ( 0.013159 -0.012625 -0.011767)
 76:   3179.55   0.005242   26.49  0.000514  ( 0.014282 -0.010381 -0.014238)
 77:   3188.32   0.001387    7.01  0.000136  ( 0.005518 -0.000654  0.010242)
 78:   3188.58   0.001234    6.23  0.000121  ( 0.004119 -0.004817  0.008976)
 79:   3190.02   0.004406   22.27  0.000431  (-0.011282 -0.017303 -0.002096)
 80:   3190.06   0.001863    9.41  0.000182  (-0.012543 -0.004827  0.001266)
 81:   3299.20   0.011241   56.81  0.001063  (-0.021348  0.018035  0.016801)
 82:   3301.46   0.005382   27.20  0.000509  ( 0.016230  0.015319  0.003260)
 83:   3319.07   0.003648   18.44  0.000343  (-0.011088  0.011283  0.009632)

* The epsilon (eps) is given for a Dirac delta lineshape.
** The dipole moment derivative (T) already includes vibrational overlap.

The first frequency considered to be a vibration is 6
The total number of vibrations considered is 78


--------------------------
THERMOCHEMISTRY AT 298.15K
--------------------------

Temperature         ... 298.15 K
Pressure            ... 1.00 atm
Total Mass          ... 153.25 AMU

Throughout the following assumptions are being made:
  (1) The electronic state is orbitally nondegenerate
  (2) There are no thermally accessible electronically excited states
  (3) Hindered rotations indicated by low frequency modes are not
      treated as such but are treated as vibrations and this may
      cause some error
  (4) All equations used are the standard statistical mechanics
      equations for an ideal gas
  (5) All vibrations are strictly harmonic

freq.      38.50  E(vib)   ...       0.54 
freq.      50.81  E(vib)   ...       0.52 
freq.     119.82  E(vib)   ...       0.44 
freq.     153.72  E(vib)   ...       0.40 
freq.     156.81  E(vib)   ...       0.40 
freq.     235.96  E(vib)   ...       0.32 
freq.     252.46  E(vib)   ...       0.30 
freq.     264.20  E(vib)   ...       0.29 
freq.     274.71  E(vib)   ...       0.28 
freq.     290.02  E(vib)   ...       0.27 
freq.     302.28  E(vib)   ...       0.26 
freq.     358.39  E(vib)   ...       0.22 
freq.     398.06  E(vib)   ...       0.20 
freq.     443.59  E(vib)   ...       0.17 
freq.     455.96  E(vib)   ...       0.16 
freq.     554.23  E(vib)   ...       0.12 
freq.     630.86  E(vib)   ...       0.09 
freq.     676.60  E(vib)   ...       0.08 
freq.     678.74  E(vib)   ...       0.08 
freq.     688.77  E(vib)   ...       0.07 
freq.     770.27  E(vib)   ...       0.05 
freq.     896.93  E(vib)   ...       0.03 
freq.     912.46  E(vib)   ...       0.03 
freq.     918.38  E(vib)   ...       0.03 
freq.     918.82  E(vib)   ...       0.03 
freq.     940.81  E(vib)   ...       0.03 
freq.     945.83  E(vib)   ...       0.03 
freq.     965.51  E(vib)   ...       0.03 
freq.     965.79  E(vib)   ...       0.03 
freq.    1035.83  E(vib)   ...       0.02 
freq.    1044.61  E(vib)   ...       0.02 
freq.    1093.72  E(vib)   ...       0.02 
freq.    1109.56  E(vib)   ...       0.02 
freq.    1117.30  E(vib)   ...       0.01 
freq.    1171.52  E(vib)   ...       0.01 
freq.    1172.05  E(vib)   ...       0.01 
freq.    1174.91  E(vib)   ...       0.01 
freq.    1196.43  E(vib)   ...       0.01 
freq.    1219.85  E(vib)   ...       0.01 
freq.    1271.99  E(vib)   ...       0.01 
freq.    1345.13  E(vib)   ...       0.01 
freq.    1348.48  E(vib)   ...       0.01 
freq.    1353.29  E(vib)   ...       0.01 
freq.    1371.06  E(vib)   ...       0.01 
freq.    1400.96  E(vib)   ...       0.00 
freq.    1403.79  E(vib)   ...       0.00 
freq.    1404.36  E(vib)   ...       0.00 
freq.    1408.60  E(vib)   ...       0.00 
freq.    1416.39  E(vib)   ...       0.00 
freq.    1447.02  E(vib)   ...       0.00 
freq.    1447.43  E(vib)   ...       0.00 
freq.    1454.35  E(vib)   ...       0.00 
freq.    1457.45  E(vib)   ...       0.00 
freq.    1458.42  E(vib)   ...       0.00 
freq.    1463.64  E(vib)   ...       0.00 
freq.    1468.18  E(vib)   ...       0.00 
freq.    1469.54  E(vib)   ...       0.00 
freq.    1498.80  E(vib)   ...       0.00 
freq.    1513.22  E(vib)   ...       0.00 
freq.    1648.39  E(vib)   ...       0.00 
freq.    1650.96  E(vib)   ...       0.00 
freq.    3072.22  E(vib)   ...       0.00 
freq.    3072.70  E(vib)   ...       0.00 
freq.    3074.20  E(vib)   ...       0.00 
freq.    3074.61  E(vib)   ...       0.00 
freq.    3132.92  E(vib)   ...       0.00 
freq.    3133.21  E(vib)   ...       0.00 
freq.    3176.32  E(vib)   ...       0.00 
freq.    3176.70  E(vib)   ...       0.00 
freq.    3179.01  E(vib)   ...       0.00 
freq.    3179.55  E(vib)   ...       0.00 
freq.    3188.32  E(vib)   ...       0.00 
freq.    3188.58  E(vib)   ...       0.00 
freq.    3190.02  E(vib)   ...       0.00 
freq.    3190.06  E(vib)   ...       0.00 
freq.    3299.20  E(vib)   ...       0.00 
freq.    3301.46  E(vib)   ...       0.00 
freq.    3319.07  E(vib)   ...       0.00 

------------
INNER ENERGY
------------

The inner energy is: U= E(el) + E(ZPE) + E(vib) + E(rot) + E(trans)
    E(el)   - is the total energy from the electronic structure calculation
              = E(kin-el) + E(nuc-el) + E(el-el) + E(nuc-nuc)
    E(ZPE)  - the the zero temperature vibrational energy from the frequency calculation
    E(vib)  - the the finite temperature correction to E(ZPE) due to population
              of excited vibrational states
    E(rot)  - is the rotational thermal energy
    E(trans)- is the translational thermal energy

Summary of contributions to the inner energy U:
Electronic energy                ...   -462.13702791 Eh
Zero point energy                ...      0.25571215 Eh     160.46 kcal/mol
Thermal vibrational correction   ...      0.00914182 Eh       5.74 kcal/mol
Thermal rotational correction    ...      0.00141627 Eh       0.89 kcal/mol
Thermal translational correction ...      0.00141627 Eh       0.89 kcal/mol
-----------------------------------------------------------------------
Total thermal energy                   -461.86934139 Eh


Summary of corrections to the electronic energy:
(perhaps to be used in another calculation)
Total thermal correction                  0.01197436 Eh       7.51 kcal/mol
Non-thermal (ZPE) correction              0.25571215 Eh     160.46 kcal/mol
-----------------------------------------------------------------------
Total correction                          0.26768651 Eh     167.98 kcal/mol


--------
ENTHALPY
--------

The enthalpy is H = U + kB*T
                kB is Boltzmann's constant
Total free energy                 ...   -461.86934139 Eh 
Thermal Enthalpy correction       ...      0.00094421 Eh       0.59 kcal/mol
-----------------------------------------------------------------------
Total Enthalpy                    ...   -461.86839719 Eh


Note: Only C1 symmetry has been detected, increase convergence thresholds 
      if your molecule has a higher symmetry. Symmetry factor of 1.0 is   
      used for the rotational entropy correction. 
 

Note: Rotational entropy computed according to Herzberg 
Infrared and Raman Spectra, Chapter V,1, Van Nostrand Reinhold, 1945 
Point Group:  C1, Symmetry Number:   1  
Rotational constants in cm-1:     0.089660     0.018409     0.017771 

Vibrational entropy computed according to the QRRHO of S. Grimme
Chem.Eur.J. 2012 18 9955


-------
ENTROPY
-------

The entropy contributions are T*S = T*(S(el)+S(vib)+S(rot)+S(trans))
     S(el)   - electronic entropy
     S(vib)  - vibrational entropy
     S(rot)  - rotational entropy
     S(trans)- translational entropy
The entropies will be listed as multiplied by the temperature to get
units of energy

Electronic entropy                ...      0.00000000 Eh      0.00 kcal/mol
Vibrational entropy               ...      0.01566677 Eh      9.83 kcal/mol
Rotational entropy                ...      0.01443795 Eh      9.06 kcal/mol
Translational entropy             ...      0.01947584 Eh     12.22 kcal/mol
-----------------------------------------------------------------------
Final entropy term                ...      0.04958057 Eh     31.11 kcal/mol

In case the symmetry of your molecule has not been determined correctly
or in case you have a reason to use a different symmetry number we print 
out the resulting rotational entropy values for sn=1,12 :
 --------------------------------------------------------
|  sn= 1 | S(rot)=       0.01443795 Eh      9.06 kcal/mol|
|  sn= 2 | S(rot)=       0.01378350 Eh      8.65 kcal/mol|
|  sn= 3 | S(rot)=       0.01340067 Eh      8.41 kcal/mol|
|  sn= 4 | S(rot)=       0.01312904 Eh      8.24 kcal/mol|
|  sn= 5 | S(rot)=       0.01291835 Eh      8.11 kcal/mol|
|  sn= 6 | S(rot)=       0.01274621 Eh      8.00 kcal/mol|
|  sn= 7 | S(rot)=       0.01260066 Eh      7.91 kcal/mol|
|  sn= 8 | S(rot)=       0.01247459 Eh      7.83 kcal/mol|
|  sn= 9 | S(rot)=       0.01236338 Eh      7.76 kcal/mol|
|  sn=10 | S(rot)=       0.01226390 Eh      7.70 kcal/mol|
|  sn=11 | S(rot)=       0.01217391 Eh      7.64 kcal/mol|
|  sn=12 | S(rot)=       0.01209175 Eh      7.59 kcal/mol|
 --------------------------------------------------------


-------------------
GIBBS FREE ENERGY
-------------------

The Gibbs free energy is G = H - T*S

Total enthalpy                    ...   -461.86839719 Eh 
Total entropy correction          ...     -0.04958057 Eh    -31.11 kcal/mol
-----------------------------------------------------------------------
Final Gibbs free energy         ...   -461.91797775 Eh

For completeness - the Gibbs free energy minus the electronic energy
G-E(el)                           ...      0.21905015 Eh    137.46 kcal/mol


Timings for individual modules:

Sum of individual times         ...     1377.458 sec (=  22.958 min)
GTO integral calculation        ...       16.534 sec (=   0.276 min)   1.2 %
SCF iterations                  ...      926.662 sec (=  15.444 min)  67.3 %
SCF Gradient evaluation         ...      180.341 sec (=   3.006 min)  13.1 %
Geometry relaxation             ...        1.764 sec (=   0.029 min)   0.1 %
Analytical frequency calculation...      252.156 sec (=   4.203 min)  18.3 %
                             ****ORCA TERMINATED NORMALLY****
TOTAL RUN TIME: 0 days 0 hours 26 minutes 8 seconds 927 msec
