
                                 *****************
                                 * O   R   C   A *
                                 *****************

                                            #,                                       
                                            ###                                      
                                            ####                                     
                                            #####                                    
                                            ######                                   
                                           ########,                                 
                                     ,,################,,,,,                         
                               ,,#################################,,                 
                          ,,##########################################,,             
                       ,#########################################, ''#####,          
                    ,#############################################,,   '####,        
                  ,##################################################,,,,####,       
                ,###########''''           ''''###############################       
              ,#####''   ,,,,##########,,,,          '''####'''          '####       
            ,##' ,,,,###########################,,,                        '##       
           ' ,,###''''                  '''############,,,                           
         ,,##''                                '''############,,,,        ,,,,,,###''
      ,#''                                            '''#######################'''  
     '                                                          ''''####''''         
             ,#######,   #######,   ,#######,      ##                                
            ,#'     '#,  ##    ##  ,#'     '#,    #''#        ######   ,####,        
            ##       ##  ##   ,#'  ##            #'  '#       #        #'  '#        
            ##       ##  #######   ##           ,######,      #####,   #    #        
            '#,     ,#'  ##    ##  '#,     ,#' ,#      #,         ##   #,  ,#        
             '#######'   ##     ##  '#######'  #'      '#     #####' # '####'        



                  #######################################################
                  #                        -***-                        #
                  #          Department of theory and spectroscopy      #
                  #    Directorship and core code : Frank Neese         #
                  #        Max Planck Institute fuer Kohlenforschung    #
                  #                Kaiser Wilhelm Platz 1               #
                  #                 D-45470 Muelheim/Ruhr               #
                  #                      Germany                        #
                  #                                                     #
                  #                  All rights reserved                #
                  #                        -***-                        #
                  #######################################################


                         Program Version 5.0.4 -  RELEASE  -


 With contributions from (in alphabetic order):
   Daniel Aravena         : Magnetic Suceptibility
   Michael Atanasov       : Ab Initio Ligand Field Theory (pilot matlab implementation)
   Alexander A. Auer      : GIAO ZORA, VPT2 properties, NMR spectrum
   Ute Becker             : Parallelization
   Giovanni Bistoni       : ED, misc. LED, open-shell LED, HFLD
   Martin Brehm           : Molecular dynamics
   Dmytro Bykov           : SCF Hessian
   Vijay G. Chilkuri      : MRCI spin determinant printing, contributions to CSF-ICE
   Dipayan Datta          : RHF DLPNO-CCSD density
   Achintya Kumar Dutta   : EOM-CC, STEOM-CC
   Dmitry Ganyushin       : Spin-Orbit,Spin-Spin,Magnetic field MRCI
   Miquel Garcia          : C-PCM and meta-GGA Hessian, CC/C-PCM, Gaussian charge scheme
   Yang Guo               : DLPNO-NEVPT2, F12-NEVPT2, CIM, IAO-localization
   Andreas Hansen         : Spin unrestricted coupled pair/coupled cluster methods
   Benjamin Helmich-Paris : MC-RPA, TRAH-SCF, COSX integrals
   Lee Huntington         : MR-EOM, pCC
   Robert Izsak           : Overlap fitted RIJCOSX, COSX-SCS-MP3, EOM
   Marcus Kettner         : VPT2
   Christian Kollmar      : KDIIS, OOCD, Brueckner-CCSD(T), CCSD density, CASPT2, CASPT2-K
   Simone Kossmann        : Meta GGA functionals, TD-DFT gradient, OOMP2, MP2 Hessian
   Martin Krupicka        : Initial AUTO-CI
   Lucas Lang             : DCDCAS
   Marvin Lechner         : AUTO-CI (C++ implementation), FIC-MRCC
   Dagmar Lenk            : GEPOL surface, SMD
   Dimitrios Liakos       : Extrapolation schemes; Compound Job, initial MDCI parallelization
   Dimitrios Manganas     : Further ROCIS development; embedding schemes
   Dimitrios Pantazis     : SARC Basis sets
   Anastasios Papadopoulos: AUTO-CI, single reference methods and gradients
   Taras Petrenko         : DFT Hessian,TD-DFT gradient, ASA, ECA, R-Raman, ABS, FL, XAS/XES, NRVS
   Peter Pinski           : DLPNO-MP2, DLPNO-MP2 Gradient
   Christoph Reimann      : Effective Core Potentials
   Marius Retegan         : Local ZFS, SOC
   Christoph Riplinger    : Optimizer, TS searches, QM/MM, DLPNO-CCSD(T), (RO)-DLPNO pert. Triples
   Tobias Risthaus        : Range-separated hybrids, TD-DFT gradient, RPA, STAB
   Michael Roemelt        : Original ROCIS implementation
   Masaaki Saitow         : Open-shell DLPNO-CCSD energy and density
   Barbara Sandhoefer     : DKH picture change effects
   Avijit Sen             : IP-ROCIS
   Kantharuban Sivalingam : CASSCF convergence, NEVPT2, FIC-MRCI
   Bernardo de Souza      : ESD, SOC TD-DFT
   Georgi Stoychev        : AutoAux, RI-MP2 NMR, DLPNO-MP2 response
   Willem Van den Heuvel  : Paramagnetic NMR
   Boris Wezisla          : Elementary symmetry handling
   Frank Wennmohs         : Technical directorship


 We gratefully acknowledge several colleagues who have allowed us to
 interface, adapt or use parts of their codes:
   Stefan Grimme, W. Hujo, H. Kruse, P. Pracht,  : VdW corrections, initial TS optimization,
                  C. Bannwarth, S. Ehlert          DFT functionals, gCP, sTDA/sTD-DF
   Ed Valeev, F. Pavosevic, A. Kumar             : LibInt (2-el integral package), F12 methods
   Garnet Chan, S. Sharma, J. Yang, R. Olivares  : DMRG
   Ulf Ekstrom                                   : XCFun DFT Library
   Mihaly Kallay                                 : mrcc  (arbitrary order and MRCC methods)
   Jiri Pittner, Ondrej Demel                    : Mk-CCSD
   Frank Weinhold                                : gennbo (NPA and NBO analysis)
   Christopher J. Cramer and Donald G. Truhlar   : smd solvation model
   Lars Goerigk                                  : TD-DFT with DH, B97 family of functionals
   V. Asgeirsson, H. Jonsson                     : NEB implementation
   FAccTs GmbH                                   : IRC, NEB, NEB-TS, DLPNO-Multilevel, CI-OPT
                                                   MM, QMMM, 2- and 3-layer-ONIOM, Crystal-QMMM,
                                                   LR-CPCM, SF, NACMEs, symmetry and pop. for TD-DFT,
                                                   nearIR, NL-DFT gradient (VV10), updates on ESD,
                                                   ML-optimized integration grids
   S Lehtola, MJT Oliveira, MAL Marques          : LibXC Library
   Liviu Ungur et al                             : ANISO software


 Your calculation uses the libint2 library for the computation of 2-el integrals
 For citations please refer to: http://libint.valeyev.net

 Your ORCA version has been built with support for libXC version: 5.1.0
 For citations please refer to: https://tddft.org/programs/libxc/

 This ORCA versions uses:
   CBLAS   interface :  Fast vector & matrix operations
   LAPACKE interface :  Fast linear algebra routines
   SCALAPACK package :  Parallel linear algebra routines
   Shared memory     :  Shared parallel matrices
   BLAS/LAPACK       :  OpenBLAS 0.3.15  USE64BITINT DYNAMIC_ARCH NO_AFFINITY SkylakeX SINGLE_THREADED
        Core in use  :  SkylakeX
   Copyright (c) 2011-2014, The OpenBLAS Project




***************************************
The coordinates will be read from file: 4.xyz
***************************************


Your calculation utilizes the atom-pairwise dispersion correction
based on tight binding partial charges (D4)
Cite in your paper:
E.Caldeweyher, C.Bannwarth, S.Grimme, J.Chem.Phys., (2017), 147, 034112.
E.Caldeweyher, S.Ehlert, A.Hansen, H.Neugebauer, S.Grimme, J.Chem.Phys., (2018), in progress.
   

XCFun DFT library Copyright 2009-2010 Ulf Ekstrom and contributors.
See http://admol.org/xcfun for more information.
This is free software; see the source code for copying conditions.
There is ABSOLUTELY NO WARRANTY; not even for MERCHANTABILITY or FITNESS FOR A PARTICULAR PURPOSE.
For details see the documentation.
Scientific users of this library should cite U. Ekstrom, L. Visscher, R. Bast, A. J. Thorvaldsen and K. Ruud;
J.Chem.Theor.Comp. 2010, DOI: 10.1021/ct100117s
XCFun Version 0.99 

================================================================================

----- Orbital basis set information -----
Your calculation utilizes the basis: def2-SVP
   F. Weigend and R. Ahlrichs, Phys. Chem. Chem. Phys. 7, 3297 (2005).

----- AuxJ basis set information -----
Your calculation utilizes the auxiliary basis: def2/J
   F. Weigend, Phys. Chem. Chem. Phys. 8, 1057 (2006).

================================================================================
                                        WARNINGS
                       Please study these warnings very carefully!
================================================================================


INFO   : the flag for use of the SHARK integral package has been found!

================================================================================
                                       INPUT FILE
================================================================================
NAME = 4.inp
|  1> # ORCA 5.0.4 - 4.inp # write input file
|  2> # Basic Mode
|  3> #
|  4> ! Freq wB97X Def2-SVP D4 SlowConv TightSCF DEFGRID2 Def2/J RIJCOSX 
|  5> 
|  6> 
|  7> 
|  8> %maxcore 4500
|  9> 
| 10> %geom
| 11> Maxiter 150
| 12> END
| 13> 
| 14> * xyzfile 0 1 4.xyz
| 15> 
| 16>                          ****END OF INPUT****
================================================================================

                       ****************************
                       * Single Point Calculation *
                       ****************************

---------------------------------
CARTESIAN COORDINATES (ANGSTROEM)
---------------------------------
  C      0.000000    2.456466    0.553232
  C     -0.000000   -2.456466    0.553232
  N      0.000001    1.063252    0.099616
  N      0.000001   -1.063252    0.099616
  C      0.000002    0.678075   -1.231203
  C      0.000001   -0.678075   -1.231203
  C      0.000004    0.000000    0.946651
  C      1.268001    3.176646    0.107564
  C     -1.268002    3.176644    0.107567
  C     -1.268002   -3.176644    0.107564
  C      1.268001   -3.176646    0.107567
  H      0.000001    1.385232   -2.059596
  H      0.000000   -1.385232   -2.059596
  H      0.000002    2.381327    1.651062
  H     -0.000001   -2.381327    1.651062
  H      1.312351    3.262086   -0.990520
  H     -1.312355    3.262083   -0.990518
  H     -1.312353   -3.262083   -0.990520
  H      1.312354   -3.262084   -0.990518
  H      1.292425    4.193752    0.526650
  H     -1.292427    4.193750    0.526652
  H     -1.292426   -4.193751    0.526649
  H      1.292423   -4.193753    0.526651
  H      2.164460    2.638276    0.450971
  H     -2.164460    2.638273    0.450976
  H     -2.164460   -2.638274    0.450972
  H      2.164459   -2.638277    0.450977

----------------------------
CARTESIAN COORDINATES (A.U.)
----------------------------
  NO LB      ZA    FRAG     MASS         X           Y           Z
   0 C     6.0000    0    12.011    0.000000    4.642048    1.045457
   1 C     6.0000    0    12.011   -0.000000   -4.642048    1.045457
   2 N     7.0000    0    14.007    0.000002    2.009255    0.188247
   3 N     7.0000    0    14.007    0.000002   -2.009255    0.188247
   4 C     6.0000    0    12.011    0.000004    1.281376   -2.326636
   5 C     6.0000    0    12.011    0.000002   -1.281376   -2.326636
   6 C     6.0000    0    12.011    0.000008    0.000000    1.788911
   7 C     6.0000    0    12.011    2.396175    6.002991    0.203267
   8 C     6.0000    0    12.011   -2.396177    6.002987    0.203272
   9 C     6.0000    0    12.011   -2.396177   -6.002987    0.203267
  10 C     6.0000    0    12.011    2.396175   -6.002991    0.203272
  11 H     1.0000    0     1.008    0.000002    2.617709   -3.892072
  12 H     1.0000    0     1.008    0.000000   -2.617709   -3.892072
  13 H     1.0000    0     1.008    0.000004    4.500056    3.120055
  14 H     1.0000    0     1.008   -0.000002   -4.500056    3.120055
  15 H     1.0000    0     1.008    2.479984    6.164449   -1.871812
  16 H     1.0000    0     1.008   -2.479992    6.164443   -1.871808
  17 H     1.0000    0     1.008   -2.479988   -6.164443   -1.871812
  18 H     1.0000    0     1.008    2.479990   -6.164445   -1.871808
  19 H     1.0000    0     1.008    2.442329    7.925043    0.995224
  20 H     1.0000    0     1.008   -2.442333    7.925039    0.995228
  21 H     1.0000    0     1.008   -2.442331   -7.925041    0.995222
  22 H     1.0000    0     1.008    2.442326   -7.925045    0.995226
  23 H     1.0000    0     1.008    4.090237    4.985619    0.852212
  24 H     1.0000    0     1.008   -4.090237    4.985613    0.852221
  25 H     1.0000    0     1.008   -4.090237   -4.985615    0.852214
  26 H     1.0000    0     1.008    4.090235   -4.985621    0.852223

--------------------------------
INTERNAL COORDINATES (ANGSTROEM)
--------------------------------
 C      0   0   0     0.000000000000     0.00000000     0.00000000
 C      1   0   0     4.912932000000     0.00000000     0.00000000
 N      1   2   0     1.465200575093    18.03471101     0.00000000
 N      2   1   3     1.465200575093    18.03471101     0.00000000
 C      3   1   2     1.385438750754   124.17666317   179.99990333
 C      5   3   1     1.356150000000   106.14195216   180.00007514
 C      3   1   2     1.359401745893   123.42286438     0.00000000
 C      1   2   4     1.524829739553   118.18382260   289.36531968
 C      1   2   4     1.524828749700   118.18375727    70.63506773
 C      2   1   3     1.524829626520   118.18373962   289.36505293
 C      2   1   3     1.524828862734   118.18384026    70.63480097
 H      5   3   1     1.089176746492   123.37234662     0.00000000
 H      6   5   3     1.089176746492   130.48570123   179.99991162
 H      1   2   4     1.100398372511    86.08459965   180.00023069
 H      2   1   3     1.100398372510    86.08459965   179.99992588
 H      8   1   2     1.102295508090   111.17534629    83.49639777
 H      9   1   2     1.102296547466   111.17534374   276.50364006
 H     10   2   1     1.102295470814   111.17536408    83.49636134
 H     11   2   1     1.102296469956   111.17532195   276.50372804
 H      8   1   2     1.100333686846   110.10349829   202.98400760
 H      9   1   2     1.100333328172   110.10355369   157.01599631
 H     10   2   1     1.100334230336   110.10345880   202.98393436
 H     11   2   1     1.100333805074   110.10352020   157.01613050
 H      8   1   2     1.100640433216   110.79890033   322.85920130
 H      9   1   2     1.100640731886   110.79891308    37.14077897
 H     10   2   1     1.100639930735   110.79892135   322.85914531
 H     11   2   1     1.100640065610   110.79888890    37.14087680

---------------------------
INTERNAL COORDINATES (A.U.)
---------------------------
 C      0   0   0     0.000000000000     0.00000000     0.00000000
 C      1   0   0     9.284095994578     0.00000000     0.00000000
 N      1   2   0     2.768827818190    18.03471101     0.00000000
 N      2   1   3     2.768827818190    18.03471101     0.00000000
 C      3   1   2     2.618099814247   124.17666317   179.99990333
 C      5   3   1     2.562752096518   106.14195216   180.00007514
 C      3   1   2     2.568897005713   123.42286438     0.00000000
 C      1   2   4     2.881510608613   118.18382260   289.36531968
 C      1   2   4     2.881508738063   118.18375727    70.63506773
 C      2   1   3     2.881510395012   118.18373962   289.36505293
 C      2   1   3     2.881508951665   118.18384026    70.63480097
 H      5   3   1     2.058245762305   123.37234662     0.00000000
 H      6   5   3     2.058245762305   130.48570123   179.99991162
 H      1   2   4     2.079451562259    86.08459965   180.00023069
 H      2   1   3     2.079451562256    86.08459965   179.99992588
 H      8   1   2     2.083036628942   111.17534629    83.49639777
 H      9   1   2     2.083038593077   111.17534374   276.50364006
 H     10   2   1     2.083036558501   111.17536408    83.49636134
 H     11   2   1     2.083038446605   111.17532195   276.50372804
 H      8   1   2     2.079329324067   110.10349829   202.98400760
 H      9   1   2     2.079328646271   110.10355369   157.01599631
 H     10   2   1     2.079330351115   110.10345880   202.98393436
 H     11   2   1     2.079329547486   110.10352020   157.01613050
 H      8   1   2     2.079908990699   110.79890033   322.85920130
 H      9   1   2     2.079909555103   110.79891308    37.14077897
 H     10   2   1     2.079908041147   110.79892135   322.85914531
 H     11   2   1     2.079908296023   110.79888890    37.14087680

---------------------
BASIS SET INFORMATION
---------------------
There are 3 groups of distinct atoms

 Group   1 Type C   : 7s4p1d contracted to 3s2p1d pattern {511/31/1}
 Group   2 Type N   : 7s4p1d contracted to 3s2p1d pattern {511/31/1}
 Group   3 Type H   : 4s1p contracted to 2s1p pattern {31/1}

Atom   0C    basis set group =>   1
Atom   1C    basis set group =>   1
Atom   2N    basis set group =>   2
Atom   3N    basis set group =>   2
Atom   4C    basis set group =>   1
Atom   5C    basis set group =>   1
Atom   6C    basis set group =>   1
Atom   7C    basis set group =>   1
Atom   8C    basis set group =>   1
Atom   9C    basis set group =>   1
Atom  10C    basis set group =>   1
Atom  11H    basis set group =>   3
Atom  12H    basis set group =>   3
Atom  13H    basis set group =>   3
Atom  14H    basis set group =>   3
Atom  15H    basis set group =>   3
Atom  16H    basis set group =>   3
Atom  17H    basis set group =>   3
Atom  18H    basis set group =>   3
Atom  19H    basis set group =>   3
Atom  20H    basis set group =>   3
Atom  21H    basis set group =>   3
Atom  22H    basis set group =>   3
Atom  23H    basis set group =>   3
Atom  24H    basis set group =>   3
Atom  25H    basis set group =>   3
Atom  26H    basis set group =>   3
---------------------------------
AUXILIARY/J BASIS SET INFORMATION
---------------------------------
There are 3 groups of distinct atoms

 Group   1 Type C   : 12s5p4d2f1g contracted to 6s4p3d1f1g pattern {711111/2111/211/2/1}
 Group   2 Type N   : 12s5p4d2f1g contracted to 6s4p3d1f1g pattern {711111/2111/211/2/1}
 Group   3 Type H   : 5s2p1d contracted to 3s1p1d pattern {311/2/1}

Atom   0C    basis set group =>   1
Atom   1C    basis set group =>   1
Atom   2N    basis set group =>   2
Atom   3N    basis set group =>   2
Atom   4C    basis set group =>   1
Atom   5C    basis set group =>   1
Atom   6C    basis set group =>   1
Atom   7C    basis set group =>   1
Atom   8C    basis set group =>   1
Atom   9C    basis set group =>   1
Atom  10C    basis set group =>   1
Atom  11H    basis set group =>   3
Atom  12H    basis set group =>   3
Atom  13H    basis set group =>   3
Atom  14H    basis set group =>   3
Atom  15H    basis set group =>   3
Atom  16H    basis set group =>   3
Atom  17H    basis set group =>   3
Atom  18H    basis set group =>   3
Atom  19H    basis set group =>   3
Atom  20H    basis set group =>   3
Atom  21H    basis set group =>   3
Atom  22H    basis set group =>   3
Atom  23H    basis set group =>   3
Atom  24H    basis set group =>   3
Atom  25H    basis set group =>   3
Atom  26H    basis set group =>   3
------------------------------------------------------------------------------
                           ORCA GTO INTEGRAL CALCULATION
                           -- RI-GTO INTEGRALS CHOSEN --
------------------------------------------------------------------------------
------------------------------------------------------------------------------
                   ___                                                        
                  /   \      - P O W E R E D   B Y -                         
                 /     \                                                     
                 |  |  |   _    _      __       _____    __    __             
                 |  |  |  | |  | |    /  \     |  _  \  |  |  /  |          
                  \  \/   | |  | |   /    \    | | | |  |  | /  /          
                 / \  \   | |__| |  /  /\  \   | |_| |  |  |/  /          
                |  |  |   |  __  | /  /__\  \  |    /   |      \           
                |  |  |   | |  | | |   __   |  |    \   |  |\   \          
                \     /   | |  | | |  |  |  |  | |\  \  |  | \   \       
                 \___/    |_|  |_| |__|  |__|  |_| \__\ |__|  \__/        
                                                                              
                      - O R C A' S   B I G   F R I E N D -                    
                                      &                                       
                       - I N T E G R A L  F E E D E R -                       
                                                                              
 v1 FN, 2020, v2 2021                                                         
------------------------------------------------------------------------------


Reading SHARK input file 4.SHARKINP.tmp ... ok
----------------------
SHARK INTEGRAL PACKAGE
----------------------

Number of atoms                             ...     27
Number of basis functions                   ...    234
Number of shells                            ...    114
Maximum angular momentum                    ...      2
Integral batch strategy                     ... SHARK/LIBINT Hybrid
RI-J (if used) integral strategy            ... SPLIT-RIJ (Revised 2003 algorithm where possible)
Printlevel                                  ...      1
Contraction scheme used                     ... SEGMENTED contraction
Coulomb Range Separation                    ... NOT USED
Exchange Range Separation                   ... Long Range
   Mu parameter                             ...  0.300000
   Scaling (regular/separated)              ...  0.157706  0.842294
Finite Nucleus Model                        ... NOT USED
Auxiliary Coulomb fitting basis             ... AVAILABLE
   # of basis functions in Aux-J            ...    715
   # of shells in Aux-J                     ...    245
   Maximum angular momentum in Aux-J        ...      4
Auxiliary J/K fitting basis                 ... NOT available
Auxiliary Correlation fitting basis         ... NOT available
Auxiliary 'external' fitting basis          ... NOT available
Integral threshold                          ...     2.500000e-11
Primitive cut-off                           ...     2.500000e-12
Primitive pair pre-selection threshold      ...     2.500000e-12

Calculating pre-screening integrals         ... done (  0.1 sec) Dimension = 114
Organizing shell pair data                  ... done (  0.0 sec)
Shell pair information
Total number of shell pairs                 ...      6555
Shell pairs after pre-screening             ...      5671
Total number of primitive shell pairs       ...     22769
Primitive shell pairs kept                  ...     14027
          la=0 lb=0:   1913 shell pairs
          la=1 lb=0:   2130 shell pairs
          la=1 lb=1:    614 shell pairs
          la=2 lb=0:    613 shell pairs
          la=2 lb=1:    344 shell pairs
          la=2 lb=2:     57 shell pairs

Calculating one electron integrals          ... done (  0.0 sec)
Calculating RI/J V-Matrix + Cholesky decomp.... done (  0.0 sec)
Calculating Nuclear repulsion               ... done (  0.0 sec) ENN=    631.240263604345 Eh

SHARK setup successfully completed in   0.3 seconds

Maximum memory used throughout the entire GTOINT-calculation: 35.2 MB
-------------------------------------------------------------------------------
                                 ORCA SCF
-------------------------------------------------------------------------------

------------
SCF SETTINGS
------------
Hamiltonian:
 Density Functional     Method          .... DFT(GTOs)
 Exchange Functional    Exchange        .... WB97X
 Correlation Functional Correlation     .... WB97X
 Gradients option       PostSCFGGA      .... off
 Hybrid DFT is turned on
   Fraction HF Exchange ScalHFX         ....  0.157706
   Scaling of DF-GGA-X  ScalDFX         ....  0.000000
   Scaling of DF-GGA-C  ScalDFC         ....  1.000000
   Scaling of DF-LDA-C  ScalLDAC        ....  1.000000
   Perturbative correction              ....  0.000000
   Density functional embedding theory  .... OFF
 Long-range corrected/Screened/Range-Separated Hybrid DFT is turned on
   Amount of maximum screened exact exchange              ....  0.842294
   Range separation parameter mu (erf(mu*r12)/r12)        ....  0.300000
 RI-approximation to the Coulomb term is turned on
   Number of AuxJ basis functions       .... 715
   RIJ-COSX (HFX calculated with COS-X)).... on


General Settings:
 Integral files         IntName         .... 4
 Hartree-Fock type      HFTyp           .... RHF
 Total Charge           Charge          ....    0
 Multiplicity           Mult            ....    1
 Number of Electrons    NEL             ....   84
 Basis Dimension        Dim             ....  234
 Nuclear Repulsion      ENuc            ....    631.2402636043 Eh

Convergence Acceleration:
 DIIS                   CNVDIIS         .... on
   Start iteration      DIISMaxIt       ....     0
   Startup error        DIISStart       ....  0.200000
   # of expansion vecs  DIISMaxEq       ....     5
   Bias factor          DIISBfac        ....   1.050
   Max. coefficient     DIISMaxC        ....  10.000
 Trust-Rad. Augm. Hess. CNVTRAH         .... auto
   Auto Start mean grad. ratio tolernc. ....  1.125000
   Auto Start start iteration           ....    20
   Auto Start num. interpolation iter.  ....    10
   Max. Number of Micro iterations      ....    16
   Max. Number of Macro iterations      .... Maxiter - #DIIS iter
   Number of Davidson start vectors     ....     2
   Converg. threshold I  (grad. norm)   ....   1.000e-05
   Converg. threshold II (energy diff.) ....   1.000e-08
   Grad. Scal. Fac. for Micro threshold ....   0.100
   Minimum threshold for Micro iter.    ....   0.010
   NR start threshold (gradient norm)   ....   0.001
   Initial trust radius                 ....   0.400
   Minimum AH scaling param. (alpha)    ....   1.000
   Maximum AH scaling param. (alpha)    .... 1000.000
   Orbital update algorithm             .... Taylor
   White noise on init. David. guess    .... on
   Maximum white noise                  ....   0.010
   Quad. conv. algorithm                .... NR
 SOSCF                  CNVSOSCF        .... on
   Start iteration      SOSCFMaxIt      ....   150
   Startup grad/error   SOSCFStart      ....  0.001000
 Level Shifting         CNVShift        .... on
   Level shift para.    LevelShift      ....    0.2500
   Turn off err/grad.   ShiftErr        ....    0.0000
 Zerner damping         CNVZerner       .... off
 Static damping         CNVDamp         .... on
   Fraction old density DampFac         ....    0.8500
   Max. Damping (<1)    DampMax         ....    0.9800
   Min. Damping (>=0)   DampMin         ....    0.0000
   Turn off err/grad.   DampErr         ....    0.0300
 Fernandez-Rico         CNVRico         .... off

SCF Procedure:
 Maximum # iterations   MaxIter         ....   125
 SCF integral mode      SCFMode         .... Direct
   Integral package                     .... SHARK and LIBINT hybrid scheme
 Reset frequency        DirectResetFreq ....    20
 Integral Threshold     Thresh          ....  2.500e-11 Eh
 Primitive CutOff       TCut            ....  2.500e-12 Eh

Convergence Tolerance:
 Convergence Check Mode ConvCheckMode   .... Total+1el-Energy
 Convergence forced     ConvForced      .... 0
 Energy Change          TolE            ....  1.000e-08 Eh
 1-El. energy change                    ....  1.000e-05 Eh
 Orbital Gradient       TolG            ....  1.000e-05
 Orbital Rotation angle TolX            ....  1.000e-05
 DIIS Error             TolErr          ....  5.000e-07


Diagonalization of the overlap matrix:
Smallest eigenvalue                        ... 1.153e-03
Time for diagonalization                   ...    0.010 sec
Threshold for overlap eigenvalues          ... 1.000e-08
Number of eigenvalues below threshold      ... 0
Time for construction of square roots      ...    0.004 sec
Total time needed                          ...    0.014 sec

Time for model grid setup =    0.487 sec

------------------------------
INITIAL GUESS: MODEL POTENTIAL
------------------------------
Loading Hartree-Fock densities                     ... done
Calculating cut-offs                               ... done
Initializing the effective Hamiltonian             ... done
Setting up the integral package (SHARK)            ... done
Starting the Coulomb interaction                   ... done (   0.4 sec)
Reading the grid                                   ... done
Mapping shells                                     ... done
Starting the XC term evaluation                    ... done (   0.5 sec)
  promolecular density results
     # of electrons  =     83.985163229
     EX              =    -63.841408252
     EC              =     -2.773817988
     EX+EC           =    -66.615226240
Transforming the Hamiltonian                       ... done (   0.0 sec)
Diagonalizing the Hamiltonian                      ... done (   0.0 sec)
Back transforming the eigenvectors                 ... done (   0.0 sec)
Now organizing SCF variables                       ... done
                      ------------------
                      INITIAL GUESS DONE (   1.5 sec)
                      ------------------
-------------------
DFT GRID GENERATION
-------------------

General Integration Accuracy     IntAcc      ... 4.388
Radial Grid Type                 RadialGrid  ... OptM3 with GC (2021)
Angular Grid (max. ang.)         AngularGrid ... 4 (Lebedev-302)
Angular grid pruning method      GridPruning ... 4 (adaptive)
Weight generation scheme         WeightScheme... Becke
Basis function cutoff            BFCut       ... 1.0000e-11
Integration weight cutoff        WCut        ... 1.0000e-14
Angular grids for H and He will be reduced by one unit
Partially contracted basis set               ... off
Rotationally invariant grid construction     ... off

Total number of grid points                  ...   117029
Total number of batches                      ...     1841
Average number of points per batch           ...       63
Average number of grid points per atom       ...     4334
Time for grid setup =    1.769 sec

--------------------
COSX GRID GENERATION
--------------------

GRIDX 1
-------
General Integration Accuracy     IntAcc      ... 3.816
Radial Grid Type                 RadialGrid  ... OptM3 with GC (2021)
Angular Grid (max. ang.)         AngularGrid ... 1 (Lebedev-50)
Angular grid pruning method      GridPruning ... 4 (adaptive)
Weight generation scheme         WeightScheme... Becke
Basis function cutoff            BFCut       ... 1.0000e-11
Integration weight cutoff        WCut        ... 1.0000e-14
Angular grids for H and He will be reduced by one unit
Partially contracted basis set               ... on
Rotationally invariant grid construction     ... off

Total number of grid points                  ...    14947
Total number of batches                      ...      248
Average number of points per batch           ...       60
Average number of grid points per atom       ...      554
UseSFitting                                  ... on

GRIDX 2
-------
General Integration Accuracy     IntAcc      ... 4.020
Radial Grid Type                 RadialGrid  ... OptM3 with GC (2021)
Angular Grid (max. ang.)         AngularGrid ... 2 (Lebedev-110)
Angular grid pruning method      GridPruning ... 4 (adaptive)
Weight generation scheme         WeightScheme... Becke
Basis function cutoff            BFCut       ... 1.0000e-11
Integration weight cutoff        WCut        ... 1.0000e-14
Angular grids for H and He will be reduced by one unit
Partially contracted basis set               ... on
Rotationally invariant grid construction     ... off

Total number of grid points                  ...    31429
Total number of batches                      ...      501
Average number of points per batch           ...       62
Average number of grid points per atom       ...     1164
UseSFitting                                  ... on

GRIDX 3
-------
General Integration Accuracy     IntAcc      ... 4.338
Radial Grid Type                 RadialGrid  ... OptM3 with GC (2021)
Angular Grid (max. ang.)         AngularGrid ... 3 (Lebedev-194)
Angular grid pruning method      GridPruning ... 4 (adaptive)
Weight generation scheme         WeightScheme... Becke
Basis function cutoff            BFCut       ... 1.0000e-11
Integration weight cutoff        WCut        ... 1.0000e-14
Angular grids for H and He will be reduced by one unit
Partially contracted basis set               ... on
Rotationally invariant grid construction     ... off

Total number of grid points                  ...    68473
Total number of batches                      ...     1085
Average number of points per batch           ...       63
Average number of grid points per atom       ...     2536
UseSFitting                                  ... on

Time for X-Grid setup             =    2.243 sec

--------------
SCF ITERATIONS
--------------
ITER       Energy         Delta-E        Max-DP      RMS-DP      [F,P]     Damp
               ***  Starting incremental Fock matrix formation  ***
  0   -461.3598042375   0.000000000000 0.03814571  0.00072224  0.1535713 0.8500
  1   -461.4124296052  -0.052625367626 0.04161426  0.00070055  0.1238819 0.8500
                               ***Turning on DIIS***
  2   -461.4526526047  -0.040222999572 0.03723844  0.00057974  0.0951907 0.8500
  3   -461.4825628209  -0.029910216211 0.03116694  0.00041629  0.0722101 0.8500
  4   -461.5056260734  -0.023063252485 0.02620150  0.00031937  0.0575286 0.8500
  5   -461.5237775717  -0.018151498265 0.02228587  0.00026154  0.0476041 0.8500
  6   -461.5385114094  -0.014733837737 0.01909530  0.00022036  0.0400716 0.8500
  7   -461.5506886537  -0.012177244243 0.01650516  0.00018952  0.0339633 0.8500
  8   -461.5608625456  -0.010173891904 0.09543633  0.00108823  0.0287412 0.0000
  9   -461.6155212778  -0.054658732184 0.00210667  0.00004123  0.0011609 0.0000
                      *** Initiating the SOSCF procedure ***
                           *** Shutting down DIIS ***
                      *** Re-Reading the Fockian *** 
                      *** Removing any level shift *** 
ITER      Energy       Delta-E        Grad      Rot      Max-DP    RMS-DP
 10   -461.61554639  -0.0000251096  0.000487  0.000487  0.001078  0.000020
               *** Restarting incremental Fock matrix formation ***
 11   -461.61565053  -0.0001041439  0.000386  0.000832  0.001081  0.000014
 12   -461.61565191  -0.0000013757  0.000094  0.000550  0.000366  0.000011
 13   -461.61565236  -0.0000004490  0.000040  0.000055  0.000262  0.000003
 14   -461.61565240  -0.0000000396  0.000005  0.000009  0.000087  0.000001
 15   -461.61565239   0.0000000009  0.000003  0.000009  0.000030  0.000000
                  ***Gradient check signals convergence***
              ***Rediagonalizing the Fockian in SOSCF/NRSCF***

               *****************************************************
               *                     SUCCESS                       *
               *           SCF CONVERGED AFTER  16 CYCLES          *
               *****************************************************

Old exchange energy                            =    -21.358121812 Eh
New exchange energy                            =    -21.358151799 Eh
Exchange energy change after final integration =     -0.000029987 Eh
Total energy after final integration           =   -461.615682390 Eh
Final COS-X integration done in                =    57.765 sec

----------------
TOTAL SCF ENERGY
----------------

Total Energy       :         -461.61568239 Eh          -12561.20132 eV

Components:
Nuclear Repulsion  :          631.24026360 Eh           17176.92083 eV
Electronic Energy  :        -1092.85594599 Eh          -29738.12215 eV
One Electron Energy:        -1873.75962249 Eh          -50987.59149 eV
Two Electron Energy:          780.90367650 Eh           21249.46934 eV
Max COSX asymmetry :            0.00000301 Eh               0.00008 eV

Virial components:
Potential Energy   :         -917.65516853 Eh          -24970.66662 eV
Kinetic Energy     :          456.03948614 Eh           12409.46530 eV
Virial Ratio       :            2.01222744


DFT components:
N(Alpha)           :       41.999977249880 electrons
N(Beta)            :       41.999977249880 electrons
N(Total)           :       83.999954499759 electrons
E(XC)              :      -47.075542140839 Eh       
DFET-embed. en.    :        0.000000000000 Eh       

---------------
SCF CONVERGENCE
---------------

  Last Energy change         ...   -7.6831e-09  Tolerance :   1.0000e-08
  Last MAX-Density change    ...    2.8173e-15  Tolerance :   1.0000e-07
  Last RMS-Density change    ...    4.0677e-17  Tolerance :   5.0000e-09
  Last Orbital Gradient      ...    5.8597e-07  Tolerance :   1.0000e-05
  Last Orbital Rotation      ...    2.1395e-06  Tolerance :   1.0000e-05

             **** THE GBW FILE WAS UPDATED (4.gbw) ****
             **** DENSITY 4.scfp WAS UPDATED ****
             **** ENERGY FILE WAS UPDATED (4.en.tmp) ****
             **** THE GBW FILE WAS UPDATED (4.gbw) ****
             **** DENSITY 4.scfp WAS UPDATED ****
----------------
ORBITAL ENERGIES
----------------

  NO   OCC          E(Eh)            E(eV) 
   0   2.0000     -14.438117      -392.8811 
   1   2.0000     -14.438117      -392.8811 
   2   2.0000     -10.307479      -280.4808 
   3   2.0000     -10.307445      -280.4798 
   4   2.0000     -10.292604      -280.0760 
   5   2.0000     -10.292024      -280.0602 
   6   2.0000     -10.267602      -279.3957 
   7   2.0000     -10.267598      -279.3955 
   8   2.0000     -10.267596      -279.3955 
   9   2.0000     -10.267591      -279.3954 
  10   2.0000     -10.261831      -279.2386 
  11   2.0000      -1.139648       -31.0114 
  12   2.0000      -1.035439       -28.1757 
  13   2.0000      -0.934627       -25.4325 
  14   2.0000      -0.883581       -24.0435 
  15   2.0000      -0.860489       -23.4151 
  16   2.0000      -0.812067       -22.0975 
  17   2.0000      -0.811729       -22.0883 
  18   2.0000      -0.758258       -20.6333 
  19   2.0000      -0.743758       -20.2387 
  20   2.0000      -0.671741       -18.2790 
  21   2.0000      -0.660762       -17.9803 
  22   2.0000      -0.622536       -16.9401 
  23   2.0000      -0.586445       -15.9580 
  24   2.0000      -0.571872       -15.5614 
  25   2.0000      -0.560700       -15.2574 
  26   2.0000      -0.558895       -15.2083 
  27   2.0000      -0.536801       -14.6071 
  28   2.0000      -0.534096       -14.5335 
  29   2.0000      -0.528285       -14.3754 
  30   2.0000      -0.503864       -13.7108 
  31   2.0000      -0.497614       -13.5408 
  32   2.0000      -0.486916       -13.2497 
  33   2.0000      -0.485349       -13.2070 
  34   2.0000      -0.466977       -12.7071 
  35   2.0000      -0.459043       -12.4912 
  36   2.0000      -0.448322       -12.1995 
  37   2.0000      -0.442769       -12.0484 
  38   2.0000      -0.434295       -11.8178 
  39   2.0000      -0.365810        -9.9542 
  40   2.0000      -0.317407        -8.6371 
  41   2.0000      -0.301037        -8.1916 
  42   0.0000       0.125377         3.4117 
  43   0.0000       0.141150         3.8409 
  44   0.0000       0.143094         3.8938 
  45   0.0000       0.146094         3.9754 
  46   0.0000       0.171424         4.6647 
  47   0.0000       0.173965         4.7338 
  48   0.0000       0.196427         5.3451 
  49   0.0000       0.201910         5.4943 
  50   0.0000       0.202491         5.5101 
  51   0.0000       0.210989         5.7413 
  52   0.0000       0.220112         5.9896 
  53   0.0000       0.227166         6.1815 
  54   0.0000       0.247050         6.7226 
  55   0.0000       0.250625         6.8198 
  56   0.0000       0.252688         6.8760 
  57   0.0000       0.257862         7.0168 
  58   0.0000       0.263900         7.1811 
  59   0.0000       0.268468         7.3054 
  60   0.0000       0.273787         7.4501 
  61   0.0000       0.284273         7.7355 
  62   0.0000       0.292816         7.9679 
  63   0.0000       0.324657         8.8344 
  64   0.0000       0.341465         9.2917 
  65   0.0000       0.345041         9.3890 
  66   0.0000       0.357639         9.7319 
  67   0.0000       0.358933         9.7671 
  68   0.0000       0.364157         9.9092 
  69   0.0000       0.429897        11.6981 
  70   0.0000       0.462000        12.5716 
  71   0.0000       0.484918        13.1953 
  72   0.0000       0.503109        13.6903 
  73   0.0000       0.514364        13.9966 
  74   0.0000       0.515363        14.0237 
  75   0.0000       0.521775        14.1982 
  76   0.0000       0.527107        14.3433 
  77   0.0000       0.533075        14.5057 
  78   0.0000       0.557628        15.1738 
  79   0.0000       0.574603        15.6357 
  80   0.0000       0.576671        15.6920 
  81   0.0000       0.634810        17.2741 
  82   0.0000       0.650967        17.7137 
  83   0.0000       0.652828        17.7643 
  84   0.0000       0.671542        18.2736 
  85   0.0000       0.679315        18.4851 
  86   0.0000       0.685936        18.6653 
  87   0.0000       0.700874        19.0718 
  88   0.0000       0.704968        19.1832 
  89   0.0000       0.705377        19.1943 
  90   0.0000       0.733254        19.9529 
  91   0.0000       0.737014        20.0552 
  92   0.0000       0.741836        20.1864 
  93   0.0000       0.743223        20.2241 
  94   0.0000       0.757980        20.6257 
  95   0.0000       0.760065        20.6824 
  96   0.0000       0.762749        20.7555 
  97   0.0000       0.773024        21.0351 
  98   0.0000       0.776955        21.1420 
  99   0.0000       0.779607        21.2142 
 100   0.0000       0.788013        21.4429 
 101   0.0000       0.796427        21.6719 
 102   0.0000       0.802533        21.8380 
 103   0.0000       0.802993        21.8506 
 104   0.0000       0.805406        21.9162 
 105   0.0000       0.807280        21.9672 
 106   0.0000       0.812692        22.1145 
 107   0.0000       0.815758        22.1979 
 108   0.0000       0.824461        22.4347 
 109   0.0000       0.834920        22.7193 
 110   0.0000       0.835328        22.7304 
 111   0.0000       0.846183        23.0258 
 112   0.0000       0.854385        23.2490 
 113   0.0000       0.856312        23.3014 
 114   0.0000       0.868631        23.6366 
 115   0.0000       0.952312        25.9137 
 116   0.0000       0.999169        27.1888 
 117   0.0000       1.042447        28.3664 
 118   0.0000       1.047181        28.4952 
 119   0.0000       1.089146        29.6372 
 120   0.0000       1.097765        29.8717 
 121   0.0000       1.105002        30.0686 
 122   0.0000       1.152800        31.3693 
 123   0.0000       1.158282        31.5185 
 124   0.0000       1.166725        31.7482 
 125   0.0000       1.185531        32.2599 
 126   0.0000       1.224440        33.3187 
 127   0.0000       1.262124        34.3441 
 128   0.0000       1.278584        34.7920 
 129   0.0000       1.299732        35.3675 
 130   0.0000       1.307785        35.5866 
 131   0.0000       1.366400        37.1816 
 132   0.0000       1.372145        37.3380 
 133   0.0000       1.400556        38.1111 
 134   0.0000       1.420753        38.6606 
 135   0.0000       1.485014        40.4093 
 136   0.0000       1.514912        41.2229 
 137   0.0000       1.523735        41.4629 
 138   0.0000       1.533842        41.7380 
 139   0.0000       1.599372        43.5211 
 140   0.0000       1.600485        43.5514 
 141   0.0000       1.633147        44.4402 
 142   0.0000       1.646620        44.8068 
 143   0.0000       1.647186        44.8222 
 144   0.0000       1.648173        44.8491 
 145   0.0000       1.656431        45.0738 
 146   0.0000       1.660451        45.1832 
 147   0.0000       1.703932        46.3663 
 148   0.0000       1.776402        48.3384 
 149   0.0000       1.793629        48.8071 
 150   0.0000       1.812306        49.3154 
 151   0.0000       1.830906        49.8215 
 152   0.0000       1.832326        49.8601 
 153   0.0000       1.865751        50.7697 
 154   0.0000       1.875568        51.0368 
 155   0.0000       1.886028        51.3214 
 156   0.0000       1.890033        51.4304 
 157   0.0000       1.907040        51.8932 
 158   0.0000       1.909652        51.9643 
 159   0.0000       1.918229        52.1977 
 160   0.0000       1.923856        52.3508 
 161   0.0000       1.927677        52.4548 
 162   0.0000       1.934046        52.6281 
 163   0.0000       1.946306        52.9617 
 164   0.0000       1.949815        53.0572 
 165   0.0000       1.957441        53.2647 
 166   0.0000       1.972844        53.6838 
 167   0.0000       1.975132        53.7461 
 168   0.0000       1.989065        54.1252 
 169   0.0000       1.991317        54.1865 
 170   0.0000       1.991956        54.2039 
 171   0.0000       1.997995        54.3682 
 172   0.0000       2.009488        54.6810 
 173   0.0000       2.040181        55.5162 
 174   0.0000       2.044770        55.6410 
 175   0.0000       2.054739        55.9123 
 176   0.0000       2.075364        56.4735 
 177   0.0000       2.080041        56.6008 
 178   0.0000       2.091319        56.9077 
 179   0.0000       2.146040        58.3967 
 180   0.0000       2.168137        58.9980 
 181   0.0000       2.183849        59.4256 
 182   0.0000       2.228898        60.6514 
 183   0.0000       2.237982        60.8986 
 184   0.0000       2.262661        61.5701 
 185   0.0000       2.284352        62.1604 
 186   0.0000       2.294091        62.4254 
 187   0.0000       2.311416        62.8968 
 188   0.0000       2.364323        64.3365 
 189   0.0000       2.373112        64.5757 
 190   0.0000       2.375727        64.6468 
 191   0.0000       2.397771        65.2467 
 192   0.0000       2.463332        67.0307 
 193   0.0000       2.464853        67.0721 
 194   0.0000       2.472211        67.2723 
 195   0.0000       2.494255        67.8721 
 196   0.0000       2.502478        68.0959 
 197   0.0000       2.507498        68.2325 
 198   0.0000       2.564063        69.7717 
 199   0.0000       2.580280        70.2130 
 200   0.0000       2.602619        70.8209 
 201   0.0000       2.605041        70.8868 
 202   0.0000       2.612474        71.0890 
 203   0.0000       2.616486        71.1982 
 204   0.0000       2.671885        72.7057 
 205   0.0000       2.681735        72.9737 
 206   0.0000       2.694577        73.3232 
 207   0.0000       2.697009        73.3893 
 208   0.0000       2.786517        75.8250 
 209   0.0000       2.795665        76.0739 
 210   0.0000       2.815911        76.6248 
 211   0.0000       2.832691        77.0814 
 212   0.0000       2.845052        77.4178 
 213   0.0000       2.865967        77.9869 
 214   0.0000       2.958987        80.5181 
 215   0.0000       2.976939        81.0066 
 216   0.0000       2.984192        81.2040 
 217   0.0000       2.985784        81.2473 
 218   0.0000       2.993695        81.4626 
 219   0.0000       3.003860        81.7392 
 220   0.0000       3.014617        82.0319 
 221   0.0000       3.018470        82.1367 
 222   0.0000       3.024954        82.3132 
 223   0.0000       3.075582        83.6908 
 224   0.0000       3.086551        83.9893 
 225   0.0000       3.126375        85.0730 
 226   0.0000       3.128059        85.1188 
 227   0.0000       3.131708        85.2181 
 228   0.0000       3.139512        85.4305 
 229   0.0000       3.180706        86.5514 
 230   0.0000       3.305714        89.9531 
 231   0.0000       3.434777        93.4650 
 232   0.0000       3.454162        93.9925 
 233   0.0000       3.657257        99.5190 

                    ********************************
                    * MULLIKEN POPULATION ANALYSIS *
                    ********************************

-----------------------
MULLIKEN ATOMIC CHARGES
-----------------------
   0 C :    0.001888
   1 C :    0.001888
   2 N :   -0.219855
   3 N :   -0.219855
   4 C :    0.032036
   5 C :    0.032035
   6 C :   -0.127382
   7 C :   -0.000764
   8 C :   -0.000764
   9 C :   -0.000765
  10 C :   -0.000764
  11 H :    0.027952
  12 H :    0.027952
  13 H :    0.036807
  14 H :    0.036807
  15 H :    0.016037
  16 H :    0.016037
  17 H :    0.016037
  18 H :    0.016037
  19 H :    0.032022
  20 H :    0.032022
  21 H :    0.032022
  22 H :    0.032022
  23 H :    0.045137
  24 H :    0.045137
  25 H :    0.045136
  26 H :    0.045136
Sum of atomic charges:   -0.0000000

--------------------------------
MULLIKEN REDUCED ORBITAL CHARGES
--------------------------------
  0 C s       :     3.081861  s :     3.081861
      pz      :     1.054106  p :     2.859889
      px      :     0.993157
      py      :     0.812625
      dz2     :     0.011951  d :     0.056363
      dxz     :     0.006236
      dyz     :     0.007880
      dx2y2   :     0.015909
      dxy     :     0.014386
  1 C s       :     3.081863  s :     3.081863
      pz      :     1.054105  p :     2.859886
      px      :     0.993157
      py      :     0.812624
      dz2     :     0.011951  d :     0.056363
      dxz     :     0.006236
      dyz     :     0.007880
      dx2y2   :     0.015910
      dxy     :     0.014386
  2 N s       :     3.390164  s :     3.390164
      pz      :     1.112490  p :     3.797814
      px      :     1.521902
      py      :     1.163422
      dz2     :     0.008972  d :     0.031877
      dxz     :     0.005338
      dyz     :     0.008842
      dx2y2   :     0.004908
      dxy     :     0.003817
  3 N s       :     3.390164  s :     3.390164
      pz      :     1.112490  p :     3.797813
      px      :     1.521902
      py      :     1.163422
      dz2     :     0.008972  d :     0.031877
      dxz     :     0.005338
      dyz     :     0.008842
      dx2y2   :     0.004907
      dxy     :     0.003817
  4 C s       :     3.131577  s :     3.131577
      pz      :     0.797559  p :     2.788833
      px      :     1.085376
      py      :     0.905898
      dz2     :     0.014210  d :     0.047553
      dxz     :     0.007796
      dyz     :     0.012813
      dx2y2   :     0.004778
      dxy     :     0.007957
  5 C s       :     3.131579  s :     3.131579
      pz      :     0.797560  p :     2.788833
      px      :     1.085376
      py      :     0.905897
      dz2     :     0.014210  d :     0.047553
      dxz     :     0.007796
      dyz     :     0.012813
      dx2y2   :     0.004778
      dxy     :     0.007957
  6 C s       :     3.643027  s :     3.643027
      pz      :     1.114572  p :     2.418224
      px      :     0.662338
      py      :     0.641315
      dz2     :     0.008753  d :     0.066131
      dxz     :     0.009955
      dyz     :     0.028749
      dx2y2   :     0.007103
      dxy     :     0.011570
  7 C s       :     3.004382  s :     3.004382
      pz      :     1.002074  p :     2.969831
      px      :     0.973838
      py      :     0.993919
      dz2     :     0.008219  d :     0.026551
      dxz     :     0.003335
      dyz     :     0.003337
      dx2y2   :     0.006089
      dxy     :     0.005571
  8 C s       :     3.004382  s :     3.004382
      pz      :     1.002074  p :     2.969831
      px      :     0.973838
      py      :     0.993919
      dz2     :     0.008219  d :     0.026551
      dxz     :     0.003335
      dyz     :     0.003337
      dx2y2   :     0.006089
      dxy     :     0.005571
  9 C s       :     3.004383  s :     3.004383
      pz      :     1.002074  p :     2.969830
      px      :     0.973837
      py      :     0.993919
      dz2     :     0.008219  d :     0.026551
      dxz     :     0.003335
      dyz     :     0.003337
      dx2y2   :     0.006089
      dxy     :     0.005571
 10 C s       :     3.004383  s :     3.004383
      pz      :     1.002075  p :     2.969830
      px      :     0.973837
      py      :     0.993918
      dz2     :     0.008219  d :     0.026551
      dxz     :     0.003335
      dyz     :     0.003337
      dx2y2   :     0.006089
      dxy     :     0.005571
 11 H s       :     0.948106  s :     0.948106
      pz      :     0.010179  p :     0.023942
      px      :     0.005541
      py      :     0.008222
 12 H s       :     0.948106  s :     0.948106
      pz      :     0.010179  p :     0.023942
      px      :     0.005541
      py      :     0.008222
 13 H s       :     0.942256  s :     0.942256
      pz      :     0.015437  p :     0.020937
      px      :     0.003250
      py      :     0.002250
 14 H s       :     0.942256  s :     0.942256
      pz      :     0.015437  p :     0.020937
      px      :     0.003250
      py      :     0.002250
 15 H s       :     0.960430  s :     0.960430
      pz      :     0.014742  p :     0.023533
      px      :     0.004027
      py      :     0.004764
 16 H s       :     0.960430  s :     0.960430
      pz      :     0.014742  p :     0.023533
      px      :     0.004027
      py      :     0.004764
 17 H s       :     0.960430  s :     0.960430
      pz      :     0.014742  p :     0.023533
      px      :     0.004027
      py      :     0.004764
 18 H s       :     0.960430  s :     0.960430
      pz      :     0.014742  p :     0.023533
      px      :     0.004027
      py      :     0.004764
 19 H s       :     0.944360  s :     0.944360
      pz      :     0.006250  p :     0.023618
      px      :     0.004098
      py      :     0.013271
 20 H s       :     0.944360  s :     0.944360
      pz      :     0.006250  p :     0.023618
      px      :     0.004098
      py      :     0.013271
 21 H s       :     0.944360  s :     0.944360
      pz      :     0.006250  p :     0.023618
      px      :     0.004098
      py      :     0.013271
 22 H s       :     0.944360  s :     0.944360
      pz      :     0.006250  p :     0.023618
      px      :     0.004098
      py      :     0.013271
 23 H s       :     0.931598  s :     0.931598
      pz      :     0.005591  p :     0.023265
      px      :     0.010716
      py      :     0.006959
 24 H s       :     0.931598  s :     0.931598
      pz      :     0.005591  p :     0.023265
      px      :     0.010716
      py      :     0.006959
 25 H s       :     0.931598  s :     0.931598
      pz      :     0.005591  p :     0.023265
      px      :     0.010716
      py      :     0.006959
 26 H s       :     0.931598  s :     0.931598
      pz      :     0.005591  p :     0.023265
      px      :     0.010716
      py      :     0.006959


                     *******************************
                     * LOEWDIN POPULATION ANALYSIS *
                     *******************************

----------------------
LOEWDIN ATOMIC CHARGES
----------------------
   0 C :    0.028434
   1 C :    0.028434
   2 N :    0.028132
   3 N :    0.028132
   4 C :   -0.037470
   5 C :   -0.037470
   6 C :   -0.255278
   7 C :   -0.059868
   8 C :   -0.059868
   9 C :   -0.059868
  10 C :   -0.059868
  11 H :    0.025002
  12 H :    0.025002
  13 H :    0.033815
  14 H :    0.033815
  15 H :    0.021295
  16 H :    0.021296
  17 H :    0.021295
  18 H :    0.021296
  19 H :    0.030241
  20 H :    0.030241
  21 H :    0.030241
  22 H :    0.030241
  23 H :    0.033195
  24 H :    0.033195
  25 H :    0.033195
  26 H :    0.033195

-------------------------------
LOEWDIN REDUCED ORBITAL CHARGES
-------------------------------
  0 C s       :     2.834125  s :     2.834125
      pz      :     1.060477  p :     3.007378
      px      :     1.043556
      py      :     0.903345
      dz2     :     0.030358  d :     0.130063
      dxz     :     0.012714
      dyz     :     0.017125
      dx2y2   :     0.035351
      dxy     :     0.034514
  1 C s       :     2.834125  s :     2.834125
      pz      :     1.060477  p :     3.007378
      px      :     1.043556
      py      :     0.903345
      dz2     :     0.030358  d :     0.130063
      dxz     :     0.012714
      dyz     :     0.017125
      dx2y2   :     0.035351
      dxy     :     0.034514
  2 N s       :     3.068201  s :     3.068201
      pz      :     1.193535  p :     3.829224
      px      :     1.442478
      py      :     1.193211
      dz2     :     0.022836  d :     0.074444
      dxz     :     0.010470
      dyz     :     0.024169
      dx2y2   :     0.010409
      dxy     :     0.006560
  3 N s       :     3.068201  s :     3.068201
      pz      :     1.193535  p :     3.829224
      px      :     1.442478
      py      :     1.193211
      dz2     :     0.022836  d :     0.074444
      dxz     :     0.010470
      dyz     :     0.024169
      dx2y2   :     0.010409
      dxy     :     0.006560
  4 C s       :     2.857535  s :     2.857535
      pz      :     0.939935  p :     3.061467
      px      :     1.069744
      py      :     1.051788
      dz2     :     0.037986  d :     0.118468
      dxz     :     0.015493
      dyz     :     0.035440
      dx2y2   :     0.013702
      dxy     :     0.015847
  5 C s       :     2.857535  s :     2.857535
      pz      :     0.939935  p :     3.061467
      px      :     1.069744
      py      :     1.051788
      dz2     :     0.037986  d :     0.118468
      dxz     :     0.015493
      dyz     :     0.035440
      dx2y2   :     0.013702
      dxy     :     0.015847
  6 C s       :     3.211025  s :     3.211025
      pz      :     1.366664  p :     2.901322
      px      :     0.721860
      py      :     0.812798
      dz2     :     0.014152  d :     0.142931
      dxz     :     0.014084
      dyz     :     0.067015
      dx2y2   :     0.022133
      dxy     :     0.025547
  7 C s       :     2.840912  s :     2.840912
      pz      :     1.059602  p :     3.148800
      px      :     1.033253
      py      :     1.055944
      dz2     :     0.021793  d :     0.070156
      dxz     :     0.008173
      dyz     :     0.008544
      dx2y2   :     0.016085
      dxy     :     0.015562
  8 C s       :     2.840912  s :     2.840912
      pz      :     1.059602  p :     3.148800
      px      :     1.033253
      py      :     1.055944
      dz2     :     0.021793  d :     0.070157
      dxz     :     0.008173
      dyz     :     0.008544
      dx2y2   :     0.016085
      dxy     :     0.015562
  9 C s       :     2.840912  s :     2.840912
      pz      :     1.059602  p :     3.148800
      px      :     1.033253
      py      :     1.055944
      dz2     :     0.021793  d :     0.070156
      dxz     :     0.008173
      dyz     :     0.008544
      dx2y2   :     0.016085
      dxy     :     0.015562
 10 C s       :     2.840912  s :     2.840912
      pz      :     1.059602  p :     3.148800
      px      :     1.033253
      py      :     1.055944
      dz2     :     0.021793  d :     0.070157
      dxz     :     0.008173
      dyz     :     0.008544
      dx2y2   :     0.016085
      dxy     :     0.015562
 11 H s       :     0.904250  s :     0.904250
      pz      :     0.030380  p :     0.070748
      px      :     0.017060
      py      :     0.023308
 12 H s       :     0.904250  s :     0.904250
      pz      :     0.030380  p :     0.070748
      px      :     0.017060
      py      :     0.023308
 13 H s       :     0.900278  s :     0.900278
      pz      :     0.044051  p :     0.065907
      px      :     0.012579
      py      :     0.009276
 14 H s       :     0.900278  s :     0.900278
      pz      :     0.044051  p :     0.065907
      px      :     0.012580
      py      :     0.009276
 15 H s       :     0.913872  s :     0.913872
      pz      :     0.039564  p :     0.064833
      px      :     0.012530
      py      :     0.012739
 16 H s       :     0.913872  s :     0.913872
      pz      :     0.039563  p :     0.064833
      px      :     0.012530
      py      :     0.012739
 17 H s       :     0.913872  s :     0.913872
      pz      :     0.039564  p :     0.064833
      px      :     0.012530
      py      :     0.012739
 18 H s       :     0.913872  s :     0.913872
      pz      :     0.039563  p :     0.064833
      px      :     0.012530
      py      :     0.012739
 19 H s       :     0.904971  s :     0.904971
      pz      :     0.016193  p :     0.064788
      px      :     0.012429
      py      :     0.036166
 20 H s       :     0.904971  s :     0.904971
      pz      :     0.016193  p :     0.064788
      px      :     0.012429
      py      :     0.036166
 21 H s       :     0.904971  s :     0.904971
      pz      :     0.016193  p :     0.064788
      px      :     0.012429
      py      :     0.036166
 22 H s       :     0.904971  s :     0.904971
      pz      :     0.016193  p :     0.064788
      px      :     0.012429
      py      :     0.036166
 23 H s       :     0.901723  s :     0.901723
      pz      :     0.014686  p :     0.065082
      px      :     0.031579
      py      :     0.018817
 24 H s       :     0.901723  s :     0.901723
      pz      :     0.014686  p :     0.065082
      px      :     0.031579
      py      :     0.018817
 25 H s       :     0.901723  s :     0.901723
      pz      :     0.014686  p :     0.065082
      px      :     0.031579
      py      :     0.018817
 26 H s       :     0.901723  s :     0.901723
      pz      :     0.014686  p :     0.065082
      px      :     0.031579
      py      :     0.018817


                      *****************************
                      * MAYER POPULATION ANALYSIS *
                      *****************************

  NA   - Mulliken gross atomic population
  ZA   - Total nuclear charge
  QA   - Mulliken gross atomic charge
  VA   - Mayer's total valence
  BVA  - Mayer's bonded valence
  FA   - Mayer's free valence

  ATOM       NA         ZA         QA         VA         BVA        FA
  0 C      5.9981     6.0000     0.0019     4.0897     4.0897     0.0000
  1 C      5.9981     6.0000     0.0019     4.0897     4.0897    -0.0000
  2 N      7.2199     7.0000    -0.2199     3.3066     3.3066    -0.0000
  3 N      7.2199     7.0000    -0.2199     3.3066     3.3066     0.0000
  4 C      5.9680     6.0000     0.0320     3.8634     3.8634     0.0000
  5 C      5.9680     6.0000     0.0320     3.8634     3.8634     0.0000
  6 C      6.1274     6.0000    -0.1274     2.6714     2.6714    -0.0000
  7 C      6.0008     6.0000    -0.0008     3.9511     3.9511     0.0000
  8 C      6.0008     6.0000    -0.0008     3.9511     3.9511    -0.0000
  9 C      6.0008     6.0000    -0.0008     3.9511     3.9511    -0.0000
 10 C      6.0008     6.0000    -0.0008     3.9511     3.9511    -0.0000
 11 H      0.9720     1.0000     0.0280     1.0009     1.0009    -0.0000
 12 H      0.9720     1.0000     0.0280     1.0009     1.0009     0.0000
 13 H      0.9632     1.0000     0.0368     1.0049     1.0049    -0.0000
 14 H      0.9632     1.0000     0.0368     1.0049     1.0049    -0.0000
 15 H      0.9840     1.0000     0.0160     0.9992     0.9992     0.0000
 16 H      0.9840     1.0000     0.0160     0.9992     0.9992    -0.0000
 17 H      0.9840     1.0000     0.0160     0.9992     0.9992    -0.0000
 18 H      0.9840     1.0000     0.0160     0.9992     0.9992    -0.0000
 19 H      0.9680     1.0000     0.0320     0.9931     0.9931     0.0000
 20 H      0.9680     1.0000     0.0320     0.9931     0.9931    -0.0000
 21 H      0.9680     1.0000     0.0320     0.9931     0.9931    -0.0000
 22 H      0.9680     1.0000     0.0320     0.9931     0.9931    -0.0000
 23 H      0.9549     1.0000     0.0451     0.9949     0.9949    -0.0000
 24 H      0.9549     1.0000     0.0451     0.9949     0.9949    -0.0000
 25 H      0.9549     1.0000     0.0451     0.9949     0.9949    -0.0000
 26 H      0.9549     1.0000     0.0451     0.9949     0.9949    -0.0000

  Mayer bond orders larger than 0.100000
B(  0-C ,  2-N ) :   0.9192 B(  0-C ,  7-C ) :   1.0703 B(  0-C ,  8-C ) :   1.0703 
B(  0-C , 13-H ) :   0.9307 B(  1-C ,  3-N ) :   0.9192 B(  1-C ,  9-C ) :   1.0703 
B(  1-C , 10-C ) :   1.0703 B(  1-C , 14-H ) :   0.9307 B(  2-N ,  4-C ) :   1.1173 
B(  2-N ,  6-C ) :   1.2194 B(  3-N ,  5-C ) :   1.1173 B(  3-N ,  6-C ) :   1.2194 
B(  4-C ,  5-C ) :   1.6446 B(  4-C , 11-H ) :   0.9859 B(  5-C , 12-H ) :   0.9859 
B(  7-C , 15-H ) :   0.9635 B(  7-C , 19-H ) :   0.9725 B(  7-C , 23-H ) :   0.9691 
B(  8-C , 16-H ) :   0.9635 B(  8-C , 20-H ) :   0.9725 B(  8-C , 24-H ) :   0.9691 
B(  9-C , 17-H ) :   0.9635 B(  9-C , 21-H ) :   0.9725 B(  9-C , 25-H ) :   0.9691 
B( 10-C , 18-H ) :   0.9635 B( 10-C , 22-H ) :   0.9725 B( 10-C , 26-H ) :   0.9691 


-------
TIMINGS
-------

Total SCF time: 0 days 0 hours 6 min 10 sec 

Total time                  ....     370.462 sec
Sum of individual times     ....     370.178 sec  ( 99.9%)

Fock matrix formation       ....     364.437 sec  ( 98.4%)
  Split-RI-J                ....      15.034 sec  (  4.1% of F)
  Chain of spheres X        ....     315.567 sec  ( 86.6% of F)
  XC integration            ....      33.650 sec  (  9.2% of F)
    Basis function eval.    ....      12.309 sec  ( 36.6% of XC)
    Density eval.           ....       7.958 sec  ( 23.7% of XC)
    XC-Functional eval.     ....       4.786 sec  ( 14.2% of XC)
    XC-Potential eval.      ....       7.748 sec  ( 23.0% of XC)
Diagonalization             ....       0.122 sec  (  0.0%)
Density matrix formation    ....       0.018 sec  (  0.0%)
Population analysis         ....       0.012 sec  (  0.0%)
Initial guess               ....       0.996 sec  (  0.3%)
Orbital Transformation      ....       0.000 sec  (  0.0%)
Orbital Orthonormalization  ....       0.000 sec  (  0.0%)
DIIS solution               ....       0.042 sec  (  0.0%)
SOSCF solution              ....       0.050 sec  (  0.0%)
Grid generation             ....       4.500 sec  (  1.2%)

Maximum memory used throughout the entire SCF-calculation: 91.0 MB


-------------------------------------------------------------------------------
                          DFT DISPERSION CORRECTION                            
                                                                               
                                 DFTD4 V2.5                                    
-------------------------------------------------------------------------------
The WB97X functional is recognized
Active option DFTDOPT                   ...         5   

Starting D4
-------------------------   ----------------
Dispersion correction           -0.004100675
-------------------------   ----------------


-------------------------   --------------------
FINAL SINGLE POINT ENERGY      -461.619783064494
-------------------------   --------------------


                            ***************************************
                            *     ORCA property calculations      *
                            ***************************************

                                    ---------------------
                                    Active property flags
                                    ---------------------
   (+) Dipole Moment


------------------------------------------------------------------------------
                       ORCA ELECTRIC PROPERTIES CALCULATION
------------------------------------------------------------------------------

Dipole Moment Calculation                       ... on
Quadrupole Moment Calculation                   ... off
Polarizability Calculation                      ... off
GBWName                                         ... 4.gbw
Electron density                                ... 4.scfp
The origin for moment calculation is the CENTER OF MASS  = ( 0.000001, -0.000000  0.026898)

-------------
DIPOLE MOMENT
-------------
                                X             Y             Z
Electronic contribution:      0.00001       0.00000       0.13685
Nuclear contribution   :     -0.00001      -0.00000      -1.02766
                        -----------------------------------------
Total Dipole Moment    :     -0.00000       0.00000      -0.89081
                        -----------------------------------------
Magnitude (a.u.)       :      0.89081
Magnitude (Debye)      :      2.26426



--------------------
Rotational spectrum 
--------------------
 
Rotational constants in cm-1:     0.091078     0.018628     0.017944 
Rotational constants in MHz :  2730.457925   558.465635   537.933447 

 Dipole components along the rotational axes: 
x,y,z [a.u.] :     0.000000    -0.000004    -0.890811 
x,y,z [Debye]:     0.000001    -0.000010    -2.264263 

 

-------------------------------------------------------------------------------
                               ORCA SCF HESSIAN
-------------------------------------------------------------------------------

                   --------- SHARK INITIALIZATION DONE ---------

Hessian of the Kohn-Sham DFT energy:
Kohn-Sham wavefunction type                      ... RKS
Hartree-Fock exchange scaling                    ...    0.158
Number of operators                              ...    1
Number of atoms                                  ...   27
Basis set dimensions                             ...  234
Integral neglect threshold                       ... 2.5e-11
Integral primitive cutoff                        ... 2.5e-12

Setting up DFT Hessian calculations              ... 

HESS GRID
---------

General Integration Accuracy     IntAcc      ... 4.629
Radial Grid Type                 RadialGrid  ... OptM3 with GC (2021)
Angular Grid (max. ang.)         AngularGrid ... 5 (Lebedev-434)
Angular grid pruning method      GridPruning ... 4 (adaptive)
Weight generation scheme         WeightScheme... Becke
Basis function cutoff            BFCut       ... 1.0000e-11
Integration weight cutoff        WCut        ... 1.0000e-14
Angular grids for H and He will be reduced by one unit
Partially contracted basis set               ... off
Rotationally invariant grid construction     ... off

Total number of grid points                  ...   180940
Total number of batches                      ...     2840
Average number of points per batch           ...       63
Average number of grid points per atom       ...     6701

Building densities                               ... done   (      0.0 sec)
Calculating rho(r) on the grid                   ... done   (      2.0 sec)
Building xc-kernel on the grid                   ... done   (      1.6 sec)
                                                     done   (      6.9 sec)

Nuclear repulsion Hessian  (SHARK)               ... done   (      0.0 sec)

----------------------------------------------
Forming right-hand sides of CP-SCF equations     ...
----------------------------------------------
One electron integral derivatives  (SHARK)       ... done   (      0.7 sec)
Transforming the overlap derivative matrices     ... done   (      0.2 sec)
Making the Q(x) pseudodensities                  ... done   (      0.1 sec)
Adding the E*S(x)*S(y) terms to the Hessian      ... done   (      0.2 sec)
Calculating energy weighted overlap derivatives  ... done   (      0.0 sec)
Two electron integral derivatives (SHARK-RI)     ... done   (     89.7 sec)
Exchange-correlation integral derivatives        ... done   (    220.9 sec)
tr(F(y)Q(x)) contribution to the Hessian         ... done   (      0.1 sec)
Response fock operator R(S(x)) (SHARK-RIJCOSX)   ... done   (     85.8 sec)
XC Response fock operator R(S(x))                ... done   (     98.7 sec)
tr(F(y)S(x)) contribution to the Hessian         ... done   (      0.1 sec)
Transforming and finalizing RHSs                 ... done   (      0.2 sec)

----------------------------------------------
Solving the CP-SCF equations (RIJCOSX)           ...
----------------------------------------------
     CP-SCF ITERATION   0:   1.3924e-01 (  43.9 sec   0/ 81 done)
     CP-SCF ITERATION   1:   9.2101e-02 (  43.9 sec   0/ 81 done)
     CP-SCF ITERATION   2:   2.1831e-02 (  43.8 sec   0/ 81 done)
     CP-SCF ITERATION   3:   8.8167e-03 (  43.9 sec   0/ 81 done)
     CP-SCF ITERATION   4:   4.7938e-03 (  44.4 sec   0/ 81 done)
     CP-SCF ITERATION   5:   1.4647e-03 (  44.3 sec  16/ 81 done)
     CP-SCF ITERATION   6:   5.1044e-04 (  37.6 sec  64/ 81 done)
     CP-SCF ITERATION   7:   1.7538e-04 (  18.0 sec  71/ 81 done)
     CP-SCF ITERATION   8:   6.3168e-05 (  13.6 sec  81/ 81 done)
                    *** THE CP-SCF HAS CONVERGED ***

                                                 ... done   (    334.1 sec)
Forming perturbed density Hessian contributions  ... done   (      0.2 sec)
2nd integral derivative contribs (SHARK-RI)      ... done   (    329.2 sec)
Exchange-correlation Hessian                     ... done   (    162.4 sec)
Dispersion correction in the Hessian             ... Starting D4


------------------- 
Dispersion Gradient 
------------------- 
   1  :    0.000000010    0.000040717    0.000013025
   2  :   -0.000000003   -0.000040717    0.000013026
   3  :   -0.000000009    0.000021461    0.000000272
   4  :   -0.000000004   -0.000021460    0.000000272
   5  :   -0.000000001    0.000019794   -0.000030249
   6  :   -0.000000003   -0.000019794   -0.000030249
   7  :   -0.000000000    0.000000000    0.000016734
   8  :    0.000028959    0.000046709    0.000000757
   9  :   -0.000028938    0.000046694    0.000000768
  10  :   -0.000028950   -0.000046700    0.000000762
  11  :    0.000028947   -0.000046704    0.000000762
  12  :   -0.000000000    0.000003718   -0.000005900
  13  :   -0.000000001   -0.000003718   -0.000005900
  14  :    0.000000010    0.000011034   -0.000002060
  15  :   -0.000000001   -0.000011034   -0.000002060
  16  :    0.000004158    0.000010860    0.000004170
  17  :   -0.000004161    0.000010863    0.000004171
  18  :   -0.000004159   -0.000010861    0.000004170
  19  :    0.000004159   -0.000010862    0.000004170
  20  :    0.000004756    0.000008710    0.000001598
  21  :   -0.000004759    0.000008710    0.000001596
  22  :   -0.000004757   -0.000008710    0.000001597
  23  :    0.000004757   -0.000008711    0.000001597
  24  :    0.000005088    0.000013418    0.000001744
  25  :   -0.000005096    0.000013423    0.000001742
  26  :   -0.000005092   -0.000013420    0.000001743
  27  :    0.000005092   -0.000013422    0.000001743

  |G| =    0.000138301

Starting D4


------------------- 
Dispersion Gradient 
------------------- 
   1  :   -0.000000010    0.000040717    0.000013025
   2  :    0.000000003   -0.000040717    0.000013026
   3  :    0.000000009    0.000021461    0.000000272
   4  :    0.000000004   -0.000021460    0.000000272
   5  :    0.000000001    0.000019794   -0.000030249
   6  :    0.000000003   -0.000019794   -0.000030249
   7  :    0.000000000    0.000000000    0.000016734
   8  :    0.000028937    0.000046694    0.000000768
   9  :   -0.000028959    0.000046709    0.000000757
  10  :   -0.000028947   -0.000046704    0.000000762
  11  :    0.000028950   -0.000046700    0.000000762
  12  :    0.000000000    0.000003718   -0.000005900
  13  :    0.000000001   -0.000003718   -0.000005900
  14  :   -0.000000010    0.000011034   -0.000002060
  15  :    0.000000001   -0.000011034   -0.000002060
  16  :    0.000004161    0.000010863    0.000004171
  17  :   -0.000004158    0.000010860    0.000004170
  18  :   -0.000004159   -0.000010862    0.000004170
  19  :    0.000004159   -0.000010861    0.000004170
  20  :    0.000004759    0.000008710    0.000001596
  21  :   -0.000004756    0.000008710    0.000001598
  22  :   -0.000004757   -0.000008711    0.000001597
  23  :    0.000004757   -0.000008710    0.000001597
  24  :    0.000005096    0.000013423    0.000001742
  25  :   -0.000005088    0.000013418    0.000001745
  26  :   -0.000005092   -0.000013422    0.000001743
  27  :    0.000005092   -0.000013420    0.000001743

  |G| =    0.000138302

Starting D4


------------------- 
Dispersion Gradient 
------------------- 
   1  :    0.000000000    0.000040697    0.000013035
   2  :   -0.000000000   -0.000040713    0.000013025
   3  :    0.000000000    0.000021489    0.000000282
   4  :    0.000000000   -0.000021476    0.000000272
   5  :    0.000000000    0.000019790   -0.000030255
   6  :    0.000000000   -0.000019805   -0.000030254
   7  :    0.000000000   -0.000000015    0.000016739
   8  :    0.000028958    0.000046704    0.000000758
   9  :   -0.000028958    0.000046704    0.000000758
  10  :   -0.000028946   -0.000046695    0.000000763
  11  :    0.000028946   -0.000046695    0.000000763
  12  :    0.000000000    0.000003717   -0.000005901
  13  :    0.000000000   -0.000003717   -0.000005899
  14  :   -0.000000000    0.000011045   -0.000002072
  15  :    0.000000000   -0.000011032   -0.000002060
  16  :    0.000004157    0.000010861    0.000004170
  17  :   -0.000004157    0.000010861    0.000004170
  18  :   -0.000004159   -0.000010860    0.000004170
  19  :    0.000004159   -0.000010860    0.000004171
  20  :    0.000004753    0.000008707    0.000001598
  21  :   -0.000004753    0.000008707    0.000001598
  22  :   -0.000004757   -0.000008709    0.000001597
  23  :    0.000004757   -0.000008709    0.000001597
  24  :    0.000005092    0.000013420    0.000001745
  25  :   -0.000005092    0.000013420    0.000001745
  26  :   -0.000005091   -0.000013418    0.000001744
  27  :    0.000005091   -0.000013418    0.000001744

  |G| =    0.000138300

Starting D4


------------------- 
Dispersion Gradient 
------------------- 
   1  :    0.000000000    0.000040736    0.000013016
   2  :   -0.000000000   -0.000040721    0.000013026
   3  :    0.000000000    0.000021432    0.000000262
   4  :    0.000000000   -0.000021445    0.000000272
   5  :    0.000000000    0.000019798   -0.000030243
   6  :    0.000000000   -0.000019783   -0.000030244
   7  :    0.000000000    0.000000015    0.000016729
   8  :    0.000028939    0.000046700    0.000000767
   9  :   -0.000028939    0.000046700    0.000000767
  10  :   -0.000028951   -0.000046709    0.000000761
  11  :    0.000028951   -0.000046709    0.000000761
  12  :    0.000000000    0.000003718   -0.000005899
  13  :    0.000000000   -0.000003718   -0.000005900
  14  :   -0.000000000    0.000011023   -0.000002048
  15  :    0.000000000   -0.000011036   -0.000002060
  16  :    0.000004162    0.000010862    0.000004170
  17  :   -0.000004162    0.000010862    0.000004170
[...]
     66       0.002797   0.002790  -0.002752  -0.007567   0.007657  -0.009105
     67      -0.240918  -0.196258   0.193101   0.304263  -0.309094   0.333139
     68       0.094744   0.075868  -0.074515  -0.128548   0.130588  -0.140026
     69       0.166966  -0.188708  -0.191269  -0.302096  -0.297335  -0.277981
     70      -0.104380   0.115864   0.117431   0.180538   0.177655   0.166548
     71       0.058779  -0.068503  -0.069498  -0.118697  -0.116839  -0.109580
     72       0.167168   0.188656   0.191224  -0.302018  -0.297243   0.277990
     73       0.104504   0.115829   0.117401  -0.180491  -0.177600   0.166553
     74      -0.058854  -0.068488  -0.069486   0.118669   0.116805  -0.109585
     75       0.164081  -0.188220   0.191591   0.297228  -0.302439  -0.277654
     76      -0.102578   0.115566  -0.117630  -0.177630   0.180707   0.166353
     77      -0.057760   0.068324  -0.069613  -0.116783   0.118844   0.109450
     78       0.164260   0.188173  -0.191547   0.296996  -0.302202   0.277845
     79       0.102688   0.115534  -0.117600   0.177490  -0.180564   0.166466
     80       0.057827   0.068310  -0.069600   0.116694  -0.118752   0.109526
                 78         79         80    
      0      -0.000000   0.000000   0.000000
      1      -0.000983  -0.000342  -0.000227
      2      -0.001199   0.000177   0.000615
      3       0.000000  -0.000000  -0.000000
      4       0.000984  -0.000342   0.000227
      5      -0.001195  -0.000177   0.000615
      6       0.000000   0.000000   0.000000
      7       0.000372  -0.000337  -0.000824
      8       0.000002  -0.000542  -0.002558
      9      -0.000000  -0.000000   0.000000
     10      -0.000372  -0.000337   0.000824
     11       0.000002   0.000542  -0.002558
     12      -0.000000   0.000000   0.000000
     13       0.000145  -0.038600  -0.049409
     14       0.000130   0.047538   0.047748
     15       0.000000  -0.000000   0.000000
     16      -0.000145  -0.038600   0.049409
     17       0.000130  -0.047538   0.047748
     18      -0.000000  -0.000000  -0.000000
     19      -0.000000   0.001833  -0.000000
     20      -0.000106   0.000000  -0.000867
     21       0.022165   0.000130   0.000087
     22      -0.041251  -0.000088  -0.000046
     23      -0.003430   0.000809   0.000655
     24      -0.022165  -0.000130  -0.000087
     25      -0.041256  -0.000088  -0.000046
     26      -0.003435   0.000809   0.000655
     27      -0.022187   0.000130  -0.000087
     28       0.041283  -0.000088   0.000046
     29      -0.003423  -0.000809   0.000655
     30       0.022201  -0.000130   0.000087
     31       0.041310  -0.000088   0.000046
     32      -0.003426  -0.000809   0.000655
     33      -0.000000  -0.000001  -0.000001
     34      -0.000111   0.456660   0.461090
     35       0.000182  -0.536213  -0.531540
     36       0.000000   0.000001  -0.000001
     37       0.000114   0.456659  -0.461091
     38       0.000186   0.536211  -0.531541
     39       0.000000   0.000000  -0.000000
     40       0.000220   0.001033   0.001948
     41       0.012251   0.001373  -0.002495
     42      -0.000000   0.000000   0.000000
     43      -0.000224   0.001033  -0.001948
     44       0.012215  -0.001373  -0.002495
     45       0.002435   0.000430   0.000296
     46      -0.006280   0.000969   0.000785
     47       0.009140  -0.009011  -0.007409
     48      -0.002434  -0.000430  -0.000296
     49      -0.006283   0.000969   0.000785
     50       0.009173  -0.009010  -0.007409
     51      -0.002440   0.000430  -0.000296
     52       0.006279   0.000969  -0.000785
     53       0.009066   0.009011  -0.007409
     54       0.002442  -0.000430   0.000296
     55       0.006283   0.000969  -0.000785
     56       0.009078   0.009010  -0.007409
     57       0.009168   0.000219   0.000200
     58       0.335381  -0.001104  -0.001020
     59       0.140850  -0.000916  -0.000762
     60      -0.009169  -0.000219  -0.000200
     61       0.335446  -0.001104  -0.001020
     62       0.140876  -0.000916  -0.000762
     63      -0.009175   0.000219  -0.000200
     64      -0.335596  -0.001104   0.001020
     65       0.140941   0.000916  -0.000762
     66       0.009180  -0.000219   0.000200
     67      -0.335828  -0.001104   0.001020
     68       0.141038   0.000916  -0.000762
     69      -0.275462  -0.002237  -0.001519
     70       0.164924   0.001232   0.000839
     71      -0.108663  -0.000691  -0.000403
     72       0.275468   0.002236   0.001519
     73       0.164927   0.001232   0.000839
     74      -0.108666  -0.000691  -0.000403
     75       0.275742  -0.002237   0.001519
     76      -0.165092   0.001232  -0.000839
     77      -0.108772   0.000691  -0.000403
     78      -0.275917   0.002237  -0.001519
     79      -0.165196   0.001232  -0.000839
     80      -0.108842   0.000691  -0.000403


-----------
IR SPECTRUM
-----------

 Mode   freq       eps      Int      T**2         TX        TY        TZ
       cm**-1   L/(mol*cm) km/mol    a.u.
----------------------------------------------------------------------------
  6:     16.76   0.000019    0.10  0.000363  ( 0.019040  0.000000 -0.000000)
  7:     36.30   0.000000    0.00  0.000000  ( 0.000000  0.000000 -0.000000)
  8:    116.27   0.001811    9.15  0.004860  (-0.069716  0.000000  0.000000)
  9:    152.35   0.000000    0.00  0.000000  (-0.000000  0.000000 -0.000001)
 10:    161.51   0.000252    1.27  0.000486  (-0.000000  0.000000 -0.022054)
 11:    233.36   0.000000    0.00  0.000000  (-0.000003  0.000000  0.000000)
 12:    233.81   0.000025    0.13  0.000034  (-0.005822 -0.000000  0.000000)
 13:    253.28   0.000083    0.42  0.000102  ( 0.000000 -0.010088  0.000000)
 14:    265.81   0.000003    0.01  0.000003  ( 0.000000  0.000000  0.001758)
 15:    272.21   0.000000    0.00  0.000000  ( 0.000000  0.000000 -0.000427)
 16:    302.03   0.000536    2.71  0.000554  (-0.000000 -0.023534 -0.000000)
 17:    354.77   0.000421    2.13  0.000370  ( 0.000000 -0.019234  0.000000)
 18:    403.60   0.002667   13.48  0.002062  ( 0.045415  0.000000 -0.000000)
 19:    445.63   0.000000    0.00  0.000000  ( 0.000000  0.000000  0.000000)
 20:    459.76   0.000001    0.01  0.000001  ( 0.000000  0.000000 -0.000991)
 21:    572.86   0.002650   13.39  0.001443  (-0.000000  0.037991 -0.000000)
 22:    635.15   0.000103    0.52  0.000050  (-0.000000 -0.000000 -0.007105)
 23:    665.64   0.001004    5.08  0.000471  (-0.021700  0.000000 -0.000000)
 24:    681.43   0.000000    0.00  0.000000  ( 0.000000 -0.000000 -0.000000)
 25:    690.94   0.002098   10.60  0.000947  ( 0.000000  0.030779 -0.000000)
 26:    738.93   0.007231   36.54  0.003054  (-0.055261 -0.000000  0.000000)
 27:    866.42   0.000000    0.00  0.000000  (-0.000000 -0.000000  0.000000)
 28:    908.90   0.001529    7.73  0.000525  (-0.000000 -0.022911  0.000000)
 29:    912.81   0.000238    1.20  0.000081  (-0.000000  0.000001  0.009023)
 30:    936.28   0.000000    0.00  0.000000  (-0.000040  0.000000 -0.000000)
 31:    936.38   0.000296    1.50  0.000099  (-0.009930  0.000000  0.000000)
 32:    957.60   0.000104    0.53  0.000034  (-0.005827 -0.000000 -0.000000)
 33:    957.76   0.000000    0.00  0.000000  (-0.000005 -0.000000  0.000000)
 34:   1021.56   0.002471   12.49  0.000755  (-0.000000  0.027475 -0.000000)
 35:   1026.22   0.000025    0.13  0.000008  ( 0.000000 -0.000000 -0.002763)
 36:   1074.06   0.000243    1.23  0.000071  (-0.000000  0.008405 -0.000000)
 37:   1094.17   0.001757    8.88  0.000501  (-0.000000  0.000000  0.022382)
 38:   1110.03   0.002049   10.36  0.000576  (-0.000000 -0.000000  0.024002)
 39:   1173.76   0.002255   11.40  0.000600  ( 0.024487  0.000000 -0.000000)
 40:   1173.80   0.000000    0.00  0.000000  (-0.000037 -0.000000 -0.000000)
 41:   1191.64   0.000009    0.04  0.000002  ( 0.000000  0.000000  0.001524)
 42:   1196.23   0.000005    0.02  0.000001  ( 0.000001 -0.001126  0.000000)
 43:   1250.24   0.020826  105.24  0.005198  ( 0.000000 -0.072098  0.000000)
 44:   1318.07   0.003746   18.93  0.000887  (-0.000000 -0.029781 -0.000000)
 45:   1325.23   0.000125    0.63  0.000029  (-0.000000  0.000001 -0.005423)
 46:   1354.62   0.000000    0.00  0.000000  ( 0.000001  0.000000  0.000000)
 47:   1355.01   0.000033    0.17  0.000008  ( 0.002748  0.000000 -0.000000)
 48:   1402.08   0.000050    0.25  0.000011  ( 0.000003  0.003328  0.000000)
 49:   1406.25   0.000000    0.00  0.000000  (-0.000002  0.000000 -0.000007)
 50:   1406.88   0.007946   40.16  0.001763  ( 0.041983  0.000001 -0.000010)
 51:   1407.05   0.000699    3.53  0.000155  (-0.000035 -0.000000 -0.012448)
 52:   1411.18   0.001014    5.12  0.000224  ( 0.000000 -0.000000 -0.014972)
 53:   1424.73   0.011421   57.72  0.002501  (-0.000001  0.050015 -0.000000)
 54:   1446.63   0.002719   13.74  0.000587  ( 0.000000 -0.000000  0.024219)
 55:   1460.56   0.000000    0.00  0.000000  ( 0.000001  0.000000 -0.000000)
 56:   1461.04   0.000009    0.04  0.000002  ( 0.001375  0.000000  0.000000)
 57:   1465.97   0.000252    1.27  0.000054  (-0.007328 -0.000000  0.000000)
 58:   1465.97   0.000000    0.00  0.000000  (-0.000149  0.000000 -0.000000)
 59:   1473.48   0.002880   14.56  0.000610  ( 0.000000  0.024699  0.000000)
 60:   1476.37   0.003746   18.93  0.000792  ( 0.000000  0.000001 -0.028140)
 61:   1479.19   0.007356   37.18  0.001552  ( 0.000000  0.039395  0.000001)
 62:   1490.24   0.001384    6.99  0.000290  (-0.000000  0.000002  0.017021)
 63:   1494.50   0.010370   52.41  0.002165  ( 0.000000 -0.046534  0.000000)
 64:   1655.55   0.000023    0.11  0.000004  ( 0.000000 -0.000000  0.002067)
 65:   3063.22   0.000000    0.00  0.000000  (-0.000133  0.000001 -0.000010)
 66:   3063.26   0.005418   27.38  0.000552  (-0.023494  0.000014 -0.000001)
 67:   3065.71   0.004114   20.79  0.000419  (-0.000017 -0.020465  0.000015)
 68:   3065.92   0.001933    9.77  0.000197  (-0.000001  0.000023  0.014026)
 69:   3130.51   0.000029    0.15  0.000003  (-0.000000 -0.000000 -0.001712)
 70:   3130.76   0.000128    0.65  0.000013  (-0.000001 -0.003568  0.000000)
 71:   3161.04   0.000000    0.00  0.000000  ( 0.000080  0.000000  0.000013)
 72:   3161.04   0.000940    4.75  0.000093  (-0.009632  0.000003  0.000001)
 73:   3166.96   0.001366    6.90  0.000135  ( 0.000002  0.011601  0.000036)
 74:   3167.20   0.011922   60.25  0.001175  ( 0.000000 -0.000017  0.034274)
 75:   3176.18   0.000000    0.00  0.000000  ( 0.000120  0.000005  0.000003)
 76:   3176.25   0.002164   10.94  0.000213  ( 0.014581 -0.000005  0.000001)
 77:   3178.15   0.010105   51.07  0.000992  (-0.000002 -0.031500 -0.000007)
 78:   3178.32   0.000219    1.11  0.000022  ( 0.000002  0.000015 -0.004640)
 79:   3274.85   0.000107    0.54  0.000010  (-0.000000  0.003194  0.000000)
 80:   3296.99   0.000083    0.42  0.000008  (-0.000000 -0.000000  0.002797)

* The epsilon (eps) is given for a Dirac delta lineshape.
** The dipole moment derivative (T) already includes vibrational overlap.

The first frequency considered to be a vibration is 6
The total number of vibrations considered is 75


--------------------------
THERMOCHEMISTRY AT 298.15K
--------------------------

Temperature         ... 298.15 K
Pressure            ... 1.00 atm
Total Mass          ... 152.24 AMU

Throughout the following assumptions are being made:
  (1) The electronic state is orbitally nondegenerate
  (2) There are no thermally accessible electronically excited states
  (3) Hindered rotations indicated by low frequency modes are not
      treated as such but are treated as vibrations and this may
      cause some error
  (4) All equations used are the standard statistical mechanics
      equations for an ideal gas
  (5) All vibrations are strictly harmonic

freq.      16.76  E(vib)   ...       0.57 
freq.      36.30  E(vib)   ...       0.54 
freq.     116.27  E(vib)   ...       0.44 
freq.     152.35  E(vib)   ...       0.40 
freq.     161.51  E(vib)   ...       0.39 
freq.     233.36  E(vib)   ...       0.32 
freq.     233.81  E(vib)   ...       0.32 
freq.     253.28  E(vib)   ...       0.30 
freq.     265.81  E(vib)   ...       0.29 
freq.     272.21  E(vib)   ...       0.29 
freq.     302.03  E(vib)   ...       0.26 
freq.     354.77  E(vib)   ...       0.22 
freq.     403.60  E(vib)   ...       0.19 
freq.     445.63  E(vib)   ...       0.17 
freq.     459.76  E(vib)   ...       0.16 
freq.     572.86  E(vib)   ...       0.11 
freq.     635.15  E(vib)   ...       0.09 
freq.     665.64  E(vib)   ...       0.08 
freq.     681.43  E(vib)   ...       0.08 
freq.     690.94  E(vib)   ...       0.07 
freq.     738.93  E(vib)   ...       0.06 
freq.     866.42  E(vib)   ...       0.04 
freq.     908.90  E(vib)   ...       0.03 
freq.     912.81  E(vib)   ...       0.03 
freq.     936.28  E(vib)   ...       0.03 
freq.     936.38  E(vib)   ...       0.03 
freq.     957.60  E(vib)   ...       0.03 
freq.     957.76  E(vib)   ...       0.03 
freq.    1021.56  E(vib)   ...       0.02 
freq.    1026.22  E(vib)   ...       0.02 
freq.    1074.06  E(vib)   ...       0.02 
freq.    1094.17  E(vib)   ...       0.02 
freq.    1110.03  E(vib)   ...       0.02 
freq.    1173.76  E(vib)   ...       0.01 
freq.    1173.80  E(vib)   ...       0.01 
freq.    1191.64  E(vib)   ...       0.01 
freq.    1196.23  E(vib)   ...       0.01 
freq.    1250.24  E(vib)   ...       0.01 
freq.    1318.07  E(vib)   ...       0.01 
freq.    1325.23  E(vib)   ...       0.01 
freq.    1354.62  E(vib)   ...       0.01 
freq.    1355.01  E(vib)   ...       0.01 
freq.    1402.08  E(vib)   ...       0.00 
freq.    1406.25  E(vib)   ...       0.00 
freq.    1406.88  E(vib)   ...       0.00 
freq.    1407.05  E(vib)   ...       0.00 
freq.    1411.18  E(vib)   ...       0.00 
freq.    1424.73  E(vib)   ...       0.00 
freq.    1446.63  E(vib)   ...       0.00 
freq.    1460.56  E(vib)   ...       0.00 
freq.    1461.04  E(vib)   ...       0.00 
freq.    1465.97  E(vib)   ...       0.00 
freq.    1465.97  E(vib)   ...       0.00 
freq.    1473.48  E(vib)   ...       0.00 
freq.    1476.37  E(vib)   ...       0.00 
freq.    1479.19  E(vib)   ...       0.00 
freq.    1490.24  E(vib)   ...       0.00 
freq.    1494.50  E(vib)   ...       0.00 
freq.    1655.55  E(vib)   ...       0.00 
freq.    3063.22  E(vib)   ...       0.00 
freq.    3063.26  E(vib)   ...       0.00 
freq.    3065.71  E(vib)   ...       0.00 
freq.    3065.92  E(vib)   ...       0.00 
freq.    3130.51  E(vib)   ...       0.00 
freq.    3130.76  E(vib)   ...       0.00 
freq.    3161.04  E(vib)   ...       0.00 
freq.    3161.04  E(vib)   ...       0.00 
freq.    3166.96  E(vib)   ...       0.00 
freq.    3167.20  E(vib)   ...       0.00 
freq.    3176.18  E(vib)   ...       0.00 
freq.    3176.25  E(vib)   ...       0.00 
freq.    3178.15  E(vib)   ...       0.00 
freq.    3178.32  E(vib)   ...       0.00 
freq.    3274.85  E(vib)   ...       0.00 
freq.    3296.99  E(vib)   ...       0.00 

------------
INNER ENERGY
------------

The inner energy is: U= E(el) + E(ZPE) + E(vib) + E(rot) + E(trans)
    E(el)   - is the total energy from the electronic structure calculation
              = E(kin-el) + E(nuc-el) + E(el-el) + E(nuc-nuc)
    E(ZPE)  - the the zero temperature vibrational energy from the frequency calculation
    E(vib)  - the the finite temperature correction to E(ZPE) due to population
              of excited vibrational states
    E(rot)  - is the rotational thermal energy
    E(trans)- is the translational thermal energy

Summary of contributions to the inner energy U:
Electronic energy                ...   -461.61978306 Eh
Zero point energy                ...      0.24175286 Eh     151.70 kcal/mol
Thermal vibrational correction   ...      0.00925649 Eh       5.81 kcal/mol
Thermal rotational correction    ...      0.00141627 Eh       0.89 kcal/mol
Thermal translational correction ...      0.00141627 Eh       0.89 kcal/mol
-----------------------------------------------------------------------
Total thermal energy                   -461.36594117 Eh


Summary of corrections to the electronic energy:
(perhaps to be used in another calculation)
Total thermal correction                  0.01208903 Eh       7.59 kcal/mol
Non-thermal (ZPE) correction              0.24175286 Eh     151.70 kcal/mol
-----------------------------------------------------------------------
Total correction                          0.25384189 Eh     159.29 kcal/mol


--------
ENTHALPY
--------

The enthalpy is H = U + kB*T
                kB is Boltzmann's constant
Total free energy                 ...   -461.36594117 Eh 
Thermal Enthalpy correction       ...      0.00094421 Eh       0.59 kcal/mol
-----------------------------------------------------------------------
Total Enthalpy                    ...   -461.36499696 Eh


Note: Rotational entropy computed according to Herzberg 
Infrared and Raman Spectra, Chapter V,1, Van Nostrand Reinhold, 1945 
Point Group:  C2v, Symmetry Number:   2  
Rotational constants in cm-1:     0.091078     0.018628     0.017944 

Vibrational entropy computed according to the QRRHO of S. Grimme
Chem.Eur.J. 2012 18 9955


-------
ENTROPY
-------

The entropy contributions are T*S = T*(S(el)+S(vib)+S(rot)+S(trans))
     S(el)   - electronic entropy
     S(vib)  - vibrational entropy
     S(rot)  - rotational entropy
     S(trans)- translational entropy
The entropies will be listed as multiplied by the temperature to get
units of energy

Electronic entropy                ...      0.00000000 Eh      0.00 kcal/mol
Vibrational entropy               ...      0.01630976 Eh     10.23 kcal/mol
Rotational entropy                ...      0.01376592 Eh      8.64 kcal/mol
Translational entropy             ...      0.01946649 Eh     12.22 kcal/mol
-----------------------------------------------------------------------
Final entropy term                ...      0.04954217 Eh     31.09 kcal/mol

In case the symmetry of your molecule has not been determined correctly
or in case you have a reason to use a different symmetry number we print 
out the resulting rotational entropy values for sn=1,12 :
 --------------------------------------------------------
|  sn= 1 | S(rot)=       0.01442038 Eh      9.05 kcal/mol|
|  sn= 2 | S(rot)=       0.01376592 Eh      8.64 kcal/mol|
|  sn= 3 | S(rot)=       0.01338309 Eh      8.40 kcal/mol|
|  sn= 4 | S(rot)=       0.01311146 Eh      8.23 kcal/mol|
|  sn= 5 | S(rot)=       0.01290078 Eh      8.10 kcal/mol|
|  sn= 6 | S(rot)=       0.01272863 Eh      7.99 kcal/mol|
|  sn= 7 | S(rot)=       0.01258308 Eh      7.90 kcal/mol|
|  sn= 8 | S(rot)=       0.01245701 Eh      7.82 kcal/mol|
|  sn= 9 | S(rot)=       0.01234580 Eh      7.75 kcal/mol|
|  sn=10 | S(rot)=       0.01224632 Eh      7.68 kcal/mol|
|  sn=11 | S(rot)=       0.01215633 Eh      7.63 kcal/mol|
|  sn=12 | S(rot)=       0.01207417 Eh      7.58 kcal/mol|
 --------------------------------------------------------


-------------------
GIBBS FREE ENERGY
-------------------

The Gibbs free energy is G = H - T*S

Total enthalpy                    ...   -461.36499696 Eh 
Total entropy correction          ...     -0.04954217 Eh    -31.09 kcal/mol
-----------------------------------------------------------------------
Final Gibbs free energy         ...   -461.41453913 Eh

For completeness - the Gibbs free energy minus the electronic energy
G-E(el)                           ...      0.20524393 Eh    128.79 kcal/mol


Timings for individual modules:

Sum of individual times         ...     1708.398 sec (=  28.473 min)
GTO integral calculation        ...        0.354 sec (=   0.006 min)   0.0 %
SCF iterations                  ...      370.497 sec (=   6.175 min)  21.7 %
Analytical frequency calculation...     1337.547 sec (=  22.292 min)  78.3 %
                             ****ORCA TERMINATED NORMALLY****
TOTAL RUN TIME: 0 days 0 hours 28 minutes 28 seconds 755 msec
