
                                 *****************
                                 * O   R   C   A *
                                 *****************

                                            #,                                       
                                            ###                                      
                                            ####                                     
                                            #####                                    
                                            ######                                   
                                           ########,                                 
                                     ,,################,,,,,                         
                               ,,#################################,,                 
                          ,,##########################################,,             
                       ,#########################################, ''#####,          
                    ,#############################################,,   '####,        
                  ,##################################################,,,,####,       
                ,###########''''           ''''###############################       
              ,#####''   ,,,,##########,,,,          '''####'''          '####       
            ,##' ,,,,###########################,,,                        '##       
           ' ,,###''''                  '''############,,,                           
         ,,##''                                '''############,,,,        ,,,,,,###''
      ,#''                                            '''#######################'''  
     '                                                          ''''####''''         
             ,#######,   #######,   ,#######,      ##                                
            ,#'     '#,  ##    ##  ,#'     '#,    #''#        ######   ,####,        
            ##       ##  ##   ,#'  ##            #'  '#       #        #'  '#        
            ##       ##  #######   ##           ,######,      #####,   #    #        
            '#,     ,#'  ##    ##  '#,     ,#' ,#      #,         ##   #,  ,#        
             '#######'   ##     ##  '#######'  #'      '#     #####' # '####'        



                  #######################################################
                  #                        -***-                        #
                  #          Department of theory and spectroscopy      #
                  #    Directorship and core code : Frank Neese         #
                  #        Max Planck Institute fuer Kohlenforschung    #
                  #                Kaiser Wilhelm Platz 1               #
                  #                 D-45470 Muelheim/Ruhr               #
                  #                      Germany                        #
                  #                                                     #
                  #                  All rights reserved                #
                  #                        -***-                        #
                  #######################################################


                         Program Version 5.0.4 -  RELEASE  -


 With contributions from (in alphabetic order):
   Daniel Aravena         : Magnetic Suceptibility
   Michael Atanasov       : Ab Initio Ligand Field Theory (pilot matlab implementation)
   Alexander A. Auer      : GIAO ZORA, VPT2 properties, NMR spectrum
   Ute Becker             : Parallelization
   Giovanni Bistoni       : ED, misc. LED, open-shell LED, HFLD
   Martin Brehm           : Molecular dynamics
   Dmytro Bykov           : SCF Hessian
   Vijay G. Chilkuri      : MRCI spin determinant printing, contributions to CSF-ICE
   Dipayan Datta          : RHF DLPNO-CCSD density
   Achintya Kumar Dutta   : EOM-CC, STEOM-CC
   Dmitry Ganyushin       : Spin-Orbit,Spin-Spin,Magnetic field MRCI
   Miquel Garcia          : C-PCM and meta-GGA Hessian, CC/C-PCM, Gaussian charge scheme
   Yang Guo               : DLPNO-NEVPT2, F12-NEVPT2, CIM, IAO-localization
   Andreas Hansen         : Spin unrestricted coupled pair/coupled cluster methods
   Benjamin Helmich-Paris : MC-RPA, TRAH-SCF, COSX integrals
   Lee Huntington         : MR-EOM, pCC
   Robert Izsak           : Overlap fitted RIJCOSX, COSX-SCS-MP3, EOM
   Marcus Kettner         : VPT2
   Christian Kollmar      : KDIIS, OOCD, Brueckner-CCSD(T), CCSD density, CASPT2, CASPT2-K
   Simone Kossmann        : Meta GGA functionals, TD-DFT gradient, OOMP2, MP2 Hessian
   Martin Krupicka        : Initial AUTO-CI
   Lucas Lang             : DCDCAS
   Marvin Lechner         : AUTO-CI (C++ implementation), FIC-MRCC
   Dagmar Lenk            : GEPOL surface, SMD
   Dimitrios Liakos       : Extrapolation schemes; Compound Job, initial MDCI parallelization
   Dimitrios Manganas     : Further ROCIS development; embedding schemes
   Dimitrios Pantazis     : SARC Basis sets
   Anastasios Papadopoulos: AUTO-CI, single reference methods and gradients
   Taras Petrenko         : DFT Hessian,TD-DFT gradient, ASA, ECA, R-Raman, ABS, FL, XAS/XES, NRVS
   Peter Pinski           : DLPNO-MP2, DLPNO-MP2 Gradient
   Christoph Reimann      : Effective Core Potentials
   Marius Retegan         : Local ZFS, SOC
   Christoph Riplinger    : Optimizer, TS searches, QM/MM, DLPNO-CCSD(T), (RO)-DLPNO pert. Triples
   Tobias Risthaus        : Range-separated hybrids, TD-DFT gradient, RPA, STAB
   Michael Roemelt        : Original ROCIS implementation
   Masaaki Saitow         : Open-shell DLPNO-CCSD energy and density
   Barbara Sandhoefer     : DKH picture change effects
   Avijit Sen             : IP-ROCIS
   Kantharuban Sivalingam : CASSCF convergence, NEVPT2, FIC-MRCI
   Bernardo de Souza      : ESD, SOC TD-DFT
   Georgi Stoychev        : AutoAux, RI-MP2 NMR, DLPNO-MP2 response
   Willem Van den Heuvel  : Paramagnetic NMR
   Boris Wezisla          : Elementary symmetry handling
   Frank Wennmohs         : Technical directorship


 We gratefully acknowledge several colleagues who have allowed us to
 interface, adapt or use parts of their codes:
   Stefan Grimme, W. Hujo, H. Kruse, P. Pracht,  : VdW corrections, initial TS optimization,
                  C. Bannwarth, S. Ehlert          DFT functionals, gCP, sTDA/sTD-DF
   Ed Valeev, F. Pavosevic, A. Kumar             : LibInt (2-el integral package), F12 methods
   Garnet Chan, S. Sharma, J. Yang, R. Olivares  : DMRG
   Ulf Ekstrom                                   : XCFun DFT Library
   Mihaly Kallay                                 : mrcc  (arbitrary order and MRCC methods)
   Jiri Pittner, Ondrej Demel                    : Mk-CCSD
   Frank Weinhold                                : gennbo (NPA and NBO analysis)
   Christopher J. Cramer and Donald G. Truhlar   : smd solvation model
   Lars Goerigk                                  : TD-DFT with DH, B97 family of functionals
   V. Asgeirsson, H. Jonsson                     : NEB implementation
   FAccTs GmbH                                   : IRC, NEB, NEB-TS, DLPNO-Multilevel, CI-OPT
                                                   MM, QMMM, 2- and 3-layer-ONIOM, Crystal-QMMM,
                                                   LR-CPCM, SF, NACMEs, symmetry and pop. for TD-DFT,
                                                   nearIR, NL-DFT gradient (VV10), updates on ESD,
                                                   ML-optimized integration grids
   S Lehtola, MJT Oliveira, MAL Marques          : LibXC Library
   Liviu Ungur et al                             : ANISO software


 Your calculation uses the libint2 library for the computation of 2-el integrals
 For citations please refer to: http://libint.valeyev.net

 Your ORCA version has been built with support for libXC version: 5.1.0
 For citations please refer to: https://tddft.org/programs/libxc/

 This ORCA versions uses:
   CBLAS   interface :  Fast vector & matrix operations
   LAPACKE interface :  Fast linear algebra routines
   SCALAPACK package :  Parallel linear algebra routines
   Shared memory     :  Shared parallel matrices
   BLAS/LAPACK       :  OpenBLAS 0.3.15  USE64BITINT DYNAMIC_ARCH NO_AFFINITY SkylakeX SINGLE_THREADED
        Core in use  :  SkylakeX
   Copyright (c) 2011-2014, The OpenBLAS Project


Your calculation utilizes the atom-pairwise dispersion correction
based on tight binding partial charges (D4)
Cite in your paper:
E.Caldeweyher, C.Bannwarth, S.Grimme, J.Chem.Phys., (2017), 147, 034112.
E.Caldeweyher, S.Ehlert, A.Hansen, H.Neugebauer, S.Grimme, J.Chem.Phys., (2018), in progress.
   

XCFun DFT library Copyright 2009-2010 Ulf Ekstrom and contributors.
See http://admol.org/xcfun for more information.
This is free software; see the source code for copying conditions.
There is ABSOLUTELY NO WARRANTY; not even for MERCHANTABILITY or FITNESS FOR A PARTICULAR PURPOSE.
For details see the documentation.
Scientific users of this library should cite U. Ekstrom, L. Visscher, R. Bast, A. J. Thorvaldsen and K. Ruud;
J.Chem.Theor.Comp. 2010, DOI: 10.1021/ct100117s
XCFun Version 0.99 

================================================================================

----- Orbital basis set information -----
Your calculation utilizes the basis: def2-SVP
   F. Weigend and R. Ahlrichs, Phys. Chem. Chem. Phys. 7, 3297 (2005).

----- AuxJ basis set information -----
Your calculation utilizes the auxiliary basis: def2/J
   F. Weigend, Phys. Chem. Chem. Phys. 8, 1057 (2006).

================================================================================
                                        WARNINGS
                       Please study these warnings very carefully!
================================================================================


INFO   : the flag for use of the SHARK integral package has been found!

================================================================================
                                       INPUT FILE
================================================================================
NAME = DFT_water_outs/6+-gasSP.inp
|  1> ! SP wB97X D4 def2-SVP def2/J defgrid2 
|  2> %maxcore 3000
|  3> %PAL NPROCS 4 END
|  4> * xyz 1 1
|  5> C 0.0 0.6854 -1.3121
|  6> C -0.0 -0.6854 -1.3121
|  7> C 0.0 -0.0 0.7885
|  8> N 0.0 1.0827 0.0167
|  9> N 0.0 -1.0827 0.0167
| 10> H 0.0 -0.0 1.879
| 11> C 0.0 1.6515 -2.4469
| 12> C -0.0 -1.6515 -2.4469
| 13> H -0.8923 2.2957 -2.4249
| 14> H -0.8923 -2.2957 -2.4249
| 15> H 0.8923 -2.2957 -2.4249
| 16> H 0.8923 2.2957 -2.4249
| 17> H -0.0 1.1042 -3.3979
| 18> H -0.0 -1.1042 -3.398
| 19> C -1.2728 2.7509 1.3049
| 20> C -1.2728 -2.7509 1.3049
| 21> C 1.2728 -2.7509 1.3049
| 22> C 1.2728 2.7509 1.3049
| 23> C 0.0 2.4737 0.5168
| 24> C 0.0 -2.4737 0.5168
| 25> H -2.1658 2.5355 0.6997
| 26> H -2.1658 -2.5355 0.6997
| 27> H 2.1658 -2.5355 0.6997
| 28> H 2.1658 2.5355 0.6997
| 29> H -1.311 2.1431 2.2229
| 30> H -1.311 -2.1431 2.2229
| 31> H 1.311 -2.1431 2.2229
| 32> H 1.311 2.1431 2.2229
| 33> H -1.2974 3.8105 1.5974
| 34> H -1.2974 -3.8105 1.5974
| 35> H 1.2974 -3.8105 1.5974
| 36> H 1.2974 3.8105 1.5974
| 37> H 0.0 3.0978 -0.387
| 38> H 0.0 -3.0978 -0.387
| 39> **                         ****END OF INPUT****
================================================================================

                       ****************************
                       * Single Point Calculation *
                       ****************************

---------------------------------
CARTESIAN COORDINATES (ANGSTROEM)
---------------------------------
  C      0.000000    0.685400   -1.312100
  C     -0.000000   -0.685400   -1.312100
  C      0.000000   -0.000000    0.788500
  N      0.000000    1.082700    0.016700
  N      0.000000   -1.082700    0.016700
  H      0.000000   -0.000000    1.879000
  C      0.000000    1.651500   -2.446900
  C     -0.000000   -1.651500   -2.446900
  H     -0.892300    2.295700   -2.424900
  H     -0.892300   -2.295700   -2.424900
  H      0.892300   -2.295700   -2.424900
  H      0.892300    2.295700   -2.424900
  H     -0.000000    1.104200   -3.397900
  H     -0.000000   -1.104200   -3.398000
  C     -1.272800    2.750900    1.304900
  C     -1.272800   -2.750900    1.304900
  C      1.272800   -2.750900    1.304900
  C      1.272800    2.750900    1.304900
  C      0.000000    2.473700    0.516800
  C      0.000000   -2.473700    0.516800
  H     -2.165800    2.535500    0.699700
  H     -2.165800   -2.535500    0.699700
  H      2.165800   -2.535500    0.699700
  H      2.165800    2.535500    0.699700
  H     -1.311000    2.143100    2.222900
  H     -1.311000   -2.143100    2.222900
  H      1.311000   -2.143100    2.222900
  H      1.311000    2.143100    2.222900
  H     -1.297400    3.810500    1.597400
  H     -1.297400   -3.810500    1.597400
  H      1.297400   -3.810500    1.597400
  H      1.297400    3.810500    1.597400
  H      0.000000    3.097800   -0.387000
  H      0.000000   -3.097800   -0.387000

----------------------------
CARTESIAN COORDINATES (A.U.)
----------------------------
  NO LB      ZA    FRAG     MASS         X           Y           Z
   0 C     6.0000    0    12.011    0.000000    1.295218   -2.479510
   1 C     6.0000    0    12.011   -0.000000   -1.295218   -2.479510
   2 C     6.0000    0    12.011    0.000000   -0.000000    1.490049
   3 N     7.0000    0    14.007    0.000000    2.046006    0.031558
   4 N     7.0000    0    14.007    0.000000   -2.046006    0.031558
   5 H     1.0000    0     1.008    0.000000   -0.000000    3.550795
   6 C     6.0000    0    12.011    0.000000    3.120883   -4.623971
   7 C     6.0000    0    12.011   -0.000000   -3.120883   -4.623971
   8 H     1.0000    0     1.008   -1.686203    4.338244   -4.582397
   9 H     1.0000    0     1.008   -1.686203   -4.338244   -4.582397
  10 H     1.0000    0     1.008    1.686203   -4.338244   -4.582397
  11 H     1.0000    0     1.008    1.686203    4.338244   -4.582397
  12 H     1.0000    0     1.008   -0.000000    2.086636   -6.421100
  13 H     1.0000    0     1.008   -0.000000   -2.086636   -6.421289
  14 C     6.0000    0    12.011   -2.405243    5.198448    2.465904
  15 C     6.0000    0    12.011   -2.405243   -5.198448    2.465904
  16 C     6.0000    0    12.011    2.405243   -5.198448    2.465904
  17 C     6.0000    0    12.011    2.405243    5.198448    2.465904
  18 C     6.0000    0    12.011    0.000000    4.674616    0.976610
  19 C     6.0000    0    12.011    0.000000   -4.674616    0.976610
  20 H     1.0000    0     1.008   -4.092769    4.791401    1.322241
  21 H     1.0000    0     1.008   -4.092769   -4.791401    1.322241
  22 H     1.0000    0     1.008    4.092769   -4.791401    1.322241
  23 H     1.0000    0     1.008    4.092769    4.791401    1.322241
  24 H     1.0000    0     1.008   -2.477431    4.049872    4.200672
  25 H     1.0000    0     1.008   -2.477431   -4.049872    4.200672
  26 H     1.0000    0     1.008    2.477431   -4.049872    4.200672
  27 H     1.0000    0     1.008    2.477431    4.049872    4.200672
  28 H     1.0000    0     1.008   -2.451731    7.200801    3.018649
  29 H     1.0000    0     1.008   -2.451731   -7.200801    3.018649
  30 H     1.0000    0     1.008    2.451731   -7.200801    3.018649
  31 H     1.0000    0     1.008    2.451731    7.200801    3.018649
  32 H     1.0000    0     1.008    0.000000    5.853994   -0.731324
  33 H     1.0000    0     1.008    0.000000   -5.853994   -0.731324

--------------------------------
INTERNAL COORDINATES (ANGSTROEM)
--------------------------------
 C      0   0   0     0.000000000000     0.00000000     0.00000000
 C      1   0   0     1.370800000000     0.00000000     0.00000000
 C      1   2   0     2.209591256319    71.92913098     0.00000000
 N      3   1   2     1.329629470943    36.44605445   180.00000000
 N      3   1   2     1.329629470943    72.58779250     0.00000000
 H      3   1   2     1.090500000000   161.92913098   180.00000000
 C      1   2   3     1.490342326447   130.40906123   180.00000000
 C      2   1   3     1.490342326447   130.40906123   180.00000000
 H      7   1   2     1.100761976996   111.35541342   119.49704150
 H      8   2   1     1.100761976996   111.35541342   240.50295850
 H      8   2   1     1.100761976996   111.35541342   119.49704150
 H      7   1   2     1.100761976996   111.35541342   240.50295850
 H      7   1   2     1.097241217782   109.67053456     0.00000000
 H      8   2   1     1.097327890833   109.67313897     0.00000000
 C      4   3   1     2.462188116290   104.35965476   147.75033448
 C      5   3   1     2.462188116290   104.35965476   212.24966552
 C      5   3   1     2.462188116290   104.35965476   147.75033448
 C      4   3   1     2.462188116290   104.35965476   212.24966552
 C      4   3   1     1.478168126432   124.74211736   180.00000000
 C      5   3   1     1.478168126432   124.74211736   180.00000000
 H     15   4   3     1.100051453342    89.95053141   260.48661497
 H     16   5   3     1.100051453342    89.95053141    99.51338503
 H     17   5   3     1.100051453342    89.95053141   260.48661497
 H     18   4   3     1.100051453342    89.95053141    99.51338503
 H     15   4   3     1.101637000105    94.59410934     9.34534393
 H     16   5   3     1.101637000105    94.59410934   350.65465607
 H     17   5   3     1.101637000105    94.59410934     9.34534393
 H     18   4   3     1.101637000105    94.59410934   350.65465607
 H     15   4   3     1.099506057282   143.48364466   138.38738201
 H     16   5   3     1.099506057282   143.48364466   221.61261799
 H     17   5   3     1.099506057282   143.48364466   138.38738201
 H     18   4   3     1.099506057282   143.48364466   221.61261799
 H     19   4   3     1.098342045995   104.85139311   180.00000000
 H     20   5   3     1.098342045995   104.85139311   180.00000000

---------------------------
INTERNAL COORDINATES (A.U.)
---------------------------
 C      0   0   0     0.000000000000     0.00000000     0.00000000
 C      1   0   0     2.590436584379     0.00000000     0.00000000
 C      1   2   0     4.175522342349    71.92913098     0.00000000
 N      3   1   2     2.512635559673    36.44605445   180.00000000
 N      3   1   2     2.512635559673    72.58779250     0.00000000
 H      3   1   2     2.060746349041   161.92913098   180.00000000
 C      1   2   3     2.816338842776   130.40906123   180.00000000
 C      2   1   3     2.816338842776   130.40906123   180.00000000
 H      7   1   2     2.080138675156   111.35541342   119.49704150
 H      8   2   1     2.080138675156   111.35541342   240.50295850
 H      8   2   1     2.080138675156   111.35541342   119.49704150
 H      7   1   2     2.080138675156   111.35541342   240.50295850
 H      7   1   2     2.073485404458   109.67053456     0.00000000
 H      8   2   1     2.073649192788   109.67313897     0.00000000
 C      4   3   1     4.652861229984   104.35965476   147.75033448
 C      5   3   1     4.652861229984   104.35965476   212.24966552
 C      5   3   1     4.652861229984   104.35965476   147.75033448
 C      4   3   1     4.652861229984   104.35965476   212.24966552
 C      4   3   1     2.793332938848   124.74211736   180.00000000
 C      5   3   1     2.793332938848   124.74211736   180.00000000
 H     15   4   3     2.078795980039    89.95053141   260.48661497
 H     16   5   3     2.078795980039    89.95053141    99.51338503
 H     17   5   3     2.078795980039    89.95053141   260.48661497
 H     18   4   3     2.078795980039    89.95053141    99.51338503
 H     15   4   3     2.081792229193    94.59410934     9.34534393
 H     16   5   3     2.081792229193    94.59410934   350.65465607
 H     17   5   3     2.081792229193    94.59410934     9.34534393
 H     18   4   3     2.081792229193    94.59410934   350.65465607
 H     15   4   3     2.077765330851   143.48364466   138.38738201
 H     16   5   3     2.077765330851   143.48364466   221.61261799
 H     17   5   3     2.077765330851   143.48364466   138.38738201
 H     18   4   3     2.077765330851   143.48364466   221.61261799
 H     19   4   3     2.075565668301   104.85139311   180.00000000
 H     20   5   3     2.075565668301   104.85139311   180.00000000

---------------------
BASIS SET INFORMATION
---------------------
There are 3 groups of distinct atoms

 Group   1 Type C   : 7s4p1d contracted to 3s2p1d pattern {511/31/1}
 Group   2 Type N   : 7s4p1d contracted to 3s2p1d pattern {511/31/1}
 Group   3 Type H   : 4s1p contracted to 2s1p pattern {31/1}

Atom   0C    basis set group =>   1
Atom   1C    basis set group =>   1
Atom   2C    basis set group =>   1
Atom   3N    basis set group =>   2
Atom   4N    basis set group =>   2
Atom   5H    basis set group =>   3
Atom   6C    basis set group =>   1
Atom   7C    basis set group =>   1
Atom   8H    basis set group =>   3
Atom   9H    basis set group =>   3
Atom  10H    basis set group =>   3
Atom  11H    basis set group =>   3
Atom  12H    basis set group =>   3
Atom  13H    basis set group =>   3
Atom  14C    basis set group =>   1
Atom  15C    basis set group =>   1
Atom  16C    basis set group =>   1
Atom  17C    basis set group =>   1
Atom  18C    basis set group =>   1
Atom  19C    basis set group =>   1
Atom  20H    basis set group =>   3
Atom  21H    basis set group =>   3
Atom  22H    basis set group =>   3
Atom  23H    basis set group =>   3
Atom  24H    basis set group =>   3
Atom  25H    basis set group =>   3
Atom  26H    basis set group =>   3
Atom  27H    basis set group =>   3
Atom  28H    basis set group =>   3
Atom  29H    basis set group =>   3
Atom  30H    basis set group =>   3
Atom  31H    basis set group =>   3
Atom  32H    basis set group =>   3
Atom  33H    basis set group =>   3
---------------------------------
AUXILIARY/J BASIS SET INFORMATION
---------------------------------
There are 3 groups of distinct atoms

 Group   1 Type C   : 12s5p4d2f1g contracted to 6s4p3d1f1g pattern {711111/2111/211/2/1}
 Group   2 Type N   : 12s5p4d2f1g contracted to 6s4p3d1f1g pattern {711111/2111/211/2/1}
 Group   3 Type H   : 5s2p1d contracted to 3s1p1d pattern {311/2/1}

Atom   0C    basis set group =>   1
Atom   1C    basis set group =>   1
Atom   2C    basis set group =>   1
Atom   3N    basis set group =>   2
Atom   4N    basis set group =>   2
Atom   5H    basis set group =>   3
Atom   6C    basis set group =>   1
Atom   7C    basis set group =>   1
Atom   8H    basis set group =>   3
Atom   9H    basis set group =>   3
Atom  10H    basis set group =>   3
Atom  11H    basis set group =>   3
Atom  12H    basis set group =>   3
Atom  13H    basis set group =>   3
Atom  14C    basis set group =>   1
Atom  15C    basis set group =>   1
Atom  16C    basis set group =>   1
Atom  17C    basis set group =>   1
Atom  18C    basis set group =>   1
Atom  19C    basis set group =>   1
Atom  20H    basis set group =>   3
Atom  21H    basis set group =>   3
Atom  22H    basis set group =>   3
Atom  23H    basis set group =>   3
Atom  24H    basis set group =>   3
Atom  25H    basis set group =>   3
Atom  26H    basis set group =>   3
Atom  27H    basis set group =>   3
Atom  28H    basis set group =>   3
Atom  29H    basis set group =>   3
Atom  30H    basis set group =>   3
Atom  31H    basis set group =>   3
Atom  32H    basis set group =>   3
Atom  33H    basis set group =>   3


           ************************************************************
           *        Program running with 4 parallel MPI-processes     *
           *              working on a common directory               *
           ************************************************************
------------------------------------------------------------------------------
                           ORCA GTO INTEGRAL CALCULATION
                           -- RI-GTO INTEGRALS CHOSEN --
------------------------------------------------------------------------------
------------------------------------------------------------------------------
                   ___                                                        
                  /   \      - P O W E R E D   B Y -                         
                 /     \                                                     
                 |  |  |   _    _      __       _____    __    __             
                 |  |  |  | |  | |    /  \     |  _  \  |  |  /  |          
                  \  \/   | |  | |   /    \    | | | |  |  | /  /          
                 / \  \   | |__| |  /  /\  \   | |_| |  |  |/  /          
                |  |  |   |  __  | /  /__\  \  |    /   |      \           
                |  |  |   | |  | | |   __   |  |    \   |  |\   \          
                \     /   | |  | | |  |  |  |  | |\  \  |  | \   \       
                 \___/    |_|  |_| |__|  |__|  |_| \__\ |__|  \__/        
                                                                              
                      - O R C A' S   B I G   F R I E N D -                    
                                      &                                       
                       - I N T E G R A L  F E E D E R -                       
                                                                              
 v1 FN, 2020, v2 2021                                                         
------------------------------------------------------------------------------


Reading SHARK input file DFT_water_outs/6+-gasSP.SHARKINP.tmp ... ok
----------------------
SHARK INTEGRAL PACKAGE
----------------------

Number of atoms                             ...     34
Number of basis functions                   ...    287
Number of shells                            ...    141
Maximum angular momentum                    ...      2
Integral batch strategy                     ... SHARK/LIBINT Hybrid
RI-J (if used) integral strategy            ... SPLIT-RIJ (Revised 2003 algorithm where possible)
Printlevel                                  ...      1
Contraction scheme used                     ... SEGMENTED contraction
Coulomb Range Separation                    ... NOT USED
Exchange Range Separation                   ... Long Range
   Mu parameter                             ...  0.300000
   Scaling (regular/separated)              ...  0.157706  0.842294
Finite Nucleus Model                        ... NOT USED
Auxiliary Coulomb fitting basis             ... AVAILABLE
   # of basis functions in Aux-J            ...    868
   # of shells in Aux-J                     ...    300
   Maximum angular momentum in Aux-J        ...      4
Auxiliary J/K fitting basis                 ... NOT available
Auxiliary Correlation fitting basis         ... NOT available
Auxiliary 'external' fitting basis          ... NOT available
Integral threshold                          ...     1.000000e-10
Primitive cut-off                           ...     1.000000e-11
Primitive pair pre-selection threshold      ...     1.000000e-11

Calculating pre-screening integrals         ... done (  0.0 sec) Dimension = 141
Organizing shell pair data                  ... done (  0.2 sec)
Shell pair information
Total number of shell pairs                 ...     10011
Shell pairs after pre-screening             ...      8539
Total number of primitive shell pairs       ...     34423
Primitive shell pairs kept                  ...     20217
          la=0 lb=0:   2943 shell pairs
          la=1 lb=0:   3241 shell pairs
          la=1 lb=1:    911 shell pairs
          la=2 lb=0:    879 shell pairs
          la=2 lb=1:    489 shell pairs
          la=2 lb=2:     76 shell pairs

Calculating one electron integrals          ... done (  0.0 sec)
Calculating RI/J V-Matrix + Cholesky decomp.... done (  0.0 sec)
Calculating Nuclear repulsion               ... done (  0.0 sec) ENN=    870.932302792544 Eh

SHARK setup successfully completed in   0.5 seconds

Maximum memory used throughout the entire GTOINT-calculation: 16.6 MB


           ************************************************************
           *        Program running with 4 parallel MPI-processes     *
           *              working on a common directory               *
           ************************************************************
-------------------------------------------------------------------------------
                                 ORCA SCF
-------------------------------------------------------------------------------

------------
SCF SETTINGS
------------
Hamiltonian:
 Density Functional     Method          .... DFT(GTOs)
 Exchange Functional    Exchange        .... WB97X
 Correlation Functional Correlation     .... WB97X
 Gradients option       PostSCFGGA      .... off
 Hybrid DFT is turned on
   Fraction HF Exchange ScalHFX         ....  0.157706
   Scaling of DF-GGA-X  ScalDFX         ....  0.000000
   Scaling of DF-GGA-C  ScalDFC         ....  1.000000
   Scaling of DF-LDA-C  ScalLDAC        ....  1.000000
   Perturbative correction              ....  0.000000
   Density functional embedding theory  .... OFF
 Long-range corrected/Screened/Range-Separated Hybrid DFT is turned on
   Amount of maximum screened exact exchange              ....  0.842294
   Range separation parameter mu (erf(mu*r12)/r12)        ....  0.300000
 RI-approximation to the Coulomb term is turned on
   Number of AuxJ basis functions       .... 868
   RIJ-COSX (HFX calculated with COS-X)).... on


General Settings:
 Integral files         IntName         .... DFT_water_outs/6+-gasSP
 Hartree-Fock type      HFTyp           .... RHF
 Total Charge           Charge          ....    1
 Multiplicity           Mult            ....    1
 Number of Electrons    NEL             ....  100
 Basis Dimension        Dim             ....  287
 Nuclear Repulsion      ENuc            ....    870.9323027925 Eh

Convergence Acceleration:
 DIIS                   CNVDIIS         .... on
   Start iteration      DIISMaxIt       ....    12
   Startup error        DIISStart       ....  0.200000
   # of expansion vecs  DIISMaxEq       ....     5
   Bias factor          DIISBfac        ....   1.050
   Max. coefficient     DIISMaxC        ....  10.000
 Trust-Rad. Augm. Hess. CNVTRAH         .... auto
   Auto Start mean grad. ratio tolernc. ....  1.125000
   Auto Start start iteration           ....    20
   Auto Start num. interpolation iter.  ....    10
   Max. Number of Micro iterations      ....    16
   Max. Number of Macro iterations      .... Maxiter - #DIIS iter
   Number of Davidson start vectors     ....     2
   Converg. threshold I  (grad. norm)   ....   5.000e-05
   Converg. threshold II (energy diff.) ....   1.000e-06
   Grad. Scal. Fac. for Micro threshold ....   0.100
   Minimum threshold for Micro iter.    ....   0.010
   NR start threshold (gradient norm)   ....   0.001
   Initial trust radius                 ....   0.400
   Minimum AH scaling param. (alpha)    ....   1.000
   Maximum AH scaling param. (alpha)    .... 1000.000
   Orbital update algorithm             .... Taylor
   White noise on init. David. guess    .... on
   Maximum white noise                  ....   0.010
   Quad. conv. algorithm                .... NR
 SOSCF                  CNVSOSCF        .... on
   Start iteration      SOSCFMaxIt      ....   150
   Startup grad/error   SOSCFStart      ....  0.003300
 Level Shifting         CNVShift        .... on
   Level shift para.    LevelShift      ....    0.2500
   Turn off err/grad.   ShiftErr        ....    0.0010
 Zerner damping         CNVZerner       .... off
 Static damping         CNVDamp         .... on
   Fraction old density DampFac         ....    0.7000
   Max. Damping (<1)    DampMax         ....    0.9800
   Min. Damping (>=0)   DampMin         ....    0.0000
   Turn off err/grad.   DampErr         ....    0.1000
 Fernandez-Rico         CNVRico         .... off

SCF Procedure:
 Maximum # iterations   MaxIter         ....   125
 SCF integral mode      SCFMode         .... Direct
   Integral package                     .... SHARK and LIBINT hybrid scheme
 Reset frequency        DirectResetFreq ....    20
 Integral Threshold     Thresh          ....  1.000e-10 Eh
 Primitive CutOff       TCut            ....  1.000e-11 Eh

Convergence Tolerance:
 Convergence Check Mode ConvCheckMode   .... Total+1el-Energy
 Convergence forced     ConvForced      .... 0
 Energy Change          TolE            ....  1.000e-06 Eh
 1-El. energy change                    ....  1.000e-03 Eh
 Orbital Gradient       TolG            ....  5.000e-05
 Orbital Rotation angle TolX            ....  5.000e-05
 DIIS Error             TolErr          ....  1.000e-06


Diagonalization of the overlap matrix:
Smallest eigenvalue                        ... 8.923e-04
Time for diagonalization                   ...    0.013 sec
Threshold for overlap eigenvalues          ... 1.000e-08
Number of eigenvalues below threshold      ... 0
Time for construction of square roots      ...    0.011 sec
Total time needed                          ...    0.025 sec

Time for model grid setup =    0.245 sec

------------------------------
INITIAL GUESS: MODEL POTENTIAL
------------------------------
Loading Hartree-Fock densities                     ... done
Calculating cut-offs                               ... done
Initializing the effective Hamiltonian             ... done
Setting up the integral package (SHARK)            ... done
Starting the Coulomb interaction                   ... done (   0.2 sec)
Reading the grid                                   ... done
Mapping shells                                     ... done
Starting the XC term evaluation                    ... done (   0.2 sec)
  promolecular density results
     # of electrons  =    100.981698995
     EX              =    -75.623373521
     EC              =     -3.342681132
     EX+EC           =    -78.966054652
Transforming the Hamiltonian                       ... done (   0.0 sec)
Diagonalizing the Hamiltonian                      ... done (   0.0 sec)
Back transforming the eigenvectors                 ... done (   0.0 sec)
Now organizing SCF variables                       ... done
                      ------------------
                      INITIAL GUESS DONE (   0.7 sec)
                      ------------------
-------------------
DFT GRID GENERATION
-------------------

General Integration Accuracy     IntAcc      ... 4.388
Radial Grid Type                 RadialGrid  ... OptM3 with GC (2021)
Angular Grid (max. ang.)         AngularGrid ... 4 (Lebedev-302)
Angular grid pruning method      GridPruning ... 4 (adaptive)
Weight generation scheme         WeightScheme... Becke
Basis function cutoff            BFCut       ... 1.0000e-10
Integration weight cutoff        WCut        ... 1.0000e-14
Angular grids for H and He will be reduced by one unit
Partially contracted basis set               ... off
Rotationally invariant grid construction     ... off

Total number of grid points                  ...   144329
Total number of batches                      ...     2270
Average number of points per batch           ...       63
Average number of grid points per atom       ...     4245
Time for grid setup =    1.094 sec

--------------------
COSX GRID GENERATION
--------------------

GRIDX 1
-------
General Integration Accuracy     IntAcc      ... 3.816
Radial Grid Type                 RadialGrid  ... OptM3 with GC (2021)
Angular Grid (max. ang.)         AngularGrid ... 1 (Lebedev-50)
Angular grid pruning method      GridPruning ... 4 (adaptive)
Weight generation scheme         WeightScheme... Becke
Basis function cutoff            BFCut       ... 1.0000e-10
Integration weight cutoff        WCut        ... 1.0000e-14
Angular grids for H and He will be reduced by one unit
Partially contracted basis set               ... on
Rotationally invariant grid construction     ... off

Total number of grid points                  ...    18460
Total number of batches                      ...      308
Average number of points per batch           ...       59
Average number of grid points per atom       ...      543
UseSFitting                                  ... on

GRIDX 2
-------
General Integration Accuracy     IntAcc      ... 4.020
Radial Grid Type                 RadialGrid  ... OptM3 with GC (2021)
Angular Grid (max. ang.)         AngularGrid ... 2 (Lebedev-110)
Angular grid pruning method      GridPruning ... 4 (adaptive)
Weight generation scheme         WeightScheme... Becke
Basis function cutoff            BFCut       ... 1.0000e-10
Integration weight cutoff        WCut        ... 1.0000e-14
Angular grids for H and He will be reduced by one unit
Partially contracted basis set               ... on
Rotationally invariant grid construction     ... off

Total number of grid points                  ...    38243
Total number of batches                      ...      616
Average number of points per batch           ...       62
Average number of grid points per atom       ...     1125
UseSFitting                                  ... on

GRIDX 3
-------
General Integration Accuracy     IntAcc      ... 4.338
Radial Grid Type                 RadialGrid  ... OptM3 with GC (2021)
Angular Grid (max. ang.)         AngularGrid ... 3 (Lebedev-194)
Angular grid pruning method      GridPruning ... 4 (adaptive)
Weight generation scheme         WeightScheme... Becke
Basis function cutoff            BFCut       ... 1.0000e-10
Integration weight cutoff        WCut        ... 1.0000e-14
Angular grids for H and He will be reduced by one unit
Partially contracted basis set               ... on
Rotationally invariant grid construction     ... off

Total number of grid points                  ...    83147
Total number of batches                      ...     1317
Average number of points per batch           ...       63
Average number of grid points per atom       ...     2446
UseSFitting                                  ... on

Time for X-Grid setup             =    1.369 sec

--------------
SCF ITERATIONS
--------------
ITER       Energy         Delta-E        Max-DP      RMS-DP      [F,P]     Damp
               ***  Starting incremental Fock matrix formation  ***
  0   -540.3539801874   0.000000000000 0.06555474  0.00128207  0.1469260 0.7000
  1   -540.4608884857  -0.106908298346 0.04467641  0.00094942  0.0892914 0.7000
                               ***Turning on DIIS***
  2   -540.5187791232  -0.057890637477 0.08051672  0.00198167  0.0469311 0.0000
  3   -540.6142315985  -0.095452475348 0.03142581  0.00054187  0.0322222 0.0000
  4   -540.6266733095  -0.012441710941 0.00415174  0.00010963  0.0040177 0.0000
                      *** Initiating the SOSCF procedure ***
                           *** Shutting down DIIS ***
                      *** Re-Reading the Fockian *** 
                      *** Removing any level shift *** 
ITER      Energy       Delta-E        Grad      Rot      Max-DP    RMS-DP
  5   -540.62694272  -0.0002694153  0.000490  0.000490  0.002114  0.000047
               *** Restarting incremental Fock matrix formation ***
  6   -540.62698317  -0.0000404468  0.000328  0.000810  0.001357  0.000027
  7   -540.62698669  -0.0000035226  0.000116  0.000184  0.000584  0.000013
  8   -540.62698753  -0.0000008369  0.000071  0.000124  0.000111  0.000003
  9   -540.62698764  -0.0000001073  0.000018  0.000023  0.000045  0.000001
                 **** Energy Check signals convergence ****
              ***Rediagonalizing the Fockian in SOSCF/NRSCF***

               *****************************************************
               *                     SUCCESS                       *
               *           SCF CONVERGED AFTER  10 CYCLES          *
               *****************************************************

Old exchange energy                            =    -25.350965600 Eh
New exchange energy                            =    -25.351025587 Eh
Exchange energy change after final integration =     -0.000059987 Eh
Total energy after final integration           =   -540.627047696 Eh
Final COS-X integration done in                =    21.884 sec

----------------
TOTAL SCF ENERGY
----------------

Total Energy       :         -540.62704770 Eh          -14711.20987 eV

Components:
Nuclear Repulsion  :          870.93230279 Eh           23699.27281 eV
Electronic Energy  :        -1411.55935049 Eh          -38410.48268 eV
One Electron Energy:        -2440.72475506 Eh          -66415.49708 eV
Two Electron Energy:         1029.16540457 Eh           28005.01441 eV
Max COSX asymmetry :            0.00000243 Eh               0.00007 eV

Virial components:
Potential Energy   :        -1074.54211439 Eh          -29239.77745 eV
Kinetic Energy     :          533.91506670 Eh           14528.56758 eV
Virial Ratio       :            2.01257125


DFT components:
N(Alpha)           :       50.000203463451 electrons
N(Beta)            :       50.000203463451 electrons
N(Total)           :      100.000406926901 electrons
E(XC)              :      -55.566658673270 Eh       
DFET-embed. en.    :        0.000000000000 Eh       

---------------
SCF CONVERGENCE
---------------

  Last Energy change         ...   -7.1551e-08  Tolerance :   1.0000e-06
  Last MAX-Density change    ...    5.7732e-15  Tolerance :   1.0000e-05
  Last RMS-Density change    ...    5.6687e-17  Tolerance :   1.0000e-06
  Last Orbital Gradient      ...    6.2229e-06  Tolerance :   5.0000e-05
  Last Orbital Rotation      ...    2.2863e-05  Tolerance :   5.0000e-05

             **** THE GBW FILE WAS UPDATED (DFT_water_outs/6+-gasSP.gbw) ****
             **** DENSITY DFT_water_outs/6+-gasSP.scfp WAS UPDATED ****
             **** ENERGY FILE WAS UPDATED (DFT_water_outs/6+-gasSP.en.tmp) ****
             **** THE GBW FILE WAS UPDATED (DFT_water_outs/6+-gasSP.gbw) ****
             **** DENSITY DFT_water_outs/6+-gasSP.scfp WAS UPDATED ****
----------------
ORBITAL ENERGIES
----------------

  NO   OCC          E(Eh)            E(eV) 
   0   2.0000     -14.638260      -398.3273 
   1   2.0000     -14.638243      -398.3268 
   2   2.0000     -10.515289      -286.1356 
   3   2.0000     -10.467708      -284.8408 
   4   2.0000     -10.467684      -284.8402 
   5   2.0000     -10.467382      -284.8319 
   6   2.0000     -10.466897      -284.8188 
   7   2.0000     -10.419540      -283.5301 
   8   2.0000     -10.419482      -283.5285 
   9   2.0000     -10.403414      -283.0913 
  10   2.0000     -10.403414      -283.0913 
  11   2.0000     -10.403412      -283.0912 
  12   2.0000     -10.403405      -283.0911 
  13   2.0000      -1.345039       -36.6004 
  14   2.0000      -1.227231       -33.3946 
  15   2.0000      -1.102011       -29.9872 
  16   2.0000      -1.073148       -29.2018 
  17   2.0000      -1.047857       -28.5136 
  18   2.0000      -0.999296       -27.1922 
  19   2.0000      -0.960782       -26.1442 
  20   2.0000      -0.951119       -25.8813 
  21   2.0000      -0.950104       -25.8536 
  22   2.0000      -0.938325       -25.5331 
  23   2.0000      -0.869769       -23.6676 
  24   2.0000      -0.859453       -23.3869 
  25   2.0000      -0.830439       -22.5974 
  26   2.0000      -0.780379       -21.2352 
  27   2.0000      -0.764414       -20.8008 
  28   2.0000      -0.750707       -20.4278 
  29   2.0000      -0.730826       -19.8868 
  30   2.0000      -0.704846       -19.1798 
  31   2.0000      -0.697057       -18.9679 
  32   2.0000      -0.692117       -18.8335 
  33   2.0000      -0.675379       -18.3780 
  34   2.0000      -0.669755       -18.2250 
  35   2.0000      -0.666581       -18.1386 
  36   2.0000      -0.656204       -17.8562 
  37   2.0000      -0.649812       -17.6823 
  38   2.0000      -0.646530       -17.5930 
  39   2.0000      -0.637969       -17.3600 
  40   2.0000      -0.631533       -17.1849 
  41   2.0000      -0.622112       -16.9285 
  42   2.0000      -0.619368       -16.8539 
  43   2.0000      -0.613255       -16.6875 
  44   2.0000      -0.599719       -16.3192 
  45   2.0000      -0.590565       -16.0701 
  46   2.0000      -0.587360       -15.9829 
  47   2.0000      -0.585556       -15.9338 
  48   2.0000      -0.539872       -14.6907 
  49   2.0000      -0.482536       -13.1305 
  50   0.0000      -0.078166        -2.1270 
  51   0.0000      -0.025084        -0.6826 
  52   0.0000      -0.003242        -0.0882 
  53   0.0000       0.003906         0.1063 
  54   0.0000       0.015036         0.4091 
  55   0.0000       0.049510         1.3472 
  56   0.0000       0.051367         1.3978 
  57   0.0000       0.054797         1.4911 
  58   0.0000       0.057518         1.5651 
  59   0.0000       0.067039         1.8242 
  60   0.0000       0.075305         2.0491 
  61   0.0000       0.083187         2.2636 
  62   0.0000       0.094476         2.5708 
  63   0.0000       0.096038         2.6133 
  64   0.0000       0.098216         2.6726 
  65   0.0000       0.103057         2.8043 
  66   0.0000       0.104726         2.8497 
  67   0.0000       0.118040         3.2120 
  68   0.0000       0.127533         3.4704 
  69   0.0000       0.130935         3.5629 
  70   0.0000       0.136893         3.7250 
  71   0.0000       0.140607         3.8261 
  72   0.0000       0.148391         4.0379 
  73   0.0000       0.148430         4.0390 
  74   0.0000       0.151190         4.1141 
  75   0.0000       0.158803         4.3213 
  76   0.0000       0.162904         4.4328 
  77   0.0000       0.178330         4.8526 
  78   0.0000       0.190038         5.1712 
  79   0.0000       0.202451         5.5090 
  80   0.0000       0.208904         5.6846 
  81   0.0000       0.219830         5.9819 
  82   0.0000       0.222547         6.0558 
  83   0.0000       0.226906         6.1744 
  84   0.0000       0.296561         8.0698 
  85   0.0000       0.322699         8.7811 
  86   0.0000       0.332579         9.0499 
  87   0.0000       0.350340         9.5332 
  88   0.0000       0.360602         9.8125 
  89   0.0000       0.361504         9.8370 
  90   0.0000       0.365187         9.9372 
  91   0.0000       0.378729        10.3057 
  92   0.0000       0.395653        10.7663 
  93   0.0000       0.395808        10.7705 
  94   0.0000       0.427483        11.6324 
  95   0.0000       0.427983        11.6460 
  96   0.0000       0.430398        11.7117 
  97   0.0000       0.454801        12.3758 
  98   0.0000       0.459828        12.5125 
  99   0.0000       0.499011        13.5788 
 100   0.0000       0.516921        14.0661 
 101   0.0000       0.520207        14.1556 
 102   0.0000       0.529691        14.4136 
 103   0.0000       0.542254        14.7555 
 104   0.0000       0.543470        14.7886 
 105   0.0000       0.552034        15.0216 
 106   0.0000       0.553678        15.0663 
 107   0.0000       0.558856        15.2072 
 108   0.0000       0.567971        15.4553 
 109   0.0000       0.592958        16.1352 
 110   0.0000       0.600796        16.3485 
 111   0.0000       0.604943        16.4613 
 112   0.0000       0.607451        16.5296 
 113   0.0000       0.614691        16.7266 
 114   0.0000       0.619620        16.8607 
 115   0.0000       0.625912        17.0319 
 116   0.0000       0.628768        17.1096 
 117   0.0000       0.634883        17.2761 
 118   0.0000       0.639198        17.3935 
 119   0.0000       0.652523        17.7561 
 120   0.0000       0.654929        17.8215 
 121   0.0000       0.658684        17.9237 
 122   0.0000       0.659254        17.9392 
 123   0.0000       0.660285        17.9673 
 124   0.0000       0.662168        18.0185 
 125   0.0000       0.668527        18.1915 
 126   0.0000       0.668848        18.2003 
 127   0.0000       0.677567        18.4375 
 128   0.0000       0.678582        18.4652 
 129   0.0000       0.685356        18.6495 
 130   0.0000       0.688367        18.7314 
 131   0.0000       0.695280        18.9195 
 132   0.0000       0.700923        19.0731 
 133   0.0000       0.702206        19.1080 
 134   0.0000       0.707904        19.2630 
 135   0.0000       0.721238        19.6259 
 136   0.0000       0.728790        19.8314 
 137   0.0000       0.731131        19.8951 
 138   0.0000       0.734383        19.9836 
 139   0.0000       0.740306        20.1447 
 140   0.0000       0.812136        22.0994 
 141   0.0000       0.825628        22.4665 
 142   0.0000       0.873859        23.7789 
 143   0.0000       0.883911        24.0524 
 144   0.0000       0.884629        24.0720 
 145   0.0000       0.905788        24.6477 
 146   0.0000       0.959326        26.1046 
 147   0.0000       0.992208        26.9994 
 148   0.0000       1.016446        27.6589 
 149   0.0000       1.032280        28.0898 
 150   0.0000       1.033077        28.1115 
 151   0.0000       1.036491        28.2043 
 152   0.0000       1.066199        29.0128 
 153   0.0000       1.080731        29.4082 
 154   0.0000       1.098396        29.8889 
 155   0.0000       1.113896        30.3107 
 156   0.0000       1.124144        30.5895 
 157   0.0000       1.124479        30.5986 
 158   0.0000       1.179970        32.1086 
 159   0.0000       1.186792        32.2943 
 160   0.0000       1.243631        33.8409 
 161   0.0000       1.261229        34.3198 
 162   0.0000       1.269506        34.5450 
 163   0.0000       1.285123        34.9700 
 164   0.0000       1.287425        35.0326 
 165   0.0000       1.364578        37.1320 
 166   0.0000       1.372205        37.3396 
 167   0.0000       1.376255        37.4498 
 168   0.0000       1.388007        37.7696 
 169   0.0000       1.472830        40.0778 
 170   0.0000       1.497482        40.7486 
 171   0.0000       1.504389        40.9365 
 172   0.0000       1.504529        40.9403 
 173   0.0000       1.504885        40.9500 
 174   0.0000       1.508645        41.0523 
 175   0.0000       1.512558        41.1588 
 176   0.0000       1.513518        41.1849 
 177   0.0000       1.521365        41.3985 
 178   0.0000       1.524051        41.4715 
 179   0.0000       1.524955        41.4961 
 180   0.0000       1.525677        41.5158 
 181   0.0000       1.625524        44.2328 
 182   0.0000       1.654171        45.0123 
 183   0.0000       1.660877        45.1948 
 184   0.0000       1.671869        45.4939 
 185   0.0000       1.673238        45.5311 
 186   0.0000       1.695484        46.1365 
 187   0.0000       1.703434        46.3528 
 188   0.0000       1.712220        46.5919 
 189   0.0000       1.719982        46.8031 
 190   0.0000       1.730853        47.0989 
 191   0.0000       1.732695        47.1490 
 192   0.0000       1.737526        47.2805 
 193   0.0000       1.747023        47.5389 
 194   0.0000       1.756519        47.7973 
 195   0.0000       1.757358        47.8201 
 196   0.0000       1.763079        47.9758 
 197   0.0000       1.777586        48.3706 
 198   0.0000       1.783092        48.5204 
 199   0.0000       1.783940        48.5435 
 200   0.0000       1.785540        48.5870 
 201   0.0000       1.803656        49.0800 
 202   0.0000       1.805354        49.1262 
 203   0.0000       1.807126        49.1744 
 204   0.0000       1.815571        49.4042 
 205   0.0000       1.838250        50.0213 
 206   0.0000       1.843142        50.1545 
 207   0.0000       1.849522        50.3281 
 208   0.0000       1.851054        50.3697 
 209   0.0000       1.860784        50.6345 
 210   0.0000       1.862085        50.6699 
 211   0.0000       1.896746        51.6131 
 212   0.0000       1.904385        51.8209 
 213   0.0000       1.927948        52.4621 
 214   0.0000       1.928814        52.4857 
 215   0.0000       1.933436        52.6115 
 216   0.0000       1.934539        52.6415 
 217   0.0000       1.957001        53.2527 
 218   0.0000       1.962318        53.3974 
 219   0.0000       1.976138        53.7735 
 220   0.0000       2.004063        54.5333 
 221   0.0000       2.009481        54.6808 
 222   0.0000       2.025651        55.1208 
 223   0.0000       2.063537        56.1517 
 224   0.0000       2.096567        57.0505 
 225   0.0000       2.118802        57.6555 
 226   0.0000       2.127923        57.9037 
 227   0.0000       2.143620        58.3309 
 228   0.0000       2.145444        58.3805 
 229   0.0000       2.177506        59.2530 
 230   0.0000       2.178367        59.2764 
 231   0.0000       2.188487        59.5518 
 232   0.0000       2.226850        60.5957 
 233   0.0000       2.237042        60.8730 
 234   0.0000       2.274551        61.8937 
 235   0.0000       2.301450        62.6256 
 236   0.0000       2.337009        63.5933 
 237   0.0000       2.344214        63.7893 
 238   0.0000       2.363067        64.3023 
 239   0.0000       2.367662        64.4273 
 240   0.0000       2.370139        64.4948 
 241   0.0000       2.384483        64.8851 
 242   0.0000       2.400572        65.3229 
 243   0.0000       2.404668        65.4343 
 244   0.0000       2.423804        65.9551 
 245   0.0000       2.446001        66.5591 
 246   0.0000       2.455400        66.8148 
 247   0.0000       2.455832        66.8266 
 248   0.0000       2.467786        67.1519 
 249   0.0000       2.505199        68.1699 
 250   0.0000       2.527633        68.7804 
 251   0.0000       2.532653        68.9170 
 252   0.0000       2.537129        69.0388 
 253   0.0000       2.555395        69.5358 
 254   0.0000       2.568615        69.8956 
 255   0.0000       2.606658        70.9308 
 256   0.0000       2.648687        72.0744 
 257   0.0000       2.662471        72.4495 
 258   0.0000       2.673905        72.7607 
 259   0.0000       2.687552        73.1320 
 260   0.0000       2.694452        73.3198 
 261   0.0000       2.717794        73.9549 
 262   0.0000       2.758696        75.0679 
 263   0.0000       2.767082        75.2961 
 264   0.0000       2.806355        76.3648 
 265   0.0000       2.810612        76.4807 
 266   0.0000       2.843547        77.3769 
 267   0.0000       2.843592        77.3781 
 268   0.0000       2.876638        78.2773 
 269   0.0000       2.877534        78.3017 
 270   0.0000       2.883960        78.4765 
 271   0.0000       2.886173        78.5367 
 272   0.0000       2.887883        78.5833 
 273   0.0000       2.928778        79.6961 
 274   0.0000       2.935351        79.8750 
 275   0.0000       2.935897        79.8898 
 276   0.0000       2.951758        80.3214 
 277   0.0000       2.965887        80.7059 
 278   0.0000       2.997128        81.5560 
 279   0.0000       2.998787        81.6011 
 280   0.0000       3.013226        81.9940 
 281   0.0000       3.014207        82.0207 
 282   0.0000       3.055754        83.1513 
 283   0.0000       3.168051        86.2071 
 284   0.0000       3.290465        89.5381 
 285   0.0000       3.357629        91.3657 
 286   0.0000       3.448423        93.8364 

                    ********************************
                    * MULLIKEN POPULATION ANALYSIS *
                    ********************************

-----------------------
MULLIKEN ATOMIC CHARGES
-----------------------
   0 C :   -0.092773
   1 C :   -0.092742
   2 C :    0.195043
   3 N :   -0.186346
   4 N :   -0.186345
   5 H :    0.102702
   6 C :    0.069627
   7 C :    0.069555
   8 H :    0.081752
   9 H :    0.081755
  10 H :    0.081755
  11 H :    0.081752
  12 H :    0.058146
  13 H :    0.058189
  14 C :   -0.001136
  15 C :   -0.001136
  16 C :   -0.001139
  17 C :   -0.001135
  18 C :   -0.081993
  19 C :   -0.081993
  20 H :    0.061137
  21 H :    0.061137
  22 H :    0.061138
  23 H :    0.061137
  24 H :    0.040730
  25 H :    0.040731
  26 H :    0.040732
  27 H :    0.040731
  28 H :    0.078753
  29 H :    0.078753
  30 H :    0.078753
  31 H :    0.078753
  32 H :    0.061988
  33 H :    0.061989
Sum of atomic charges:    1.0000000

--------------------------------
MULLIKEN REDUCED ORBITAL CHARGES
--------------------------------
  0 C s       :     3.096099  s :     3.096099
      pz      :     0.888231  p :     2.939282
      px      :     1.047546
      py      :     1.003504
      dz2     :     0.018729  d :     0.057393
      dxz     :     0.009611
      dyz     :     0.013386
      dx2y2   :     0.005817
      dxy     :     0.009850
  1 C s       :     3.096078  s :     3.096078
      pz      :     0.888218  p :     2.939270
      px      :     1.047549
      py      :     1.003503
      dz2     :     0.018729  d :     0.057393
      dxz     :     0.009611
      dyz     :     0.013386
      dx2y2   :     0.005817
      dxy     :     0.009850
  2 C s       :     3.095616  s :     3.095616
      pz      :     0.896165  p :     2.642019
      px      :     0.960874
      py      :     0.784980
      dz2     :     0.012788  d :     0.067323
      dxz     :     0.006308
      dyz     :     0.021989
      dx2y2   :     0.009198
      dxy     :     0.017041
  3 N s       :     3.393269  s :     3.393269
      pz      :     1.142169  p :     3.760897
      px      :     1.461841
      py      :     1.156887
      dz2     :     0.005829  d :     0.032180
      dxz     :     0.006654
      dyz     :     0.010320
      dx2y2   :     0.004309
      dxy     :     0.005068
  4 N s       :     3.393267  s :     3.393267
      pz      :     1.142168  p :     3.760897
      px      :     1.461842
      py      :     1.156887
      dz2     :     0.005829  d :     0.032180
      dxz     :     0.006654
      dyz     :     0.010320
      dx2y2   :     0.004309
      dxy     :     0.005068
  5 H s       :     0.873406  s :     0.873406
      pz      :     0.017844  p :     0.023892
      px      :     0.004677
      py      :     0.001371
  6 C s       :     2.928060  s :     2.928060
      pz      :     0.956531  p :     2.975957
      px      :     1.039547
      py      :     0.979880
      dz2     :     0.005670  d :     0.026357
      dxz     :     0.001853
      dyz     :     0.008202
      dx2y2   :     0.002527
      dxy     :     0.008105
  7 C s       :     2.928123  s :     2.928123
      pz      :     0.956527  p :     2.975966
      px      :     1.039548
      py      :     0.979891
      dz2     :     0.005670  d :     0.026356
      dxz     :     0.001853
      dyz     :     0.008201
      dx2y2   :     0.002526
      dxy     :     0.008105
  8 H s       :     0.893998  s :     0.893998
      pz      :     0.004157  p :     0.024251
      px      :     0.011894
      py      :     0.008199
  9 H s       :     0.893995  s :     0.893995
      pz      :     0.004157  p :     0.024250
      px      :     0.011894
      py      :     0.008199
 10 H s       :     0.893995  s :     0.893995
      pz      :     0.004157  p :     0.024250
      px      :     0.011894
      py      :     0.008199
 11 H s       :     0.893998  s :     0.893998
      pz      :     0.004157  p :     0.024251
      px      :     0.011894
      py      :     0.008199
 12 H s       :     0.917278  s :     0.917278
      pz      :     0.012890  p :     0.024575
      px      :     0.004786
      py      :     0.006899
 13 H s       :     0.917239  s :     0.917239
      pz      :     0.012889  p :     0.024571
      px      :     0.004785
      py      :     0.006898
 14 C s       :     3.021451  s :     3.021451
      pz      :     0.987507  p :     2.953659
      px      :     0.930078
      py      :     1.036074
      dz2     :     0.003938  d :     0.026026
      dxz     :     0.007378
      dyz     :     0.005279
      dx2y2   :     0.007599
      dxy     :     0.001832
 15 C s       :     3.021451  s :     3.021451
      pz      :     0.987508  p :     2.953659
      px      :     0.930077
      py      :     1.036074
      dz2     :     0.003938  d :     0.026026
      dxz     :     0.007378
      dyz     :     0.005279
      dx2y2   :     0.007599
      dxy     :     0.001832
 16 C s       :     3.021454  s :     3.021454
      pz      :     0.987509  p :     2.953659
      px      :     0.930077
      py      :     1.036074
      dz2     :     0.003938  d :     0.026026
      dxz     :     0.007378
      dyz     :     0.005279
      dx2y2   :     0.007599
      dxy     :     0.001832
 17 C s       :     3.021449  s :     3.021449
      pz      :     0.987508  p :     2.953660
      px      :     0.930077
      py      :     1.036075
      dz2     :     0.003938  d :     0.026026
      dxz     :     0.007378
      dyz     :     0.005279
      dx2y2   :     0.007599
      dxy     :     0.001832
 18 C s       :     3.121401  s :     3.121401
      pz      :     1.058405  p :     2.904862
      px      :     1.062253
      py      :     0.784204
      dz2     :     0.008495  d :     0.055730
      dxz     :     0.009858
      dyz     :     0.011880
      dx2y2   :     0.016716
      dxy     :     0.008781
 19 C s       :     3.121401  s :     3.121401
      pz      :     1.058404  p :     2.904862
      px      :     1.062252
      py      :     0.784205
      dz2     :     0.008495  d :     0.055730
      dxz     :     0.009858
      dyz     :     0.011880
      dx2y2   :     0.016716
      dxy     :     0.008781
 20 H s       :     0.915320  s :     0.915320
      pz      :     0.007336  p :     0.023543
      px      :     0.011315
      py      :     0.004892
 21 H s       :     0.915320  s :     0.915320
      pz      :     0.007336  p :     0.023543
      px      :     0.011315
      py      :     0.004892
 22 H s       :     0.915319  s :     0.915319
      pz      :     0.007336  p :     0.023543
      px      :     0.011315
      py      :     0.004892
 23 H s       :     0.915320  s :     0.915320
      pz      :     0.007336  p :     0.023543
      px      :     0.011315
      py      :     0.004892
 24 H s       :     0.935583  s :     0.935583
      pz      :     0.012127  p :     0.023686
      px      :     0.004032
      py      :     0.007527
 25 H s       :     0.935583  s :     0.935583
      pz      :     0.012127  p :     0.023686
      px      :     0.004032
      py      :     0.007527
 26 H s       :     0.935582  s :     0.935582
      pz      :     0.012127  p :     0.023686
      px      :     0.004032
      py      :     0.007527
 27 H s       :     0.935583  s :     0.935583
      pz      :     0.012127  p :     0.023686
      px      :     0.004032
      py      :     0.007527
 28 H s       :     0.897279  s :     0.897279
      pz      :     0.005277  p :     0.023969
      px      :     0.003996
      py      :     0.014696
 29 H s       :     0.897278  s :     0.897278
      pz      :     0.005277  p :     0.023969
      px      :     0.003996
      py      :     0.014696
 30 H s       :     0.897278  s :     0.897278
      pz      :     0.005277  p :     0.023969
      px      :     0.003996
      py      :     0.014696
 31 H s       :     0.897278  s :     0.897278
      pz      :     0.005277  p :     0.023969
      px      :     0.003996
      py      :     0.014696
 32 H s       :     0.916804  s :     0.916804
      pz      :     0.011148  p :     0.021208
      px      :     0.003356
      py      :     0.006704
 33 H s       :     0.916803  s :     0.916803
      pz      :     0.011148  p :     0.021208
      px      :     0.003356
      py      :     0.006704


                     *******************************
                     * LOEWDIN POPULATION ANALYSIS *
                     *******************************

----------------------
LOEWDIN ATOMIC CHARGES
----------------------
   0 C :   -0.006152
   1 C :   -0.006156
   2 C :    0.102876
   3 N :    0.096710
   4 N :    0.096710
   5 H :    0.049518
   6 C :   -0.049805
   7 C :   -0.049819
   8 H :    0.053781
   9 H :    0.053779
  10 H :    0.053779
  11 H :    0.053781
  12 H :    0.054607
  13 H :    0.054629
  14 C :   -0.049971
  15 C :   -0.049971
  16 C :   -0.049971
  17 C :   -0.049971
  18 C :    0.033042
  19 C :    0.033042
  20 H :    0.039719
  21 H :    0.039719
  22 H :    0.039719
  23 H :    0.039719
  24 H :    0.031368
  25 H :    0.031368
  26 H :    0.031368
  27 H :    0.031368
  28 H :    0.052098
  29 H :    0.052098
  30 H :    0.052098
  31 H :    0.052098
  32 H :    0.041413
  33 H :    0.041412

-------------------------------
LOEWDIN REDUCED ORBITAL CHARGES
-------------------------------
  0 C s       :     2.842577  s :     2.842577
      pz      :     0.936909  p :     3.026740
      px      :     1.032628
      py      :     1.057204
      dz2     :     0.047307  d :     0.136835
      dxz     :     0.018595
      dyz     :     0.036399
      dx2y2   :     0.015923
      dxy     :     0.018611
  1 C s       :     2.842576  s :     2.842576
      pz      :     0.936911  p :     3.026745
      px      :     1.032630
      py      :     1.057204
      dz2     :     0.047306  d :     0.136835
      dxz     :     0.018595
      dyz     :     0.036400
      dx2y2   :     0.015923
      dxy     :     0.018611
  2 C s       :     2.831236  s :     2.831236
      pz      :     1.022205  p :     2.907694
      px      :     0.976700
      py      :     0.908789
      dz2     :     0.030683  d :     0.158194
      dxz     :     0.010139
      dyz     :     0.058744
      dx2y2   :     0.023626
      dxy     :     0.035002
  3 N s       :     3.053247  s :     3.053247
      pz      :     1.194100  p :     3.775384
      px      :     1.388391
      py      :     1.192893
      dz2     :     0.016296  d :     0.074660
      dxz     :     0.012699
      dyz     :     0.027117
      dx2y2   :     0.009721
      dxy     :     0.008827
  4 N s       :     3.053246  s :     3.053246
      pz      :     1.194099  p :     3.775384
      px      :     1.388392
      py      :     1.192893
      dz2     :     0.016296  d :     0.074660
      dxz     :     0.012699
      dyz     :     0.027117
      dx2y2   :     0.009721
      dxy     :     0.008827
  5 H s       :     0.877399  s :     0.877399
      pz      :     0.050367  p :     0.073083
      px      :     0.014814
      py      :     0.007903
  6 C s       :     2.821930  s :     2.821930
      pz      :     1.035123  p :     3.156920
      px      :     1.078487
      py      :     1.043311
      dz2     :     0.016121  d :     0.070954
      dxz     :     0.003704
      dyz     :     0.022920
      dx2y2   :     0.006229
      dxy     :     0.021979
  7 C s       :     2.821951  s :     2.821951
      pz      :     1.035114  p :     3.156917
      px      :     1.078491
      py      :     1.043312
      dz2     :     0.016121  d :     0.070951
      dxz     :     0.003704
      dyz     :     0.022917
      dx2y2   :     0.006229
      dxy     :     0.021979
  8 H s       :     0.879865  s :     0.879865
      pz      :     0.012044  p :     0.066354
      px      :     0.032226
      py      :     0.022084
  9 H s       :     0.879866  s :     0.879866
      pz      :     0.012044  p :     0.066355
      px      :     0.032226
      py      :     0.022085
 10 H s       :     0.879866  s :     0.879866
      pz      :     0.012044  p :     0.066355
      px      :     0.032226
      py      :     0.022085
 11 H s       :     0.879865  s :     0.879865
      pz      :     0.012044  p :     0.066354
      px      :     0.032226
      py      :     0.022084
 12 H s       :     0.878797  s :     0.878797
      pz      :     0.034875  p :     0.066596
      px      :     0.012618
      py      :     0.019102
 13 H s       :     0.878790  s :     0.878790
      pz      :     0.034872  p :     0.066581
      px      :     0.012613
      py      :     0.019096
 14 C s       :     2.838770  s :     2.838770
      pz      :     1.048327  p :     3.141793
      px      :     1.014191
      py      :     1.079275
      dz2     :     0.009805  d :     0.069409
      dxz     :     0.020180
      dyz     :     0.013798
      dx2y2   :     0.021108
      dxy     :     0.004518
 15 C s       :     2.838770  s :     2.838770
      pz      :     1.048327  p :     3.141793
      px      :     1.014191
      py      :     1.079275
      dz2     :     0.009805  d :     0.069409
      dxz     :     0.020180
      dyz     :     0.013798
      dx2y2   :     0.021108
      dxy     :     0.004518
 16 C s       :     2.838770  s :     2.838770
      pz      :     1.048327  p :     3.141793
      px      :     1.014191
      py      :     1.079275
      dz2     :     0.009805  d :     0.069409
      dxz     :     0.020180
      dyz     :     0.013798
      dx2y2   :     0.021108
      dxy     :     0.004518
 17 C s       :     2.838770  s :     2.838770
      pz      :     1.048327  p :     3.141793
      px      :     1.014191
      py      :     1.079275
      dz2     :     0.009805  d :     0.069409
      dxz     :     0.020180
      dyz     :     0.013798
      dx2y2   :     0.021108
      dxy     :     0.004518
 18 C s       :     2.837060  s :     2.837060
      pz      :     1.064318  p :     3.001572
      px      :     1.076166
      py      :     0.861088
      dz2     :     0.017503  d :     0.128326
      dxz     :     0.024390
      dyz     :     0.029477
      dx2y2   :     0.039415
      dxy     :     0.017541
 19 C s       :     2.837060  s :     2.837060
      pz      :     1.064318  p :     3.001572
      px      :     1.076166
      py      :     0.861088
      dz2     :     0.017503  d :     0.128326
      dxz     :     0.024390
      dyz     :     0.029477
      dx2y2   :     0.039415
      dxy     :     0.017541
 20 H s       :     0.894492  s :     0.894492
      pz      :     0.020152  p :     0.065789
      px      :     0.032341
      py      :     0.013296
 21 H s       :     0.894492  s :     0.894492
      pz      :     0.020152  p :     0.065789
      px      :     0.032341
      py      :     0.013296
 22 H s       :     0.894492  s :     0.894492
      pz      :     0.020152  p :     0.065789
      px      :     0.032341
      py      :     0.013296
 23 H s       :     0.894492  s :     0.894492
      pz      :     0.020152  p :     0.065789
      px      :     0.032341
      py      :     0.013296
 24 H s       :     0.903260  s :     0.903260
      pz      :     0.033047  p :     0.065372
      px      :     0.011930
      py      :     0.020394
 25 H s       :     0.903260  s :     0.903260
      pz      :     0.033047  p :     0.065372
      px      :     0.011930
      py      :     0.020394
 26 H s       :     0.903260  s :     0.903260
      pz      :     0.033047  p :     0.065372
      px      :     0.011930
      py      :     0.020394
 27 H s       :     0.903260  s :     0.903260
      pz      :     0.033047  p :     0.065372
      px      :     0.011930
      py      :     0.020394
 28 H s       :     0.881877  s :     0.881877
      pz      :     0.014285  p :     0.066025
      px      :     0.011706
      py      :     0.040034
 29 H s       :     0.881877  s :     0.881877
      pz      :     0.014285  p :     0.066025
      px      :     0.011706
      py      :     0.040034
 30 H s       :     0.881877  s :     0.881877
      pz      :     0.014285  p :     0.066025
      px      :     0.011706
      py      :     0.040034
 31 H s       :     0.881877  s :     0.881877
      pz      :     0.014285  p :     0.066025
      px      :     0.011706
      py      :     0.040034
 32 H s       :     0.891658  s :     0.891658
      pz      :     0.033024  p :     0.066929
      px      :     0.014054
      py      :     0.019852
 33 H s       :     0.891658  s :     0.891658
      pz      :     0.033024  p :     0.066929
      px      :     0.014054
      py      :     0.019852


                      *****************************
                      * MAYER POPULATION ANALYSIS *
                      *****************************

  NA   - Mulliken gross atomic population
  ZA   - Total nuclear charge
  QA   - Mulliken gross atomic charge
  VA   - Mayer's total valence
  BVA  - Mayer's bonded valence
  FA   - Mayer's free valence

  ATOM       NA         ZA         QA         VA         BVA        FA
  0 C      6.0928     6.0000    -0.0928     4.0399     4.0399    -0.0000
  1 C      6.0927     6.0000    -0.0927     4.0399     4.0399    -0.0000
  2 C      5.8050     6.0000     0.1950     3.8640     3.8640     0.0000
  3 N      7.1863     7.0000    -0.1863     3.4059     3.4059     0.0000
  4 N      7.1863     7.0000    -0.1863     3.4059     3.4059     0.0000
  5 H      0.8973     1.0000     0.1027     1.0065     1.0065    -0.0000
  6 C      5.9304     6.0000     0.0696     3.9582     3.9582     0.0000
  7 C      5.9304     6.0000     0.0696     3.9583     3.9583     0.0000
  8 H      0.9182     1.0000     0.0818     0.9898     0.9898     0.0000
  9 H      0.9182     1.0000     0.0818     0.9898     0.9898     0.0000
 10 H      0.9182     1.0000     0.0818     0.9898     0.9898     0.0000
 11 H      0.9182     1.0000     0.0818     0.9898     0.9898     0.0000
 12 H      0.9419     1.0000     0.0581     1.0057     1.0057     0.0000
 13 H      0.9418     1.0000     0.0582     1.0057     1.0057     0.0000
 14 C      6.0011     6.0000    -0.0011     3.9428     3.9428     0.0000
 15 C      6.0011     6.0000    -0.0011     3.9428     3.9428     0.0000
 16 C      6.0011     6.0000    -0.0011     3.9428     3.9428     0.0000
 17 C      6.0011     6.0000    -0.0011     3.9428     3.9428    -0.0000
 18 C      6.0820     6.0000    -0.0820     4.0357     4.0357     0.0000
 19 C      6.0820     6.0000    -0.0820     4.0357     4.0357     0.0000
 20 H      0.9389     1.0000     0.0611     0.9915     0.9915     0.0000
 21 H      0.9389     1.0000     0.0611     0.9915     0.9915     0.0000
 22 H      0.9389     1.0000     0.0611     0.9915     0.9915     0.0000
 23 H      0.9389     1.0000     0.0611     0.9915     0.9915     0.0000
 24 H      0.9593     1.0000     0.0407     0.9997     0.9997    -0.0000
 25 H      0.9593     1.0000     0.0407     0.9997     0.9997     0.0000
 26 H      0.9593     1.0000     0.0407     0.9997     0.9997     0.0000
 27 H      0.9593     1.0000     0.0407     0.9997     0.9997    -0.0000
 28 H      0.9212     1.0000     0.0788     0.9949     0.9949    -0.0000
 29 H      0.9212     1.0000     0.0788     0.9949     0.9949     0.0000
 30 H      0.9212     1.0000     0.0788     0.9949     0.9949     0.0000
 31 H      0.9212     1.0000     0.0788     0.9949     0.9949    -0.0000
 32 H      0.9380     1.0000     0.0620     0.9876     0.9876    -0.0000
 33 H      0.9380     1.0000     0.0620     0.9876     0.9876     0.0000

  Mayer bond orders larger than 0.100000
B(  0-C ,  1-C ) :   1.6075 B(  0-C ,  3-N ) :   1.1742 B(  0-C ,  6-C ) :   1.0826 
B(  1-C ,  4-N ) :   1.1742 B(  1-C ,  7-C ) :   1.0826 B(  2-C ,  3-N ) :   1.3462 
B(  2-C ,  4-N ) :   1.3462 B(  2-C ,  5-H ) :   0.9718 B(  3-N , 18-C ) :   0.8371 
B(  4-N , 19-C ) :   0.8371 B(  6-C ,  8-H ) :   0.9482 B(  6-C , 11-H ) :   0.9482 
B(  6-C , 12-H ) :   0.9397 B(  7-C ,  9-H ) :   0.9482 B(  7-C , 10-H ) :   0.9482 
B(  7-C , 13-H ) :   0.9397 B( 14-C , 18-C ) :   1.0658 B( 14-C , 20-H ) :   0.9674 
B( 14-C , 24-H ) :   0.9626 B( 14-C , 28-H ) :   0.9683 B( 15-C , 19-C ) :   1.0658 
B( 15-C , 21-H ) :   0.9674 B( 15-C , 25-H ) :   0.9626 B( 15-C , 29-H ) :   0.9683 
B( 16-C , 19-C ) :   1.0658 B( 16-C , 22-H ) :   0.9674 B( 16-C , 26-H ) :   0.9626 
B( 16-C , 30-H ) :   0.9683 B( 17-C , 18-C ) :   1.0658 B( 17-C , 23-H ) :   0.9674 
B( 17-C , 27-H ) :   0.9626 B( 17-C , 31-H ) :   0.9683 B( 18-C , 32-H ) :   0.9348 
B( 19-C , 33-H ) :   0.9348 

-------
TIMINGS
-------

Total SCF time: 0 days 0 hours 1 min 53 sec 

Total time                  ....     113.854 sec
Sum of individual times     ....     113.272 sec  ( 99.5%)

Fock matrix formation       ....     109.778 sec  ( 96.4%)
  Split-RI-J                ....       4.922 sec  (  4.5% of F)
  Chain of spheres X        ....      96.517 sec  ( 87.9% of F)
  XC integration            ....       8.168 sec  (  7.4% of F)
    Basis function eval.    ....       2.775 sec  ( 34.0% of XC)
    Density eval.           ....       1.977 sec  ( 24.2% of XC)
    XC-Functional eval.     ....       1.145 sec  ( 14.0% of XC)
    XC-Potential eval.      ....       1.655 sec  ( 20.3% of XC)
Diagonalization             ....       0.123 sec  (  0.1%)
Density matrix formation    ....       0.014 sec  (  0.0%)
Population analysis         ....       0.019 sec  (  0.0%)
Initial guess               ....       0.465 sec  (  0.4%)
Orbital Transformation      ....       0.000 sec  (  0.0%)
Orbital Orthonormalization  ....       0.000 sec  (  0.0%)
DIIS solution               ....       0.065 sec  (  0.1%)
SOSCF solution              ....       0.100 sec  (  0.1%)
Grid generation             ....       2.708 sec  (  2.4%)

Maximum memory used throughout the entire SCF-calculation: 70.6 MB


-------------------------------------------------------------------------------
                          DFT DISPERSION CORRECTION                            
                                                                               
                                 DFTD4 V2.5                                    
-------------------------------------------------------------------------------
The WB97X functional is recognized
Active option DFTDOPT                   ...         5   

Starting D4
-------------------------   ----------------
Dispersion correction           -0.005609374
-------------------------   ----------------


-------------------------   --------------------
FINAL SINGLE POINT ENERGY      -540.632657070689
-------------------------   --------------------


                            ***************************************
                            *     ORCA property calculations      *
                            ***************************************

                                    ---------------------
                                    Active property flags
                                    ---------------------
   (+) Dipole Moment


------------------------------------------------------------------------------
                       ORCA ELECTRIC PROPERTIES CALCULATION
------------------------------------------------------------------------------

Dipole Moment Calculation                       ... on
Quadrupole Moment Calculation                   ... off
Polarizability Calculation                      ... off
GBWName                                         ... DFT_water_outs/6+-gasSP.gbw
Electron density                                ... DFT_water_outs/6+-gasSP.scfp
The origin for moment calculation is the CENTER OF MASS  = ( 0.000000,  0.000000 -0.026495)

-------------
DIPOLE MOMENT
-------------
                                X             Y             Z
Electronic contribution:     -0.00000      -0.00000      -2.78967
Nuclear contribution   :      0.00000       0.00000       2.79979
                        -----------------------------------------
Total Dipole Moment    :     -0.00000      -0.00000       0.01013
                        -----------------------------------------
Magnitude (a.u.)       :      0.01013
Magnitude (Debye)      :      0.02574



--------------------
Rotational spectrum 
--------------------
 
Rotational constants in cm-1:     0.035300     0.019158     0.014917 
Rotational constants in MHz :  1058.272820   574.348244   447.188919 

 Dipole components along the rotational axes: 
x,y,z [a.u.] :     0.000003     0.010127    -0.000001 
x,y,z [Debye]:     0.000007     0.025740    -0.000002 

 

Timings for individual modules:

Sum of individual times         ...      115.052 sec (=   1.918 min)
GTO integral calculation        ...        0.821 sec (=   0.014 min)   0.7 %
SCF iterations                  ...      114.231 sec (=   1.904 min)  99.3 %
                             ****ORCA TERMINATED NORMALLY****
TOTAL RUN TIME: 0 days 0 hours 1 minutes 55 seconds 702 msec
