
                                 *****************
                                 * O   R   C   A *
                                 *****************

                                            #,                                       
                                            ###                                      
                                            ####                                     
                                            #####                                    
                                            ######                                   
                                           ########,                                 
                                     ,,################,,,,,                         
                               ,,#################################,,                 
                          ,,##########################################,,             
                       ,#########################################, ''#####,          
                    ,#############################################,,   '####,        
                  ,##################################################,,,,####,       
                ,###########''''           ''''###############################       
              ,#####''   ,,,,##########,,,,          '''####'''          '####       
            ,##' ,,,,###########################,,,                        '##       
           ' ,,###''''                  '''############,,,                           
         ,,##''                                '''############,,,,        ,,,,,,###''
      ,#''                                            '''#######################'''  
     '                                                          ''''####''''         
             ,#######,   #######,   ,#######,      ##                                
            ,#'     '#,  ##    ##  ,#'     '#,    #''#        ######   ,####,        
            ##       ##  ##   ,#'  ##            #'  '#       #        #'  '#        
            ##       ##  #######   ##           ,######,      #####,   #    #        
            '#,     ,#'  ##    ##  '#,     ,#' ,#      #,         ##   #,  ,#        
             '#######'   ##     ##  '#######'  #'      '#     #####' # '####'        



                  #######################################################
                  #                        -***-                        #
                  #          Department of theory and spectroscopy      #
                  #    Directorship and core code : Frank Neese         #
                  #        Max Planck Institute fuer Kohlenforschung    #
                  #                Kaiser Wilhelm Platz 1               #
                  #                 D-45470 Muelheim/Ruhr               #
                  #                      Germany                        #
                  #                                                     #
                  #                  All rights reserved                #
                  #                        -***-                        #
                  #######################################################


                         Program Version 5.0.3 -  RELEASE  -


 With contributions from (in alphabetic order):
   Daniel Aravena         : Magnetic Suceptibility
   Michael Atanasov       : Ab Initio Ligand Field Theory (pilot matlab implementation)
   Alexander A. Auer      : GIAO ZORA, VPT2 properties, NMR spectrum
   Ute Becker             : Parallelization
   Giovanni Bistoni       : ED, misc. LED, open-shell LED, HFLD
   Martin Brehm           : Molecular dynamics
   Dmytro Bykov           : SCF Hessian
   Vijay G. Chilkuri      : MRCI spin determinant printing, contributions to CSF-ICE
   Dipayan Datta          : RHF DLPNO-CCSD density
   Achintya Kumar Dutta   : EOM-CC, STEOM-CC
   Dmitry Ganyushin       : Spin-Orbit,Spin-Spin,Magnetic field MRCI
   Miquel Garcia          : C-PCM and meta-GGA Hessian, CC/C-PCM, Gaussian charge scheme
   Yang Guo               : DLPNO-NEVPT2, F12-NEVPT2, CIM, IAO-localization
   Andreas Hansen         : Spin unrestricted coupled pair/coupled cluster methods
   Benjamin Helmich-Paris : MC-RPA, TRAH-SCF, COSX integrals
   Lee Huntington         : MR-EOM, pCC
   Robert Izsak           : Overlap fitted RIJCOSX, COSX-SCS-MP3, EOM
   Marcus Kettner         : VPT2
   Christian Kollmar      : KDIIS, OOCD, Brueckner-CCSD(T), CCSD density, CASPT2, CASPT2-K
   Simone Kossmann        : Meta GGA functionals, TD-DFT gradient, OOMP2, MP2 Hessian
   Martin Krupicka        : Initial AUTO-CI
   Lucas Lang             : DCDCAS
   Marvin Lechner         : AUTO-CI (C++ implementation), FIC-MRCC
   Dagmar Lenk            : GEPOL surface, SMD
   Dimitrios Liakos       : Extrapolation schemes; Compound Job, initial MDCI parallelization
   Dimitrios Manganas     : Further ROCIS development; embedding schemes
   Dimitrios Pantazis     : SARC Basis sets
   Anastasios Papadopoulos: AUTO-CI, single reference methods and gradients
   Taras Petrenko         : DFT Hessian,TD-DFT gradient, ASA, ECA, R-Raman, ABS, FL, XAS/XES, NRVS
   Peter Pinski           : DLPNO-MP2, DLPNO-MP2 Gradient
   Christoph Reimann      : Effective Core Potentials
   Marius Retegan         : Local ZFS, SOC
   Christoph Riplinger    : Optimizer, TS searches, QM/MM, DLPNO-CCSD(T), (RO)-DLPNO pert. Triples
   Tobias Risthaus        : Range-separated hybrids, TD-DFT gradient, RPA, STAB
   Michael Roemelt        : Original ROCIS implementation
   Masaaki Saitow         : Open-shell DLPNO-CCSD energy and density
   Barbara Sandhoefer     : DKH picture change effects
   Avijit Sen             : IP-ROCIS
   Kantharuban Sivalingam : CASSCF convergence, NEVPT2, FIC-MRCI
   Bernardo de Souza      : ESD, SOC TD-DFT
   Georgi Stoychev        : AutoAux, RI-MP2 NMR, DLPNO-MP2 response
   Willem Van den Heuvel  : Paramagnetic NMR
   Boris Wezisla          : Elementary symmetry handling
   Frank Wennmohs         : Technical directorship


 We gratefully acknowledge several colleagues who have allowed us to
 interface, adapt or use parts of their codes:
   Stefan Grimme, W. Hujo, H. Kruse, P. Pracht,  : VdW corrections, initial TS optimization,
                  C. Bannwarth, S. Ehlert          DFT functionals, gCP, sTDA/sTD-DF
   Ed Valeev, F. Pavosevic, A. Kumar             : LibInt (2-el integral package), F12 methods
   Garnet Chan, S. Sharma, J. Yang, R. Olivares  : DMRG
   Ulf Ekstrom                                   : XCFun DFT Library
   Mihaly Kallay                                 : mrcc  (arbitrary order and MRCC methods)
   Jiri Pittner, Ondrej Demel                    : Mk-CCSD
   Frank Weinhold                                : gennbo (NPA and NBO analysis)
   Christopher J. Cramer and Donald G. Truhlar   : smd solvation model
   Lars Goerigk                                  : TD-DFT with DH, B97 family of functionals
   V. Asgeirsson, H. Jonsson                     : NEB implementation
   FAccTs GmbH                                   : IRC, NEB, NEB-TS, DLPNO-Multilevel, CI-OPT
                                                   MM, QMMM, 2- and 3-layer-ONIOM, Crystal-QMMM,
                                                   LR-CPCM, SF, NACMEs, symmetry and pop. for TD-DFT,
                                                   nearIR, NL-DFT gradient (VV10), updates on ESD,
                                                   ML-optimized integration grids
   S Lehtola, MJT Oliveira, MAL Marques          : LibXC Library
   Liviu Ungur et al                             : ANISO software


 Your calculation uses the libint2 library for the computation of 2-el integrals
 For citations please refer to: http://libint.valeyev.net

 Your ORCA version has been built with support for libXC version: 5.1.0
 For citations please refer to: https://tddft.org/programs/libxc/

 This ORCA versions uses:
   CBLAS   interface :  Fast vector & matrix operations
   LAPACKE interface :  Fast linear algebra routines
   SCALAPACK package :  Parallel linear algebra routines
   Shared memory     :  Shared parallel matrices
   BLAS/LAPACK       :  OpenBLAS 0.3.15  USE64BITINT DYNAMIC_ARCH NO_AFFINITY SkylakeX SINGLE_THREADED
        Core in use  :  SkylakeX
   Copyright (c) 2011-2014, The OpenBLAS Project




***************************************
The coordinates will be read from file: iPrMe+.xyz
***************************************


Your calculation utilizes the atom-pairwise dispersion correction
based on tight binding partial charges (D4)
Cite in your paper:
E.Caldeweyher, C.Bannwarth, S.Grimme, J.Chem.Phys., (2017), 147, 034112.
E.Caldeweyher, S.Ehlert, A.Hansen, H.Neugebauer, S.Grimme, J.Chem.Phys., (2018), in progress.
   

XCFun DFT library Copyright 2009-2010 Ulf Ekstrom and contributors.
See http://admol.org/xcfun for more information.
This is free software; see the source code for copying conditions.
There is ABSOLUTELY NO WARRANTY; not even for MERCHANTABILITY or FITNESS FOR A PARTICULAR PURPOSE.
For details see the documentation.
Scientific users of this library should cite U. Ekstrom, L. Visscher, R. Bast, A. J. Thorvaldsen and K. Ruud;
J.Chem.Theor.Comp. 2010, DOI: 10.1021/ct100117s
XCFun Version 0.99 

================================================================================

----- Orbital basis set information -----
Your calculation utilizes the basis: def2-SVP
   F. Weigend and R. Ahlrichs, Phys. Chem. Chem. Phys. 7, 3297 (2005).

----- AuxJ basis set information -----
Your calculation utilizes the auxiliary basis: def2/J
   F. Weigend, Phys. Chem. Chem. Phys. 8, 1057 (2006).

================================================================================
                                        WARNINGS
                       Please study these warnings very carefully!
================================================================================


WARNING: Geometry Optimization
  ===> : Switching off AutoStart
         For restart on a previous wavefunction, please use MOREAD

INFO   : the flag for use of the SHARK integral package has been found!

================================================================================
                                       INPUT FILE
================================================================================
NAME = iPrMe+_Water.inp
|  1> # ORCAForces - ../2023_02/pKa_prediction/Yates_carbene_xyzs/Our_level/Water/iPrMe+_Water.inp
|  2> # Basic Mode
|  3> #
|  4> ! Opt FREQ wB97X D4 Def2-SVP SlowConv TightSCF DEFGRID2 Def2/J RIJCOSX CPCM(Water)
|  5> 
|  6> %maxcore 4500
|  7> 
|  8> %PAL NPROCS 4 END
|  9> 
| 10> %geom 
| 11> Maxiter 150
| 12> END
| 13> 
| 14> * xyzfile 1 1 iPrMe+.xyz
| 15> 
| 16>                          ****END OF INPUT****
================================================================================

                       *****************************
                       * Geometry Optimization Run *
                       *****************************

Geometry optimization settings:
Update method            Update   .... BFGS
Choice of coordinates    CoordSys .... Z-matrix Internals
Initial Hessian          InHess   .... Almoef's Model

Convergence Tolerances:
Energy Change            TolE     ....  5.0000e-06 Eh
Max. Gradient            TolMAXG  ....  3.0000e-04 Eh/bohr
RMS Gradient             TolRMSG  ....  1.0000e-04 Eh/bohr
Max. Displacement        TolMAXD  ....  4.0000e-03 bohr
RMS Displacement         TolRMSD  ....  2.0000e-03 bohr
Strict Convergence                ....  False
------------------------------------------------------------------------------
                        ORCA OPTIMIZATION COORDINATE SETUP
------------------------------------------------------------------------------

The optimization will be done in new redundant internal coordinates
Making redundant internal coordinates   ...  (new redundants) done
Evaluating the initial hessian          ...  (Almloef) done
Evaluating the coordinates              ...  done
Calculating the B-matrix                .... done
Calculating the G-matrix                .... done
Diagonalizing the G-matrix              .... done
Small eigenvalue found = 1.120e-02
Small eigenvalue found = 2.099e-02
Small eigenvalue found = 2.258e-02
The first mode is                       ....   81
The number of degrees of freedom        ....   96

    -----------------------------------------------------------------
                    Redundant Internal Coordinates


    -----------------------------------------------------------------
         Definition                    Initial Value    Approx d2E/dq
    -----------------------------------------------------------------
      1. B(C   1,C   0)                  1.3735         0.663903   
      2. B(N   3,C   2)                  1.3350         0.684937   
      3. B(N   3,C   0)                  1.3933         0.552944   
      4. B(N   4,C   1)                  1.3933         0.552944   
      5. B(N   4,C   2)                  1.3350         0.684937   
      6. B(H   5,C   2)                  1.0754         0.379969   
      7. B(C   6,C   0)                  1.4922         0.429271   
      8. B(C   7,C   1)                  1.4922         0.429271   
      9. B(H   8,C   6)                  1.0933         0.355706   
     10. B(H   9,C   7)                  1.0933         0.355706   
     11. B(H  10,C   7)                  1.0933         0.355706   
     12. B(H  11,C   6)                  1.0933         0.355706   
     13. B(H  12,C   6)                  1.0889         0.361543   
     14. B(H  13,C   7)                  1.0889         0.361543   
     15. B(C  18,N   3)                  1.4959         0.379255   
     16. B(C  18,C  17)                  1.5301         0.373387   
     17. B(C  18,C  14)                  1.5301         0.373387   
     18. B(C  19,C  16)                  1.5301         0.373387   
     19. B(C  19,C  15)                  1.5301         0.373387   
     20. B(C  19,N   4)                  1.4959         0.379255   
     21. B(H  20,C  14)                  1.0917         0.357861   
     22. B(H  21,C  15)                  1.0917         0.357861   
     23. B(H  22,C  16)                  1.0917         0.357861   
     24. B(H  23,C  17)                  1.0917         0.357861   
     25. B(H  24,C  14)                  1.0932         0.355865   
     26. B(H  25,C  15)                  1.0932         0.355865   
     27. B(H  26,C  16)                  1.0932         0.355865   
     28. B(H  27,C  17)                  1.0932         0.355865   
     29. B(H  28,C  14)                  1.0915         0.358151   
     30. B(H  29,C  15)                  1.0915         0.358151   
     31. B(H  30,C  16)                  1.0915         0.358151   
     32. B(H  31,C  17)                  1.0915         0.358151   
     33. B(H  32,C  18)                  1.0894         0.360943   
     34. B(H  33,C  19)                  1.0894         0.360943   
     35. A(N   3,C   0,C   6)          123.1128         0.395850   
     36. A(C   1,C   0,C   6)          130.1282         0.411471   
     37. A(C   1,C   0,N   3)          106.7590         0.427678   
     38. A(N   4,C   1,C   7)          123.1128         0.395850   
     39. A(C   0,C   1,C   7)          130.1282         0.411471   
     40. A(C   0,C   1,N   4)          106.7590         0.427678   
     41. A(N   3,C   2,H   5)          125.3782         0.359979   
     42. A(N   4,C   2,H   5)          125.3782         0.359979   
     43. A(N   3,C   2,N   4)          109.2437         0.444065   
     44. A(C   2,N   3,C  18)          124.6363         0.399601   
     45. A(C   0,N   3,C  18)          126.7445         0.384910   
     46. A(C   0,N   3,C   2)          108.6192         0.427271   
     47. A(C   2,N   4,C  19)          124.6363         0.399601   
     48. A(C   1,N   4,C   2)          108.6192         0.427271   
     49. A(C   1,N   4,C  19)          126.7445         0.384910   
     50. A(C   0,C   6,H   8)          111.8080         0.331164   
     51. A(H   8,C   6,H  12)          107.4205         0.290462   
     52. A(H  11,C   6,H  12)          107.4205         0.290462   
     53. A(C   0,C   6,H  12)          109.9996         0.332058   
     54. A(H   8,C   6,H  11)          108.1858         0.289721   
     55. A(C   0,C   6,H  11)          111.8080         0.331164   
     56. A(H   9,C   7,H  10)          108.1858         0.289721   
     57. A(C   1,C   7,H  10)          111.8080         0.331164   
     58. A(C   1,C   7,H   9)          111.8080         0.331164   
     59. A(C   1,C   7,H  13)          109.9996         0.332058   
     60. A(H   9,C   7,H  13)          107.4205         0.290462   
     61. A(H  10,C   7,H  13)          107.4205         0.290462   
     62. A(H  24,C  14,H  28)          107.5335         0.290053   
     63. A(H  20,C  14,H  28)          108.1070         0.290307   
     64. A(C  18,C  14,H  28)          109.3291         0.324003   
     65. A(H  20,C  14,H  24)          108.6303         0.290016   
     66. A(C  18,C  14,H  24)          111.6283         0.323663   
     67. A(C  18,C  14,H  20)          111.4721         0.323960   
     68. A(H  21,C  15,H  29)          108.1070         0.290307   
     69. A(C  19,C  15,H  29)          109.3291         0.324003   
     70. A(H  25,C  15,H  29)          107.5335         0.290053   
     71. A(H  21,C  15,H  25)          108.6303         0.290016   
     72. A(C  19,C  15,H  25)          111.6283         0.323663   
     73. A(C  19,C  15,H  21)          111.4721         0.323960   
     74. A(H  26,C  16,H  30)          107.5335         0.290053   
     75. A(H  22,C  16,H  30)          108.1070         0.290307   
     76. A(C  19,C  16,H  30)          109.3291         0.324003   
     77. A(H  22,C  16,H  26)          108.6303         0.290016   
     78. A(C  19,C  16,H  26)          111.6283         0.323663   
     79. A(C  19,C  16,H  22)          111.4721         0.323960   
     80. A(H  27,C  17,H  31)          107.5335         0.290053   
     81. A(H  23,C  17,H  31)          108.1070         0.290307   
     82. A(C  18,C  17,H  31)          109.3291         0.324003   
     83. A(H  23,C  17,H  27)          108.6303         0.290016   
     84. A(C  18,C  17,H  27)          111.6283         0.323663   
     85. A(C  18,C  17,H  23)          111.4721         0.323960   
     86. A(C  17,C  18,H  32)          108.7960         0.324417   
     87. A(C  14,C  18,H  32)          108.7960         0.324417   
     88. A(N   3,C  18,H  32)          104.5284         0.323305   
     89. A(C  14,C  18,C  17)          113.4464         0.363289   
     90. A(N   3,C  18,C  17)          110.4317         0.361994   
     91. A(N   3,C  18,C  14)          110.4317         0.361994   
     92. A(C  16,C  19,H  33)          108.7960         0.324417   
     93. A(C  15,C  19,H  33)          108.7960         0.324417   
     94. A(N   4,C  19,C  15)          110.4317         0.361994   
     95. A(N   4,C  19,H  33)          104.5284         0.323305   
     96. A(C  15,C  19,C  16)          113.4464         0.363289   
     97. A(N   4,C  19,C  16)          110.4317         0.361994   
     98. D(C   7,C   1,C   0,N   3)    180.0000         0.030783   
     99. D(N   4,C   1,C   0,N   3)      0.0000         0.030783   
    100. D(C   7,C   1,C   0,C   6)      0.0000         0.030783   
    101. D(N   4,C   1,C   0,C   6)    180.0000         0.030783   
    102. D(C   0,N   3,C   2,H   5)    180.0000         0.038656   
    103. D(C  18,N   3,C   0,C   6)      0.0000         0.024383   
    104. D(C   0,N   3,C   2,N   4)      0.0000         0.038656   
    105. D(C   2,N   3,C   0,C   6)    180.0000         0.024383   
    106. D(C  18,N   3,C   2,N   4)    180.0000         0.038656   
    107. D(C   2,N   3,C   0,C   1)      0.0000         0.024383   
    108. D(C  18,N   3,C   0,C   1)    180.0000         0.024383   
    109. D(C  18,N   3,C   2,H   5)      0.0000         0.038656   
    110. D(C  19,N   4,C   1,C   0)    180.0000         0.024383   
    111. D(C   2,N   4,C   1,C   7)    180.0000         0.024383   
    112. D(C   1,N   4,C   2,N   3)      0.0000         0.038656   
    113. D(C  19,N   4,C   2,N   3)    180.0000         0.038656   
    114. D(C  19,N   4,C   2,H   5)      0.0000         0.038656   
    115. D(C   2,N   4,C   1,C   0)      0.0000         0.024383   
    116. D(C   1,N   4,C   2,H   5)    180.0000         0.038656   
    117. D(C  19,N   4,C   1,C   7)      0.0000         0.024383   
    118. D(H  11,C   6,C   0,N   3)     60.7391         0.013610   
    119. D(H  11,C   6,C   0,C   1)   -119.2609         0.013610   
    120. D(H   8,C   6,C   0,N   3)    -60.7391         0.013610   
    121. D(H  12,C   6,C   0,C   1)      0.0000         0.013610   
    122. D(H   8,C   6,C   0,C   1)    119.2609         0.013610   
    123. D(H  12,C   6,C   0,N   3)    180.0000         0.013610   
    124. D(H  13,C   7,C   1,C   0)      0.0000         0.013610   
    125. D(H  10,C   7,C   1,N   4)    -60.7391         0.013610   
    126. D(H  10,C   7,C   1,C   0)    119.2609         0.013610   
    127. D(H   9,C   7,C   1,N   4)     60.7391         0.013610   
    128. D(H  13,C   7,C   1,N   4)    180.0000         0.013610   
    129. D(H   9,C   7,C   1,C   0)   -119.2609         0.013610   
    130. D(H  32,C  18,C  17,H  31)     60.3185         0.011133   
    131. D(H  32,C  18,C  17,H  23)    -59.1466         0.011133   
    132. D(C  14,C  18,C  17,H  31)    -60.9193         0.011133   
    133. D(C  14,C  18,C  17,H  27)     57.9307         0.011133   
    134. D(C  14,C  18,C  17,H  23)    179.6156         0.011133   
    135. D(N   3,C  18,C  17,H  31)    174.4964         0.011133   
    136. D(N   3,C  18,C  17,H  27)    -66.6537         0.011133   
    137. D(N   3,C  18,C  17,H  23)     55.0313         0.011133   
    138. D(H  32,C  18,C  14,H  24)   -179.1685         0.011133   
    139. D(H  32,C  18,C  14,H  20)     59.1466         0.011133   
    140. D(C  17,C  18,C  14,H  28)     60.9193         0.011133   
    141. D(C  17,C  18,C  14,H  24)    -57.9307         0.011133   
    142. D(C  17,C  18,C  14,H  20)   -179.6156         0.011133   
    143. D(H  32,C  18,C  14,H  28)    -60.3185         0.011133   
    144. D(N   3,C  18,C  14,H  28)   -174.4964         0.011133   
    145. D(N   3,C  18,C  14,H  24)     66.6537         0.011133   
    146. D(N   3,C  18,C  14,H  20)    -55.0313         0.011133   
    147. D(C  17,C  18,N   3,C   2)     63.1455         0.012318   
    148. D(C  17,C  18,N   3,C   0)   -116.8545         0.012318   
    149. D(C  14,C  18,N   3,C   2)    -63.1455         0.012318   
    150. D(H  32,C  18,N   3,C   2)    180.0000         0.012318   
    151. D(H  32,C  18,C  17,H  27)    179.1685         0.011133   
    152. D(C  14,C  18,N   3,C   0)    116.8545         0.012318   
    153. D(H  32,C  18,N   3,C   0)      0.0000         0.012318   
    154. D(H  33,C  19,N   4,C   2)    180.0000         0.012318   
    155. D(H  33,C  19,N   4,C   1)      0.0000         0.012318   
    156. D(C  16,C  19,N   4,C   2)    -63.1455         0.012318   
    157. D(C  16,C  19,N   4,C   1)    116.8545         0.012318   
    158. D(C  15,C  19,N   4,C   2)     63.1455         0.012318   
    159. D(N   4,C  19,C  15,H  21)     55.0313         0.011133   
    160. D(C  15,C  19,N   4,C   1)   -116.8545         0.012318   
    161. D(H  33,C  19,C  16,H  30)    -60.3185         0.011133   
    162. D(H  33,C  19,C  16,H  22)     59.1466         0.011133   
    163. D(C  15,C  19,C  16,H  30)     60.9193         0.011133   
    164. D(C  15,C  19,C  16,H  26)    -57.9307         0.011133   
    165. D(N   4,C  19,C  16,H  30)   -174.4964         0.011133   
    166. D(N   4,C  19,C  16,H  26)     66.6537         0.011133   
    167. D(N   4,C  19,C  16,H  22)    -55.0313         0.011133   
    168. D(H  33,C  19,C  15,H  29)     60.3185         0.011133   
    169. D(H  33,C  19,C  15,H  25)    179.1685         0.011133   
    170. D(H  33,C  19,C  15,H  21)    -59.1466         0.011133   
    171. D(C  15,C  19,C  16,H  22)   -179.6156         0.011133   
    172. D(C  16,C  19,C  15,H  29)    -60.9193         0.011133   
    173. D(C  16,C  19,C  15,H  25)     57.9307         0.011133   
    174. D(C  16,C  19,C  15,H  21)    179.6156         0.011133   
    175. D(H  33,C  19,C  16,H  26)   -179.1685         0.011133   
    176. D(N   4,C  19,C  15,H  29)    174.4964         0.011133   
    177. D(N   4,C  19,C  15,H  25)    -66.6537         0.011133   
    -----------------------------------------------------------------

Number of atoms                         .... 34
Number of degrees of freedom            .... 177

         *************************************************************
         *                GEOMETRY OPTIMIZATION CYCLE   1            *
         *************************************************************
---------------------------------
CARTESIAN COORDINATES (ANGSTROEM)
---------------------------------
  C      0.000000    0.686737   -1.321906
  C      0.000000   -0.686737   -1.321906
  C      0.000000    0.000000    0.785089
  N      0.000000    1.088477    0.012173
  N      0.000000   -1.088477    0.012173
  H      0.000000    0.000000    1.860469
  C      0.000000    1.648441   -2.462826
  C      0.000000   -1.648441   -2.462826
  H     -0.885573    2.289590   -2.453609
  H     -0.885573   -2.289590   -2.453609
  H      0.885573   -2.289590   -2.453609
  H      0.885573    2.289590   -2.453609
  H      0.000000    1.106090   -3.407063
  H      0.000000   -1.106090   -3.407063
  C     -1.279240    2.774894    1.314723
  C     -1.279240   -2.774894    1.314723
  C      1.279240   -2.774894    1.314723
  C      1.279240    2.774894    1.314723
  C      0.000000    2.494285    0.523444
  C      0.000000   -2.494285    0.523444
  H     -2.170741    2.557882    0.723169
  H     -2.170741   -2.557882    0.723169
  H      2.170741   -2.557882    0.723169
  H      2.170741    2.557882    0.723169
  H     -1.320057    2.187909    2.236088
  H     -1.320057   -2.187909    2.236088
  H      1.320057   -2.187909    2.236088
  H      1.320057    2.187909    2.236088
  H     -1.306602    3.829378    1.595148
  H     -1.306602   -3.829378    1.595148
  H      1.306602   -3.829378    1.595148
  H      1.306602    3.829378    1.595148
  H      0.000000    3.111526   -0.374179
  H      0.000000   -3.111526   -0.374179

----------------------------
CARTESIAN COORDINATES (A.U.)
----------------------------
  NO LB      ZA    FRAG     MASS         X           Y           Z
   0 C     6.0000    0    12.011    0.000000    1.297745   -2.498040
   1 C     6.0000    0    12.011    0.000000   -1.297745   -2.498040
   2 C     6.0000    0    12.011    0.000000    0.000000    1.483603
   3 N     7.0000    0    14.007    0.000000    2.056923    0.023004
   4 N     7.0000    0    14.007    0.000000   -2.056923    0.023004
   5 H     1.0000    0     1.008    0.000000    0.000000    3.515777
   6 C     6.0000    0    12.011    0.000000    3.115102   -4.654067
   7 C     6.0000    0    12.011    0.000000   -3.115102   -4.654067
   8 H     1.0000    0     1.008   -1.673490    4.326698   -4.636649
   9 H     1.0000    0     1.008   -1.673490   -4.326698   -4.636649
  10 H     1.0000    0     1.008    1.673490   -4.326698   -4.636649
  11 H     1.0000    0     1.008    1.673490    4.326698   -4.636649
  12 H     1.0000    0     1.008    0.000000    2.090207   -6.438416
  13 H     1.0000    0     1.008    0.000000   -2.090207   -6.438416
  14 C     6.0000    0    12.011   -2.417413    5.243790    2.484466
  15 C     6.0000    0    12.011   -2.417413   -5.243790    2.484466
  16 C     6.0000    0    12.011    2.417413   -5.243790    2.484466
  17 C     6.0000    0    12.011    2.417413    5.243790    2.484466
  18 C     6.0000    0    12.011    0.000000    4.713516    0.989166
  19 C     6.0000    0    12.011    0.000000   -4.713516    0.989166
  20 H     1.0000    0     1.008   -4.102106    4.833696    1.366591
  21 H     1.0000    0     1.008   -4.102106   -4.833696    1.366591
  22 H     1.0000    0     1.008    4.102106   -4.833696    1.366591
  23 H     1.0000    0     1.008    4.102106    4.833696    1.366591
  24 H     1.0000    0     1.008   -2.494546    4.134549    4.225594
  25 H     1.0000    0     1.008   -2.494546   -4.134549    4.225594
  26 H     1.0000    0     1.008    2.494546   -4.134549    4.225594
  27 H     1.0000    0     1.008    2.494546    4.134549    4.225594
  28 H     1.0000    0     1.008   -2.469120    7.236476    3.014393
  29 H     1.0000    0     1.008   -2.469120   -7.236476    3.014393
  30 H     1.0000    0     1.008    2.469120   -7.236476    3.014393
  31 H     1.0000    0     1.008    2.469120    7.236476    3.014393
  32 H     1.0000    0     1.008    0.000000    5.879932   -0.707096
  33 H     1.0000    0     1.008    0.000000   -5.879932   -0.707096

--------------------------------
INTERNAL COORDINATES (ANGSTROEM)
--------------------------------
 C      0   0   0     0.000000000000     0.00000000     0.00000000
 C      1   0   0     1.373474000000     0.00000000     0.00000000
 C      1   2   0     2.216085656556    71.94755578     0.00000000
 N      3   1   2     1.334983641317    36.56939786   180.00000000
 N      3   1   2     1.334983641317    72.67428629     0.00000000
 H      3   1   2     1.075380000000   161.94755578   180.00000000
 C      1   2   3     1.492170576716   130.12820071   180.00000085
 C      2   1   3     1.492170576716   130.12820071   180.00000085
 H      7   1   2     1.093341909751   111.80796859   119.26087928
 H      8   2   1     1.093341909751   111.80796859   240.73912072
 H      8   2   1     1.093341909751   111.80796859   119.26087928
 H      7   1   2     1.093341909751   111.80796859   240.73912072
 H      7   1   2     1.088911437799   109.99959443     0.00000000
 H      8   2   1     1.088911437799   109.99959443     0.00000000
 C      4   3   1     2.485375983224   104.46646042   147.88904996
 C      5   3   1     2.485375983224   104.46646042   212.11095004
 C      5   3   1     2.485375983224   104.46646042   147.88904996
 C      4   3   1     2.485375983224   104.46646042   212.11095004
 C      4   3   1     1.495892432064   124.63628455   180.00000000
 C      5   3   1     1.495892432064   124.63628455   180.00000000
 H     15   4   3     1.091697932608    90.08324985   261.01145390
 H     16   5   3     1.091697932608    90.08324985    98.98854610
 H     17   5   3     1.091697932608    90.08324985   261.01145390
 H     18   4   3     1.091697932608    90.08324985    98.98854610
 H     15   4   3     1.093220417363    95.54275727     9.74109714
 H     16   5   3     1.093220417363    95.54275727   350.25890286
 H     17   5   3     1.093220417363    95.54275727     9.74109714
 H     18   4   3     1.093220417363    95.54275727   350.25890286
 H     15   4   3     1.091477606699   143.42625964   139.44091695
 H     16   5   3     1.091477606699   143.42625964   220.55908305
 H     17   5   3     1.091477606699   143.42625964   139.44091695
 H     18   4   3     1.091477606699   143.42625964   220.55908305
 H     19   4   3     1.089363806178   104.52839122   180.00000000
 H     20   5   3     1.089363806178   104.52839122   180.00000000

---------------------------
INTERNAL COORDINATES (A.U.)
---------------------------
 C      0   0   0     0.000000000000     0.00000000     0.00000000
 C      1   0   0     2.595489712061     0.00000000     0.00000000
 C      1   2   0     4.187794980202    71.94755578     0.00000000
 N      3   1   2     2.522753475355    36.56939786   180.00000000
 N      3   1   2     2.522753475355    72.67428629     0.00000000
 H      3   1   2     2.032173689896   161.94755578   180.00000000
 C      1   2   3     2.819793735088   130.12820071   180.00000085
 C      2   1   3     2.819793735088   130.12820071   180.00000085
 H      7   1   2     2.066116780169   111.80796859   119.26087928
 H      8   2   1     2.066116780169   111.80796859   240.73912072
 H      8   2   1     2.066116780169   111.80796859   119.26087928
 H      7   1   2     2.066116780169   111.80796859   240.73912072
 H      7   1   2     2.057744401535   109.99959443     0.00000000
 H      8   2   1     2.057744401535   109.99959443     0.00000000
 C      4   3   1     4.696679948120   104.46646042   147.88904996
 C      5   3   1     4.696679948120   104.46646042   212.11095004
 C      5   3   1     4.696679948120   104.46646042   147.88904996
 C      4   3   1     4.696679948120   104.46646042   212.11095004
 C      4   3   1     2.826827022406   124.63628455   180.00000000
 C      5   3   1     2.826827022406   124.63628455   180.00000000
 H     15   4   3     2.063010113598    90.08324985   261.01145390
 H     16   5   3     2.063010113598    90.08324985    98.98854610
 H     17   5   3     2.063010113598    90.08324985   261.01145390
 H     18   4   3     2.063010113598    90.08324985    98.98854610
 H     15   4   3     2.065887192827    95.54275727     9.74109714
 H     16   5   3     2.065887192827    95.54275727   350.25890286
 H     17   5   3     2.065887192827    95.54275727     9.74109714
 H     18   4   3     2.065887192827    95.54275727   350.25890286
 H     15   4   3     2.062593757969   143.42625964   139.44091695
 H     16   5   3     2.062593757969   143.42625964   220.55908305
 H     17   5   3     2.062593757969   143.42625964   139.44091695
 H     18   4   3     2.062593757969   143.42625964   220.55908305
 H     19   4   3     2.058599253882   104.52839122   180.00000000
 H     20   5   3     2.058599253882   104.52839122   180.00000000

---------------------
BASIS SET INFORMATION
---------------------
There are 3 groups of distinct atoms

 Group   1 Type C   : 7s4p1d contracted to 3s2p1d pattern {511/31/1}
 Group   2 Type N   : 7s4p1d contracted to 3s2p1d pattern {511/31/1}
 Group   3 Type H   : 4s1p contracted to 2s1p pattern {31/1}

Atom   0C    basis set group =>   1
Atom   1C    basis set group =>   1
Atom   2C    basis set group =>   1
Atom   3N    basis set group =>   2
Atom   4N    basis set group =>   2
Atom   5H    basis set group =>   3
Atom   6C    basis set group =>   1
Atom   7C    basis set group =>   1
Atom   8H    basis set group =>   3
Atom   9H    basis set group =>   3
Atom  10H    basis set group =>   3
Atom  11H    basis set group =>   3
Atom  12H    basis set group =>   3
Atom  13H    basis set group =>   3
Atom  14C    basis set group =>   1
Atom  15C    basis set group =>   1
Atom  16C    basis set group =>   1
Atom  17C    basis set group =>   1
Atom  18C    basis set group =>   1
Atom  19C    basis set group =>   1
Atom  20H    basis set group =>   3
Atom  21H    basis set group =>   3
Atom  22H    basis set group =>   3
Atom  23H    basis set group =>   3
Atom  24H    basis set group =>   3
Atom  25H    basis set group =>   3
Atom  26H    basis set group =>   3
Atom  27H    basis set group =>   3
Atom  28H    basis set group =>   3
Atom  29H    basis set group =>   3
Atom  30H    basis set group =>   3
Atom  31H    basis set group =>   3
Atom  32H    basis set group =>   3
Atom  33H    basis set group =>   3
---------------------------------
AUXILIARY/J BASIS SET INFORMATION
---------------------------------
There are 3 groups of distinct atoms

 Group   1 Type C   : 12s5p4d2f1g contracted to 6s4p3d1f1g pattern {711111/2111/211/2/1}
 Group   2 Type N   : 12s5p4d2f1g contracted to 6s4p3d1f1g pattern {711111/2111/211/2/1}
 Group   3 Type H   : 5s2p1d contracted to 3s1p1d pattern {311/2/1}

Atom   0C    basis set group =>   1
Atom   1C    basis set group =>   1
Atom   2C    basis set group =>   1
Atom   3N    basis set group =>   2
Atom   4N    basis set group =>   2
Atom   5H    basis set group =>   3
Atom   6C    basis set group =>   1
Atom   7C    basis set group =>   1
Atom   8H    basis set group =>   3
Atom   9H    basis set group =>   3
Atom  10H    basis set group =>   3
Atom  11H    basis set group =>   3
Atom  12H    basis set group =>   3
Atom  13H    basis set group =>   3
Atom  14C    basis set group =>   1
Atom  15C    basis set group =>   1
Atom  16C    basis set group =>   1
Atom  17C    basis set group =>   1
Atom  18C    basis set group =>   1
Atom  19C    basis set group =>   1
Atom  20H    basis set group =>   3
Atom  21H    basis set group =>   3
Atom  22H    basis set group =>   3
Atom  23H    basis set group =>   3
Atom  24H    basis set group =>   3
Atom  25H    basis set group =>   3
Atom  26H    basis set group =>   3
Atom  27H    basis set group =>   3
Atom  28H    basis set group =>   3
Atom  29H    basis set group =>   3
Atom  30H    basis set group =>   3
Atom  31H    basis set group =>   3
Atom  32H    basis set group =>   3
Atom  33H    basis set group =>   3


           ************************************************************
           *        Program running with 4 parallel MPI-processes     *
           *              working on a common directory               *
           ************************************************************
------------------------------------------------------------------------------
                           ORCA GTO INTEGRAL CALCULATION
                           -- RI-GTO INTEGRALS CHOSEN --
------------------------------------------------------------------------------
------------------------------------------------------------------------------
                   ___                                                        
                  /   \      - P O W E R E D   B Y -                         
                 /     \                                                     
                 |  |  |   _    _      __       _____    __    __             
                 |  |  |  | |  | |    /  \     |  _  \  |  |  /  |          
                  \  \/   | |  | |   /    \    | | | |  |  | /  /          
                 / \  \   | |__| |  /  /\  \   | |_| |  |  |/  /          
                |  |  |   |  __  | /  /__\  \  |    /   |      \           
                |  |  |   | |  | | |   __   |  |    \   |  |\   \          
                \     /   | |  | | |  |  |  |  | |\  \  |  | \   \       
                 \___/    |_|  |_| |__|  |__|  |_| \__\ |__|  \__/        
                                                                              
                      - O R C A' S   B I G   F R I E N D -                    
                                      &                                       
                       - I N T E G R A L  F E E D E R -                       
                                                                              
 v1 FN, 2020, v2 2021                                                         
------------------------------------------------------------------------------


Reading SHARK input file iPrMe+_Water.SHARKINP.tmp ... ok
----------------------
SHARK INTEGRAL PACKAGE
----------------------

Number of atoms                             ...     34
Number of basis functions                   ...    287
Number of shells                            ...    141
Maximum angular momentum                    ...      2
Integral batch strategy                     ... SHARK/LIBINT Hybrid
RI-J (if used) integral strategy            ... SPLIT-RIJ (Revised 2003 algorithm where possible)
Printlevel                                  ...      1
Contraction scheme used                     ... SEGMENTED contraction
Coulomb Range Separation                    ... NOT USED
Exchange Range Separation                   ... Long Range
   Mu parameter                             ...  0.300000
   Scaling (regular/separated)              ...  0.157706  0.842294
Finite Nucleus Model                        ... NOT USED
Auxiliary Coulomb fitting basis             ... AVAILABLE
   # of basis functions in Aux-J            ...    868
   # of shells in Aux-J                     ...    300
   Maximum angular momentum in Aux-J        ...      4
Auxiliary J/K fitting basis                 ... NOT available
Auxiliary Correlation fitting basis         ... NOT available
Auxiliary 'external' fitting basis          ... NOT available
Integral threshold                          ...     2.500000e-11
Primitive cut-off                           ...     2.500000e-12
Primitive pair pre-selection threshold      ...     2.500000e-12

Calculating pre-screening integrals         ... done (  0.0 sec) Dimension = 141
Organizing shell pair data                  ... done (  0.1 sec)
Shell pair information
Total number of shell pairs                 ...     10011
Shell pairs after pre-screening             ...      8597
Total number of primitive shell pairs       ...     34423
Primitive shell pairs kept                  ...     20455
          la=0 lb=0:   2957 shell pairs
          la=1 lb=0:   3263 shell pairs
          la=1 lb=1:    919 shell pairs
          la=2 lb=0:    893 shell pairs
          la=2 lb=1:    489 shell pairs
          la=2 lb=2:     76 shell pairs

Calculating one electron integrals          ... done (  0.0 sec)
Calculating RI/J V-Matrix + Cholesky decomp.... done (  0.1 sec)
Calculating Nuclear repulsion               ... done (  0.0 sec) ENN=    866.772483433464 Eh

SHARK setup successfully completed in   0.4 seconds

Maximum memory used throughout the entire GTOINT-calculation: 16.7 MB


           ************************************************************
           *        Program running with 4 parallel MPI-processes     *
           *              working on a common directory               *
           ************************************************************
-------------------------------------------------------------------------------
                                 ORCA SCF
-------------------------------------------------------------------------------

------------
SCF SETTINGS
------------
Hamiltonian:
 Density Functional     Method          .... DFT(GTOs)
 Exchange Functional    Exchange        .... WB97X
 Correlation Functional Correlation     .... WB97X
 Gradients option       PostSCFGGA      .... off
 Hybrid DFT is turned on
   Fraction HF Exchange ScalHFX         ....  0.157706
   Scaling of DF-GGA-X  ScalDFX         ....  0.000000
   Scaling of DF-GGA-C  ScalDFC         ....  1.000000
   Scaling of DF-LDA-C  ScalLDAC        ....  1.000000
   Perturbative correction              ....  0.000000
   Density functional embedding theory  .... OFF
 Long-range corrected/Screened/Range-Separated Hybrid DFT is turned on
   Amount of maximum screened exact exchange              ....  0.842294
   Range separation parameter mu (erf(mu*r12)/r12)        ....  0.300000
 RI-approximation to the Coulomb term is turned on
   Number of AuxJ basis functions       .... 868
   RIJ-COSX (HFX calculated with COS-X)).... on


General Settings:
 Integral files         IntName         .... iPrMe+_Water
 Hartree-Fock type      HFTyp           .... RHF
 Total Charge           Charge          ....    1
 Multiplicity           Mult            ....    1
 Number of Electrons    NEL             ....  100
 Basis Dimension        Dim             ....  287
 Nuclear Repulsion      ENuc            ....    866.7724834335 Eh

Convergence Acceleration:
 DIIS                   CNVDIIS         .... on
   Start iteration      DIISMaxIt       ....     0
   Startup error        DIISStart       ....  0.200000
   # of expansion vecs  DIISMaxEq       ....     5
   Bias factor          DIISBfac        ....   1.050
   Max. coefficient     DIISMaxC        ....  10.000
 Trust-Rad. Augm. Hess. CNVTRAH         .... auto
   Auto Start mean grad. ratio tolernc. ....  1.125000
   Auto Start start iteration           ....    20
   Auto Start num. interpolation iter.  ....    10
   Max. Number of Micro iterations      ....    16
   Max. Number of Macro iterations      .... Maxiter - #DIIS iter
   Number of Davidson start vectors     ....     2
   Converg. threshold I  (grad. norm)   ....   1.000e-05
   Converg. threshold II (energy diff.) ....   1.000e-08
   Grad. Scal. Fac. for Micro threshold ....   0.100
   Minimum threshold for Micro iter.    ....   0.010
   NR start threshold (gradient norm)   ....   0.001
   Initial trust radius                 ....   0.400
   Minimum AH scaling param. (alpha)    ....   1.000
   Maximum AH scaling param. (alpha)    .... 1000.000
   Orbital update algorithm             .... Taylor
   White noise on init. David. guess    .... on
   Maximum white noise                  ....   0.010
   Quad. conv. algorithm                .... NR
 SOSCF                  CNVSOSCF        .... on
   Start iteration      SOSCFMaxIt      ....   150
   Startup grad/error   SOSCFStart      ....  0.001000
 Level Shifting         CNVShift        .... on
   Level shift para.    LevelShift      ....    0.2500
   Turn off err/grad.   ShiftErr        ....    0.0000
 Zerner damping         CNVZerner       .... off
 Static damping         CNVDamp         .... on
   Fraction old density DampFac         ....    0.8500
   Max. Damping (<1)    DampMax         ....    0.9800
   Min. Damping (>=0)   DampMin         ....    0.0000
   Turn off err/grad.   DampErr         ....    0.0300
 Fernandez-Rico         CNVRico         .... off

SCF Procedure:
 Maximum # iterations   MaxIter         ....   125
 SCF integral mode      SCFMode         .... Direct
   Integral package                     .... SHARK and LIBINT hybrid scheme
 Reset frequency        DirectResetFreq ....    20
 Integral Threshold     Thresh          ....  2.500e-11 Eh
 Primitive CutOff       TCut            ....  2.500e-12 Eh

Convergence Tolerance:
 Convergence Check Mode ConvCheckMode   .... Total+1el-Energy
 Convergence forced     ConvForced      .... 0
 Energy Change          TolE            ....  1.000e-08 Eh
 1-El. energy change                    ....  1.000e-05 Eh
 Orbital Gradient       TolG            ....  1.000e-05
 Orbital Rotation angle TolX            ....  1.000e-05
 DIIS Error             TolErr          ....  5.000e-07


Diagonalization of the overlap matrix:
Smallest eigenvalue                        ... 9.200e-04
Time for diagonalization                   ...    0.013 sec
Threshold for overlap eigenvalues          ... 1.000e-08
Number of eigenvalues below threshold      ... 0
Time for construction of square roots      ...    0.007 sec
Total time needed                          ...    0.021 sec

Time for model grid setup =    0.248 sec

------------------------------
INITIAL GUESS: MODEL POTENTIAL
------------------------------
Loading Hartree-Fock densities                     ... done
Calculating cut-offs                               ... done
Initializing the effective Hamiltonian             ... done
Setting up the integral package (SHARK)            ... done
Starting the Coulomb interaction                   ... done (   0.2 sec)
Reading the grid                                   ... done
Mapping shells                                     ... done
Starting the XC term evaluation                    ... done (   0.2 sec)
  promolecular density results
     # of electrons  =    100.982171781
     EX              =    -75.620087451
     EC              =     -3.339042521
     EX+EC           =    -78.959129972
Transforming the Hamiltonian                       ... done (   0.0 sec)
Diagonalizing the Hamiltonian                      ... done (   0.0 sec)
Back transforming the eigenvectors                 ... done (   0.0 sec)
Now organizing SCF variables                       ... done
                      ------------------
                      INITIAL GUESS DONE (   0.7 sec)
                      ------------------
-------------------
DFT GRID GENERATION
-------------------

General Integration Accuracy     IntAcc      ... 4.388
Radial Grid Type                 RadialGrid  ... OptM3 with GC (2021)
Angular Grid (max. ang.)         AngularGrid ... 4 (Lebedev-302)
Angular grid pruning method      GridPruning ... 4 (adaptive)
Weight generation scheme         WeightScheme... Becke
Basis function cutoff            BFCut       ... 1.0000e-11
Integration weight cutoff        WCut        ... 1.0000e-14
Angular grids for H and He will be reduced by one unit
Partially contracted basis set               ... off
Rotationally invariant grid construction     ... off

Total number of grid points                  ...   144369
Total number of batches                      ...     2275
Average number of points per batch           ...       63
Average number of grid points per atom       ...     4246
Time for grid setup =    1.089 sec

--------------------
COSX GRID GENERATION
--------------------

GRIDX 1
-------
General Integration Accuracy     IntAcc      ... 3.816
Radial Grid Type                 RadialGrid  ... OptM3 with GC (2021)
Angular Grid (max. ang.)         AngularGrid ... 1 (Lebedev-50)
Angular grid pruning method      GridPruning ... 4 (adaptive)
Weight generation scheme         WeightScheme... Becke
Basis function cutoff            BFCut       ... 1.0000e-11
Integration weight cutoff        WCut        ... 1.0000e-14
Angular grids for H and He will be reduced by one unit
Partially contracted basis set               ... on
Rotationally invariant grid construction     ... off

Total number of grid points                  ...    18464
Total number of batches                      ...      308
Average number of points per batch           ...       59
Average number of grid points per atom       ...      543
UseSFitting                                  ... on

GRIDX 2
-------
General Integration Accuracy     IntAcc      ... 4.020
Radial Grid Type                 RadialGrid  ... OptM3 with GC (2021)
Angular Grid (max. ang.)         AngularGrid ... 2 (Lebedev-110)
Angular grid pruning method      GridPruning ... 4 (adaptive)
Weight generation scheme         WeightScheme... Becke
Basis function cutoff            BFCut       ... 1.0000e-11
Integration weight cutoff        WCut        ... 1.0000e-14
Angular grids for H and He will be reduced by one unit
Partially contracted basis set               ... on
Rotationally invariant grid construction     ... off

Total number of grid points                  ...    38280
Total number of batches                      ...      619
Average number of points per batch           ...       61
Average number of grid points per atom       ...     1126
UseSFitting                                  ... on

GRIDX 3
-------
General Integration Accuracy     IntAcc      ... 4.338
Radial Grid Type                 RadialGrid  ... OptM3 with GC (2021)
Angular Grid (max. ang.)         AngularGrid ... 3 (Lebedev-194)
Angular grid pruning method      GridPruning ... 4 (adaptive)
Weight generation scheme         WeightScheme... Becke
Basis function cutoff            BFCut       ... 1.0000e-11
Integration weight cutoff        WCut        ... 1.0000e-14
Angular grids for H and He will be reduced by one unit
Partially contracted basis set               ... on
Rotationally invariant grid construction     ... off

Total number of grid points                  ...    83206
Total number of batches                      ...     1318
Average number of points per batch           ...       63
Average number of grid points per atom       ...     2447
UseSFitting                                  ... on

Time for X-Grid setup             =    1.186 sec


--------------------
CPCM SOLVATION MODEL
--------------------
CPCM parameters:
  Epsilon                                         ...      80.4000
  Refrac                                          ...       1.3300
  Rsolv                                           ...       1.3000
  Surface type                                    ... GAUSSIAN VDW
  Epsilon function type                           ...         CPCM
Radii:
 Radius for C  used is    3.8550 Bohr (=   2.0400 Ang.)
 Radius for N  used is    3.5149 Bohr (=   1.8600 Ang.)
 Radius for H  used is    2.4944 Bohr (=   1.3200 Ang.)
Calculating surface                               ...        done! (  0.0s)
GEPOL surface points                              ...         1797
GEPOL Volume                                      ...    1723.8403
GEPOL Surface-area                                ...     946.3572
Calculating surface distance matrix               ...        done! (  0.0s)
Performing Cholesky decomposition & store         ...        done! (  0.1s)
Overall time for CPCM initialization              ...                 0.2s
--------------
SCF ITERATIONS
--------------
ITER       Energy         Delta-E        Max-DP      RMS-DP      [F,P]     Damp
               ***  Starting incremental Fock matrix formation  ***
  0   -540.4249394351   0.000000000000 0.03293429  0.00061829  0.1488699 0.8500
  1   -540.4816115921  -0.056672157031 0.02964951  0.00057672  0.1198832 0.8500
                               ***Turning on DIIS***
  2   -540.5246395866  -0.043027994496 0.02321318  0.00047030  0.0919918 0.8500
  3   -540.5565542243  -0.031914637635 0.01448483  0.00033724  0.0696923 0.8500
  4   -540.5811101790  -0.024555954717 0.00970166  0.00026012  0.0554686 0.8500
  5   -540.6004006568  -0.019290477785 0.00736490  0.00021418  0.0458551 0.8500
  6   -540.6160438743  -0.015643217494 0.00596343  0.00018101  0.0385583 0.8500
  7   -540.6289638528  -0.012919978534 0.00508426  0.00015579  0.0326455 0.8500
  8   -540.6397525509  -0.010788698116 0.02888144  0.00089337  0.0275986 0.0000
  9   -540.6975507088  -0.057798157838 0.00136828  0.00003003  0.0011929 0.0000
                      *** Initiating the SOSCF procedure ***
                           *** Shutting down DIIS ***
                      *** Re-Reading the Fockian *** 
                      *** Removing any level shift *** 
ITER      Energy       Delta-E        Grad      Rot      Max-DP    RMS-DP
 10   -540.69757225  -0.0000215382  0.000163  0.000163  0.000526  0.000013
               *** Restarting incremental Fock matrix formation ***
 11   -540.69758380  -0.0000115520  0.000095  0.000151  0.000351  0.000010
 12   -540.69758423  -0.0000004291  0.000038  0.000107  0.000186  0.000005
 13   -540.69758427  -0.0000000449  0.000015  0.000019  0.000051  0.000001
 14   -540.69758430  -0.0000000229  0.000004  0.000006  0.000008  0.000000
                  ***Gradient check signals convergence***
              ***Rediagonalizing the Fockian in SOSCF/NRSCF***

               *****************************************************
               *                     SUCCESS                       *
               *           SCF CONVERGED AFTER  15 CYCLES          *
               *****************************************************

Old exchange energy                            =    -25.354284009 Eh
New exchange energy                            =    -25.354337120 Eh
Exchange energy change after final integration =     -0.000053111 Eh
Total energy after final integration           =   -540.697637406 Eh
Final COS-X integration done in                =    23.797 sec

----------------
TOTAL SCF ENERGY
----------------

Total Energy       :         -540.69763741 Eh          -14713.13071 eV

Components:
Nuclear Repulsion  :          866.77248343 Eh           23586.07837 eV
Electronic Energy  :        -1407.47012084 Eh          -38299.20908 eV
One Electron Energy:        -2432.04072234 Eh          -66179.19254 eV
Two Electron Energy:         1024.57060150 Eh           27879.98346 eV
Max COSX asymmetry :            0.00000206 Eh               0.00006 eV
CPCM Dielectric    :           -0.07319403 Eh              -1.99171 eV

Virial components:
Potential Energy   :        -1074.61651316 Eh          -29241.80195 eV
Kinetic Energy     :          533.91887575 Eh           14528.67123 eV
Virial Ratio       :            2.01269624


DFT components:
N(Alpha)           :       50.000197887625 electrons
N(Beta)            :       50.000197887625 electrons
N(Total)           :      100.000395775250 electrons
E(XC)              :      -55.570430838544 Eh       
DFET-embed. en.    :        0.000000000000 Eh       
CPCM Solvation Model Properties:
Surface-charge          :           -1.02424308
Charge-correction       :            0.00314003 Eh               0.08544 eV
Free-energy (cav+disp)  :  This term is not implemented in the current solvation scheme

---------------
SCF CONVERGENCE
---------------

  Last Energy change         ...    1.0085e-09  Tolerance :   1.0000e-08
  Last MAX-Density change    ...    5.3291e-15  Tolerance :   1.0000e-07
  Last RMS-Density change    ...    3.8636e-17  Tolerance :   5.0000e-09
  Last Orbital Gradient      ...    2.2560e-06  Tolerance :   1.0000e-05
  Last Orbital Rotation      ...    3.4396e-06  Tolerance :   1.0000e-05

             **** THE GBW FILE WAS UPDATED (iPrMe+_Water.gbw) ****
             **** DENSITY iPrMe+_Water.scfp WAS UPDATED ****
             **** ENERGY FILE WAS UPDATED (iPrMe+_Water.en.tmp) ****
             **** THE GBW FILE WAS UPDATED (iPrMe+_Water.gbw) ****
             **** DENSITY iPrMe+_Water.scfp WAS UPDATED ****
----------------
ORBITAL ENERGIES
----------------

  NO   OCC          E(Eh)            E(eV) 
   0   2.0000     -14.501659      -394.6102 
   1   2.0000     -14.501640      -394.6097 
   2   2.0000     -10.375961      -282.3442 
   3   2.0000     -10.336952      -281.2828 
   4   2.0000     -10.336928      -281.2821 
   5   2.0000     -10.333208      -281.1809 
   6   2.0000     -10.332734      -281.1680 
   7   2.0000     -10.284621      -279.8588 
   8   2.0000     -10.284563      -279.8572 
   9   2.0000     -10.272366      -279.5253 
  10   2.0000     -10.272364      -279.5252 
  11   2.0000     -10.272363      -279.5252 
  12   2.0000     -10.272355      -279.5250 
  13   2.0000      -1.202268       -32.7154 
  14   2.0000      -1.084783       -29.5184 
  15   2.0000      -0.964426       -26.2434 
  16   2.0000      -0.936380       -25.4802 
  17   2.0000      -0.914528       -24.8856 
  18   2.0000      -0.865661       -23.5558 
  19   2.0000      -0.825601       -22.4658 
  20   2.0000      -0.822368       -22.3778 
  21   2.0000      -0.821618       -22.3574 
  22   2.0000      -0.803285       -21.8585 
  23   2.0000      -0.732274       -19.9262 
  24   2.0000      -0.727745       -19.8030 
  25   2.0000      -0.695502       -18.9256 
  26   2.0000      -0.647556       -17.6209 
  27   2.0000      -0.625373       -17.0173 
  28   2.0000      -0.611694       -16.6450 
  29   2.0000      -0.595580       -16.2066 
  30   2.0000      -0.574341       -15.6286 
  31   2.0000      -0.566235       -15.4080 
  32   2.0000      -0.558268       -15.1912 
  33   2.0000      -0.542179       -14.7534 
  34   2.0000      -0.537911       -14.6373 
  35   2.0000      -0.534653       -14.5486 
  36   2.0000      -0.525042       -14.2871 
  37   2.0000      -0.518384       -14.1059 
  38   2.0000      -0.515195       -14.0192 
  39   2.0000      -0.505040       -13.7428 
  40   2.0000      -0.502511       -13.6740 
  41   2.0000      -0.493971       -13.4416 
  42   2.0000      -0.489770       -13.3273 
  43   2.0000      -0.481789       -13.1101 
  44   2.0000      -0.471841       -12.8394 
  45   2.0000      -0.462130       -12.5752 
  46   2.0000      -0.457384       -12.4461 
  47   2.0000      -0.455064       -12.3829 
  48   2.0000      -0.405922       -11.0457 
  49   2.0000      -0.346765        -9.4360 
  50   0.0000       0.059969         1.6318 
  51   0.0000       0.108498         2.9524 
  52   0.0000       0.130463         3.5501 
  53   0.0000       0.145175         3.9504 
  54   0.0000       0.146784         3.9942 
  55   0.0000       0.181057         4.9268 
  56   0.0000       0.181082         4.9275 
  57   0.0000       0.185799         5.0558 
  58   0.0000       0.185976         5.0607 
  59   0.0000       0.195527         5.3206 
  60   0.0000       0.203863         5.5474 
  61   0.0000       0.216785         5.8990 
  62   0.0000       0.224247         6.1021 
  63   0.0000       0.224798         6.1171 
  64   0.0000       0.227899         6.2014 
  65   0.0000       0.230854         6.2819 
  66   0.0000       0.235175         6.3994 
  67   0.0000       0.242055         6.5866 
  68   0.0000       0.253475         6.8974 
  69   0.0000       0.262680         7.1479 
  70   0.0000       0.263747         7.1769 
  71   0.0000       0.267560         7.2807 
  72   0.0000       0.272241         7.4081 
  73   0.0000       0.275535         7.4977 
  74   0.0000       0.278270         7.5721 
  75   0.0000       0.283821         7.7231 
  76   0.0000       0.286680         7.8010 
  77   0.0000       0.314084         8.5467 
  78   0.0000       0.322234         8.7684 
  79   0.0000       0.331244         9.0136 
  80   0.0000       0.337222         9.1763 
  81   0.0000       0.347643         9.4599 
  82   0.0000       0.356503         9.7009 
  83   0.0000       0.356641         9.7047 
  84   0.0000       0.429955        11.6997 
  85   0.0000       0.455267        12.3884 
  86   0.0000       0.462683        12.5902 
  87   0.0000       0.482954        13.1418 
  88   0.0000       0.487425        13.2635 
  89   0.0000       0.491389        13.3714 
  90   0.0000       0.497264        13.5312 
  91   0.0000       0.507845        13.8192 
  92   0.0000       0.525525        14.3003 
  93   0.0000       0.526092        14.3157 
  94   0.0000       0.555886        15.1264 
  95   0.0000       0.556540        15.1442 
  96   0.0000       0.559543        15.2259 
  97   0.0000       0.587787        15.9945 
  98   0.0000       0.590232        16.0610 
  99   0.0000       0.631364        17.1803 
 100   0.0000       0.649108        17.6631 
 101   0.0000       0.652155        17.7460 
 102   0.0000       0.663134        18.0448 
 103   0.0000       0.669509        18.2183 
 104   0.0000       0.678655        18.4671 
 105   0.0000       0.682720        18.5777 
 106   0.0000       0.684900        18.6371 
 107   0.0000       0.693135        18.8612 
 108   0.0000       0.700444        19.0601 
 109   0.0000       0.723800        19.6956 
 110   0.0000       0.732815        19.9409 
 111   0.0000       0.738375        20.0922 
 112   0.0000       0.741272        20.1710 
 113   0.0000       0.747543        20.3417 
 114   0.0000       0.751583        20.4516 
 115   0.0000       0.754757        20.5380 
 116   0.0000       0.760390        20.6913 
 117   0.0000       0.762987        20.7619 
 118   0.0000       0.768454        20.9107 
 119   0.0000       0.783814        21.3287 
 120   0.0000       0.785333        21.3700 
 121   0.0000       0.786995        21.4152 
 122   0.0000       0.790211        21.5027 
 123   0.0000       0.790948        21.5228 
 124   0.0000       0.794334        21.6149 
 125   0.0000       0.798498        21.7282 
 126   0.0000       0.798747        21.7350 
 127   0.0000       0.803406        21.8618 
 128   0.0000       0.806536        21.9470 
 129   0.0000       0.816867        22.2281 
 130   0.0000       0.820919        22.3383 
 131   0.0000       0.826046        22.4779 
 132   0.0000       0.830462        22.5980 
 133   0.0000       0.834047        22.6956 
 134   0.0000       0.839768        22.8512 
 135   0.0000       0.852725        23.2038 
 136   0.0000       0.857470        23.3330 
 137   0.0000       0.863828        23.5060 
 138   0.0000       0.865461        23.5504 
 139   0.0000       0.868082        23.6217 
 140   0.0000       0.941688        25.6246 
 141   0.0000       0.956779        26.0353 
 142   0.0000       1.010339        27.4927 
 143   0.0000       1.015922        27.6446 
 144   0.0000       1.020353        27.7652 
 145   0.0000       1.037810        28.2402 
 146   0.0000       1.090665        29.6785 
 147   0.0000       1.125415        30.6241 
 148   0.0000       1.149420        31.2773 
 149   0.0000       1.162593        31.6358 
 150   0.0000       1.166162        31.7329 
 151   0.0000       1.172320        31.9004 
 152   0.0000       1.197064        32.5738 
 153   0.0000       1.213806        33.0294 
 154   0.0000       1.230699        33.4890 
 155   0.0000       1.243164        33.8282 
 156   0.0000       1.252642        34.0861 
 157   0.0000       1.253665        34.1140 
 158   0.0000       1.314529        35.7701 
 159   0.0000       1.322084        35.9757 
 160   0.0000       1.381446        37.5911 
 161   0.0000       1.388065        37.7712 
 162   0.0000       1.398368        38.0515 
 163   0.0000       1.414997        38.5040 
 164   0.0000       1.428669        38.8761 
 165   0.0000       1.493207        40.6322 
 166   0.0000       1.498641        40.7801 
 167   0.0000       1.509392        41.0727 
 168   0.0000       1.516693        41.2713 
 169   0.0000       1.607255        43.7356 
 170   0.0000       1.628908        44.3249 
 171   0.0000       1.630715        44.3740 
 172   0.0000       1.633312        44.4447 
 173   0.0000       1.644695        44.7544 
 174   0.0000       1.645484        44.7759 
 175   0.0000       1.648500        44.8580 
 176   0.0000       1.649756        44.8922 
 177   0.0000       1.651002        44.9260 
 178   0.0000       1.653935        45.0059 
 179   0.0000       1.656594        45.0782 
 180   0.0000       1.659878        45.1676 
 181   0.0000       1.761225        47.9254 
 182   0.0000       1.783300        48.5261 
 183   0.0000       1.788901        48.6785 
 184   0.0000       1.802541        49.0496 
 185   0.0000       1.803753        49.0826 
 186   0.0000       1.820957        49.5508 
 187   0.0000       1.832241        49.8578 
 188   0.0000       1.851533        50.3828 
 189   0.0000       1.851655        50.3861 
 190   0.0000       1.863324        50.7036 
 191   0.0000       1.864302        50.7302 
 192   0.0000       1.871235        50.9189 
 193   0.0000       1.888890        51.3993 
 194   0.0000       1.890554        51.4446 
 195   0.0000       1.895441        51.5776 
 196   0.0000       1.906063        51.8666 
 197   0.0000       1.907919        51.9171 
 198   0.0000       1.915052        52.1112 
 199   0.0000       1.923829        52.3501 
 200   0.0000       1.923936        52.3530 
 201   0.0000       1.936239        52.6877 
 202   0.0000       1.941631        52.8345 
 203   0.0000       1.943161        52.8761 
 204   0.0000       1.956576        53.2411 
 205   0.0000       1.974406        53.7263 
 206   0.0000       1.979378        53.8616 
 207   0.0000       1.980562        53.8938 
 208   0.0000       1.987141        54.0729 
 209   0.0000       1.987661        54.0870 
 210   0.0000       1.990189        54.1558 
 211   0.0000       2.041808        55.5604 
 212   0.0000       2.041949        55.5643 
 213   0.0000       2.060360        56.0652 
 214   0.0000       2.062703        56.1290 
 215   0.0000       2.068248        56.2799 
 216   0.0000       2.071453        56.3671 
 217   0.0000       2.085616        56.7525 
 218   0.0000       2.099315        57.1253 
 219   0.0000       2.110043        57.4172 
 220   0.0000       2.138571        58.1935 
 221   0.0000       2.144506        58.3550 
 222   0.0000       2.163562        58.8735 
 223   0.0000       2.196328        59.7651 
 224   0.0000       2.231851        60.7318 
 225   0.0000       2.255952        61.3876 
 226   0.0000       2.264751        61.6270 
 227   0.0000       2.275949        61.9317 
 228   0.0000       2.281580        62.0850 
 229   0.0000       2.315647        63.0119 
 230   0.0000       2.316372        63.0317 
 231   0.0000       2.326951        63.3196 
 232   0.0000       2.365358        64.3647 
 233   0.0000       2.374439        64.6118 
 234   0.0000       2.414027        65.6890 
 235   0.0000       2.440832        66.4184 
 236   0.0000       2.480803        67.5061 
 237   0.0000       2.487408        67.6858 
 238   0.0000       2.505337        68.1737 
 239   0.0000       2.510385        68.3111 
 240   0.0000       2.518377        68.5285 
 241   0.0000       2.520443        68.5847 
 242   0.0000       2.540475        69.1298 
 243   0.0000       2.544095        69.2283 
 244   0.0000       2.564433        69.7818 
 245   0.0000       2.581767        70.2534 
 246   0.0000       2.594639        70.6037 
 247   0.0000       2.596388        70.6513 
 248   0.0000       2.609443        71.0066 
 249   0.0000       2.640665        71.8561 
 250   0.0000       2.665460        72.5309 
 251   0.0000       2.672831        72.7314 
 252   0.0000       2.676247        72.8244 
 253   0.0000       2.693028        73.2810 
 254   0.0000       2.704420        73.5910 
 255   0.0000       2.742005        74.6138 
 256   0.0000       2.793249        76.0082 
 257   0.0000       2.802740        76.2664 
 258   0.0000       2.803344        76.2829 
 259   0.0000       2.821803        76.7852 
 260   0.0000       2.824795        76.8666 
 261   0.0000       2.857097        77.7456 
 262   0.0000       2.900659        78.9310 
 263   0.0000       2.905101        79.0518 
 264   0.0000       2.935750        79.8858 
 265   0.0000       2.949144        80.2503 
 266   0.0000       2.973736        80.9195 
 267   0.0000       2.975900        80.9783 
 268   0.0000       3.018489        82.1373 
 269   0.0000       3.020715        82.1978 
 270   0.0000       3.024717        82.3067 
 271   0.0000       3.027447        82.3810 
 272   0.0000       3.029948        82.4491 
 273   0.0000       3.071778        83.5873 
 274   0.0000       3.074933        83.6732 
 275   0.0000       3.079653        83.8016 
 276   0.0000       3.095994        84.2463 
 277   0.0000       3.104693        84.4830 
 278   0.0000       3.135152        85.3118 
 279   0.0000       3.136194        85.3402 
 280   0.0000       3.155716        85.8714 
 281   0.0000       3.157543        85.9211 
 282   0.0000       3.194332        86.9222 
 283   0.0000       3.292070        89.5818 
 284   0.0000       3.412953        92.8712 
 285   0.0000       3.485231        94.8380 
 286   0.0000       3.572552        97.2141 

                    ********************************
                    * MULLIKEN POPULATION ANALYSIS *
                    ********************************

-----------------------
MULLIKEN ATOMIC CHARGES
-----------------------
   0 C :   -0.089928
   1 C :   -0.089925
   2 C :    0.220586
   3 N :   -0.206284
   4 N :   -0.206282
   5 H :    0.126749
   6 C :    0.081922
   7 C :    0.081922
   8 H :    0.074881
   9 H :    0.074881
  10 H :    0.074881
  11 H :    0.074881
  12 H :    0.049768
  13 H :    0.049766
  14 C :   -0.001176
  15 C :   -0.001174
  16 C :   -0.001175
  17 C :   -0.001175
  18 C :   -0.043310
  19 C :   -0.043311
  20 H :    0.053756
  21 H :    0.053756
  22 H :    0.053756
  23 H :    0.053756
  24 H :    0.047488
  25 H :    0.047488
  26 H :    0.047488
  27 H :    0.047488
  28 H :    0.058736
  29 H :    0.058736
  30 H :    0.058736
  31 H :    0.058737
  32 H :    0.066792
  33 H :    0.066792
Sum of atomic charges:    1.0000000

--------------------------------
MULLIKEN REDUCED ORBITAL CHARGES
--------------------------------
  0 C s       :     3.096533  s :     3.096533
      pz      :     0.886899  p :     2.936625
      px      :     1.051550
      py      :     0.998176
      dz2     :     0.018451  d :     0.056769
      dxz     :     0.009437
      dyz     :     0.013342
      dx2y2   :     0.005748
      dxy     :     0.009790
  1 C s       :     3.096528  s :     3.096528
      pz      :     0.886902  p :     2.936628
      px      :     1.051551
      py      :     0.998175
      dz2     :     0.018451  d :     0.056769
      dxz     :     0.009437
      dyz     :     0.013342
      dx2y2   :     0.005748
      dxy     :     0.009790
  2 C s       :     3.103695  s :     3.103695
      pz      :     0.903048  p :     2.609219
      px      :     0.935789
      py      :     0.770381
      dz2     :     0.012440  d :     0.066500
      dxz     :     0.006297
      dyz     :     0.021890
      dx2y2   :     0.009103
      dxy     :     0.016771
  3 N s       :     3.403645  s :     3.403645
      pz      :     1.144102  p :     3.771497
      px      :     1.465985
      py      :     1.161410
      dz2     :     0.005779  d :     0.031142
      dxz     :     0.006359
      dyz     :     0.010005
      dx2y2   :     0.004225
      dxy     :     0.004773
  4 N s       :     3.403644  s :     3.403644
      pz      :     1.144101  p :     3.771496
      px      :     1.465985
      py      :     1.161410
      dz2     :     0.005779  d :     0.031142
      dxz     :     0.006359
      dyz     :     0.010005
      dx2y2   :     0.004225
      dxy     :     0.004773
  5 H s       :     0.848323  s :     0.848323
      pz      :     0.019069  p :     0.024927
      px      :     0.004473
      py      :     0.001386
  6 C s       :     2.898008  s :     2.898008
      pz      :     0.963256  p :     2.993569
      px      :     1.042382
      py      :     0.987930
      dz2     :     0.005835  d :     0.026502
      dxz     :     0.001836
      dyz     :     0.008068
      dx2y2   :     0.002464
      dxy     :     0.008299
  7 C s       :     2.898006  s :     2.898006
      pz      :     0.963256  p :     2.993570
      px      :     1.042382
      py      :     0.987932
      dz2     :     0.005835  d :     0.026502
      dxz     :     0.001836
      dyz     :     0.008068
      dx2y2   :     0.002464
      dxy     :     0.008299
  8 H s       :     0.900396  s :     0.900396
      pz      :     0.004227  p :     0.024724
      px      :     0.012099
      py      :     0.008397
  9 H s       :     0.900396  s :     0.900396
      pz      :     0.004227  p :     0.024724
      px      :     0.012099
      py      :     0.008397
 10 H s       :     0.900396  s :     0.900396
      pz      :     0.004227  p :     0.024724
      px      :     0.012099
      py      :     0.008397
 11 H s       :     0.900396  s :     0.900396
      pz      :     0.004227  p :     0.024723
      px      :     0.012099
      py      :     0.008397
 12 H s       :     0.924995  s :     0.924995
      pz      :     0.012994  p :     0.025237
      px      :     0.005039
      py      :     0.007205
 13 H s       :     0.924996  s :     0.924996
      pz      :     0.012994  p :     0.025237
      px      :     0.005039
      py      :     0.007205
 14 C s       :     3.000872  s :     3.000872
      pz      :     1.002037  p :     2.974230
      px      :     0.944170
      py      :     1.028022
      dz2     :     0.004218  d :     0.026074
      dxz     :     0.007224
      dyz     :     0.005105
      dx2y2   :     0.007755
      dxy     :     0.001772
 15 C s       :     3.000869  s :     3.000869
      pz      :     1.002038  p :     2.974231
      px      :     0.944171
      py      :     1.028022
      dz2     :     0.004218  d :     0.026074
      dxz     :     0.007224
      dyz     :     0.005105
      dx2y2   :     0.007755
      dxy     :     0.001772
 16 C s       :     3.000871  s :     3.000871
      pz      :     1.002037  p :     2.974231
      px      :     0.944171
      py      :     1.028023
      dz2     :     0.004218  d :     0.026074
      dxz     :     0.007224
      dyz     :     0.005105
      dx2y2   :     0.007755
      dxy     :     0.001772
 17 C s       :     3.000871  s :     3.000871
      pz      :     1.002037  p :     2.974230
      px      :     0.944170
      py      :     1.028023
      dz2     :     0.004218  d :     0.026074
      dxz     :     0.007224
      dyz     :     0.005105
      dx2y2   :     0.007755
      dxy     :     0.001772
 18 C s       :     3.115702  s :     3.115702
      pz      :     1.048159  p :     2.873324
      px      :     1.046628
      py      :     0.778537
      dz2     :     0.008215  d :     0.054284
      dxz     :     0.009742
      dyz     :     0.011677
      dx2y2   :     0.016192
      dxy     :     0.008458
 19 C s       :     3.115702  s :     3.115702
      pz      :     1.048160  p :     2.873325
      px      :     1.046629
      py      :     0.778536
      dz2     :     0.008215  d :     0.054284
      dxz     :     0.009742
      dyz     :     0.011677
      dx2y2   :     0.016192
      dxy     :     0.008458
 20 H s       :     0.922222  s :     0.922222
      pz      :     0.007546  p :     0.024022
      px      :     0.011267
      py      :     0.005209
 21 H s       :     0.922222  s :     0.922222
      pz      :     0.007546  p :     0.024022
      px      :     0.011267
      py      :     0.005209
 22 H s       :     0.922222  s :     0.922222
      pz      :     0.007546  p :     0.024022
      px      :     0.011267
      py      :     0.005209
 23 H s       :     0.922222  s :     0.922222
      pz      :     0.007546  p :     0.024022
      px      :     0.011267
      py      :     0.005209
 24 H s       :     0.928276  s :     0.928276
      pz      :     0.012399  p :     0.024236
      px      :     0.003958
      py      :     0.007879
 25 H s       :     0.928276  s :     0.928276
      pz      :     0.012399  p :     0.024236
      px      :     0.003958
      py      :     0.007879
 26 H s       :     0.928276  s :     0.928276
      pz      :     0.012399  p :     0.024236
      px      :     0.003958
      py      :     0.007879
 27 H s       :     0.928276  s :     0.928276
      pz      :     0.012399  p :     0.024236
      px      :     0.003958
      py      :     0.007879
 28 H s       :     0.916797  s :     0.916797
      pz      :     0.005448  p :     0.024467
      px      :     0.004130
      py      :     0.014888
 29 H s       :     0.916798  s :     0.916798
      pz      :     0.005448  p :     0.024467
      px      :     0.004130
      py      :     0.014888
 30 H s       :     0.916797  s :     0.916797
      pz      :     0.005448  p :     0.024467
      px      :     0.004130
      py      :     0.014888
 31 H s       :     0.916797  s :     0.916797
      pz      :     0.005448  p :     0.024467
      px      :     0.004130
      py      :     0.014888
 32 H s       :     0.911511  s :     0.911511
      pz      :     0.011458  p :     0.021697
      px      :     0.003434
      py      :     0.006805
 33 H s       :     0.911511  s :     0.911511
      pz      :     0.011458  p :     0.021697
      px      :     0.003435
      py      :     0.006805


                     *******************************
                     * LOEWDIN POPULATION ANALYSIS *
                     *******************************

----------------------
LOEWDIN ATOMIC CHARGES
----------------------
   0 C :   -0.004934
   1 C :   -0.004934
   2 C :    0.124444
   3 N :    0.089540
   4 N :    0.089540
   5 H :    0.058309
   6 C :   -0.050598
   7 C :   -0.050598
   8 H :    0.051556
   9 H :    0.051555
  10 H :    0.051556
  11 H :    0.051556
  12 H :    0.051287
  13 H :    0.051287
  14 C :   -0.051599
  15 C :   -0.051599
  16 C :   -0.051599
  17 C :   -0.051599
  18 C :    0.050531
  19 C :    0.050531
  20 H :    0.036850
  21 H :    0.036850
  22 H :    0.036850
  23 H :    0.036850
  24 H :    0.034130
  25 H :    0.034130
  26 H :    0.034130
  27 H :    0.034130
  28 H :    0.043669
  29 H :    0.043669
  30 H :    0.043669
  31 H :    0.043669
  32 H :    0.043588
  33 H :    0.043588

-------------------------------
LOEWDIN REDUCED ORBITAL CHARGES
-------------------------------
  0 C s       :     2.844126  s :     2.844126
      pz      :     0.935127  p :     3.025919
      px      :     1.036273
      py      :     1.054518
      dz2     :     0.046484  d :     0.134889
      dxz     :     0.018202
      dyz     :     0.036032
[...]
     74      -0.031757  -0.071768  -0.072172  -0.004059  -0.002641  -0.009473
     75      -0.001228  -0.000727   0.000769  -0.000357   0.000261   0.000427
     76      -0.017427   0.041934  -0.042756   0.002574  -0.001688  -0.006766
     77      -0.034705   0.071317  -0.072614   0.004059  -0.002641  -0.009473
     78      -0.001229   0.000726  -0.000769   0.000357  -0.000261  -0.000427
     79       0.017420   0.041932  -0.042753   0.002574  -0.001688  -0.006766
     80       0.034696   0.071314  -0.072610   0.004059  -0.002641  -0.009473
     81      -0.001124  -0.000731  -0.000765  -0.000357  -0.000261  -0.000427
     82      -0.015951   0.042201   0.042498   0.002574   0.001688   0.006766
     83       0.031763  -0.071769  -0.072174  -0.004059  -0.002642  -0.009473
     84      -0.008516  -0.009822  -0.009816  -0.000132  -0.000022   0.000071
     85       0.356276   0.394421   0.392411   0.004033   0.001689   0.002860
     86       0.096423   0.107525   0.107016   0.001119   0.000458   0.000551
     87      -0.009310   0.009761  -0.009876   0.000132  -0.000022   0.000071
     88      -0.389436   0.391969  -0.394834   0.004033  -0.001688  -0.002861
     89       0.105399  -0.106856   0.107676  -0.001119   0.000458   0.000551
     90      -0.009310  -0.009761   0.009877  -0.000132   0.000022  -0.000071
     91       0.389425   0.391973  -0.394838   0.004033  -0.001688  -0.002861
     92      -0.105394  -0.106856   0.107676  -0.001119   0.000458   0.000551
     93      -0.008517   0.009821   0.009815   0.000132   0.000022  -0.000071
     94      -0.356297   0.394403   0.392393   0.004033   0.001689   0.002860
     95      -0.096428   0.107520   0.107010   0.001119   0.000458   0.000551
     96       0.000926   0.000000   0.000000  -0.000000  -0.000000   0.000000
     97      -0.000001   0.028637   0.029851   0.012863   0.008384  -0.000496
     98       0.000002  -0.040185  -0.041813  -0.017739  -0.011203  -0.002688
     99       0.001011  -0.000000   0.000000  -0.000000   0.000000   0.000000
    100      -0.000002   0.028451  -0.030027   0.012862  -0.008382   0.000495
    101      -0.000003   0.039923  -0.042060   0.017738  -0.011200  -0.002688


-----------
IR SPECTRUM
-----------

 Mode   freq       eps      Int      T**2         TX        TY        TZ
       cm**-1   L/(mol*cm) km/mol    a.u.
----------------------------------------------------------------------------
  6:     33.13   0.000081    0.41  0.000763  ( 0.027617  0.000000  0.000000)
  7:     45.56   0.000000    0.00  0.000000  ( 0.000001  0.000000  0.000000)
  8:     89.23   0.000084    0.42  0.000292  (-0.017101 -0.000000  0.000000)
  9:    106.64   0.000000    0.00  0.000000  (-0.000000 -0.000000  0.000000)
 10:    144.39   0.000014    0.07  0.000031  ( 0.000000  0.000000 -0.005565)
 11:    200.45   0.000000    0.00  0.000000  ( 0.000001  0.000000 -0.000000)
 12:    203.84   0.000066    0.33  0.000100  (-0.010022  0.000000 -0.000000)
 13:    217.03   0.000000    0.00  0.000000  ( 0.000000 -0.000000 -0.000000)
 14:    227.51   0.000001    0.01  0.000002  (-0.000000  0.001363  0.000000)
 15:    269.98   0.000004    0.02  0.000004  ( 0.002090 -0.000000  0.000000)
 16:    271.82   0.000000    0.00  0.000000  ( 0.000000  0.000000  0.000000)
 17:    281.92   0.000047    0.24  0.000052  ( 0.000002 -0.000000  0.007236)
 18:    288.28   0.000009    0.05  0.000010  ( 0.000001 -0.003205 -0.000000)
 19:    289.94   0.003114   15.74  0.003351  ( 0.057890  0.000000 -0.000001)
 20:    293.03   0.000065    0.33  0.000069  (-0.000001  0.000000 -0.008308)
 21:    315.31   0.000108    0.55  0.000107  ( 0.000000  0.010356  0.000000)
 22:    322.64   0.000024    0.12  0.000023  ( 0.000001 -0.000001  0.004803)
 23:    394.89   0.000180    0.91  0.000142  ( 0.011922 -0.000000  0.000000)
 24:    423.43   0.000185    0.93  0.000136  ( 0.000000 -0.011671 -0.000000)
 25:    475.33   0.000028    0.14  0.000018  ( 0.000000  0.000000  0.004253)
 26:    492.70   0.000000    0.00  0.000000  ( 0.000000 -0.000000  0.000000)
 27:    551.42   0.002039   10.30  0.001154  (-0.000000  0.033966  0.000000)
 28:    614.52   0.001143    5.77  0.000580  ( 0.000000  0.000000 -0.024089)
 29:    624.49   0.000726    3.67  0.000363  ( 0.000000  0.019044  0.000000)
 30:    682.58   0.006482   32.76  0.002963  (-0.054438  0.000000  0.000000)
 31:    713.75   0.000000    0.00  0.000000  (-0.000000  0.000000 -0.000000)
 32:    754.06   0.000387    1.96  0.000160  ( 0.000000 -0.000000  0.012657)
 33:    803.54   0.000066    0.33  0.000026  (-0.000000 -0.005054 -0.000000)
 34:    881.42   0.002396   12.11  0.000848  (-0.029126 -0.000000  0.000000)
 35:    915.90   0.000011    0.06  0.000004  ( 0.000000 -0.000000 -0.001956)
 36:    929.27   0.000765    3.87  0.000257  (-0.000000  0.016032  0.000000)
 37:    947.10   0.000000    0.00  0.000000  (-0.000017  0.000000  0.000000)
 38:    947.27   0.001193    6.03  0.000393  ( 0.019824  0.000000  0.000000)
 39:    967.91   0.000000    0.00  0.000000  (-0.000002 -0.000000 -0.000000)
 40:    968.83   0.000407    2.05  0.000131  (-0.011444 -0.000000  0.000000)
 41:    977.44   0.000002    0.01  0.000001  (-0.000000  0.000000 -0.000718)
 42:   1048.40   0.001557    7.87  0.000463  ( 0.021525  0.000000 -0.000000)
 43:   1067.34   0.000132    0.67  0.000039  (-0.000000 -0.006207  0.000000)
 44:   1072.60   0.000000    0.00  0.000000  (-0.000000 -0.000000  0.000000)
 45:   1099.50   0.000775    3.91  0.000220  ( 0.000000  0.000000  0.014827)
 46:   1132.04   0.005353   27.05  0.001476  ( 0.000000 -0.038415 -0.000000)
 47:   1160.75   0.000681    3.44  0.000183  (-0.000000 -0.000000  0.013535)
 48:   1180.66   0.000000    0.00  0.000000  ( 0.000003 -0.000000 -0.000000)
 49:   1182.11   0.004740   23.95  0.001251  ( 0.035372 -0.000000 -0.000000)
 50:   1201.56   0.000126    0.64  0.000033  (-0.000000  0.005730  0.000000)
 51:   1222.16   0.001715    8.67  0.000438  (-0.000000 -0.000001 -0.020927)
 52:   1233.09   0.049302  249.15  0.012477  ( 0.000000  0.111701 -0.000000)
 53:   1252.66   0.001072    5.42  0.000267  (-0.000000  0.016345  0.000000)
 54:   1350.15   0.000242    1.22  0.000056  (-0.000000 -0.000000 -0.007478)
 55:   1353.15   0.000000    0.00  0.000000  ( 0.000001  0.000000 -0.000000)
 56:   1353.40   0.000020    0.10  0.000005  ( 0.002145  0.000000 -0.000001)
 57:   1379.66   0.001690    8.54  0.000382  (-0.000000 -0.019549  0.000000)
 58:   1397.90   0.000911    4.60  0.000203  ( 0.000000  0.000000 -0.014262)
 59:   1405.17   0.000000    0.00  0.000000  (-0.000017 -0.000000 -0.000001)
 60:   1405.46   0.007464   37.72  0.001657  (-0.040710 -0.000001 -0.000000)
 61:   1406.73   0.000412    2.08  0.000091  ( 0.000004 -0.009565 -0.000001)
 62:   1409.62   0.001687    8.52  0.000373  ( 0.000001  0.000000 -0.019323)
 63:   1422.63   0.006347   32.08  0.001392  (-0.000000 -0.037314  0.000000)
 64:   1429.59   0.013178   66.60  0.002877  (-0.000000 -0.000000 -0.053634)
 65:   1443.46   0.007135   36.06  0.001542  ( 0.039274 -0.000000 -0.000000)
 66:   1443.73   0.000000    0.00  0.000000  ( 0.000013  0.000002  0.000000)
 67:   1446.32   0.004247   21.46  0.000916  ( 0.000000  0.030271 -0.000000)
 68:   1448.45   0.000163    0.82  0.000035  ( 0.005928  0.000000 -0.000001)
 69:   1448.47   0.000000    0.00  0.000000  ( 0.000049 -0.000000 -0.000000)
 70:   1458.37   0.000114    0.57  0.000024  ( 0.000000  0.000000 -0.004928)
 71:   1460.73   0.000000    0.00  0.000000  (-0.000006  0.000001  0.000001)
 72:   1460.94   0.000651    3.29  0.000139  (-0.011790  0.000000  0.000003)
 73:   1463.48   0.002695   13.62  0.000575  ( 0.000000  0.023974  0.000012)
 74:   1463.61   0.008297   41.93  0.001769  ( 0.000001 -0.000007  0.042060)
 75:   1474.87   0.000303    1.53  0.000064  ( 0.000000 -0.008011  0.000000)
 76:   1479.16   0.001047    5.29  0.000221  ( 0.000000  0.000000  0.014862)
 77:   1518.69   0.000359    1.81  0.000074  ( 0.000000  0.008590  0.000000)
 78:   1530.87   0.000353    1.78  0.000072  (-0.000000  0.000000 -0.008482)
 79:   1652.17   0.034142  172.54  0.006449  ( 0.000000 -0.080304  0.000000)
 80:   1728.22   0.006101   30.83  0.001102  (-0.000000  0.000000 -0.033192)
 81:   3071.04   0.006084   30.75  0.000618  ( 0.024864  0.000000 -0.000001)
 82:   3071.06   0.000000    0.00  0.000000  (-0.000107 -0.000000 -0.000000)
 83:   3072.78   0.000210    1.06  0.000021  ( 0.000000  0.004617  0.000020)
 84:   3072.85   0.002697   13.63  0.000274  ( 0.000002 -0.000006  0.016549)
 85:   3076.75   0.002765   13.97  0.000280  (-0.000000 -0.016747 -0.000001)
 86:   3077.93   0.001504    7.60  0.000153  ( 0.000000 -0.000001  0.012350)
 87:   3156.62   0.000031    0.16  0.000003  (-0.000000  0.001752  0.000006)
 88:   3156.67   0.000009    0.05  0.000001  ( 0.000000 -0.000011  0.000945)
 89:   3170.31   0.001271    6.42  0.000125  (-0.011186 -0.000000 -0.000000)
 90:   3170.48   0.000000    0.00  0.000000  (-0.000006 -0.000000  0.000000)
 91:   3173.92   0.001900    9.60  0.000187  ( 0.013667 -0.000000  0.000001)
 92:   3173.96   0.000000    0.00  0.000000  (-0.000033 -0.000001  0.000000)
 93:   3179.47   0.003955   19.99  0.000388  ( 0.000000  0.019702 -0.000221)
 94:   3179.49   0.007577   38.29  0.000744  ( 0.000000 -0.000160 -0.027269)
 95:   3187.28   0.000005    0.02  0.000000  ( 0.000665 -0.000000  0.000000)
 96:   3187.28   0.002285   11.55  0.000224  (-0.014957  0.000001  0.000000)
 97:   3189.32   0.006792   34.32  0.000665  (-0.000000 -0.025779 -0.000027)
 98:   3189.36   0.000764    3.86  0.000075  (-0.000000  0.000080 -0.008644)
 99:   3202.51   0.000573    2.89  0.000056  ( 0.000000 -0.007470  0.000000)
100:   3205.88   0.000837    4.23  0.000081  (-0.000000 -0.000000 -0.009026)
101:   3296.19   0.011135   56.27  0.001054  (-0.000000 -0.000000 -0.032468)

* The epsilon (eps) is given for a Dirac delta lineshape.
** The dipole moment derivative (T) already includes vibrational overlap.

The first frequency considered to be a vibration is 6
The total number of vibrations considered is 96


--------------------------
THERMOCHEMISTRY AT 298.15K
--------------------------

Temperature         ... 298.15 K
Pressure            ... 1.00 atm
Total Mass          ... 181.30 AMU

Throughout the following assumptions are being made:
  (1) The electronic state is orbitally nondegenerate
  (2) There are no thermally accessible electronically excited states
  (3) Hindered rotations indicated by low frequency modes are not
      treated as such but are treated as vibrations and this may
      cause some error
  (4) All equations used are the standard statistical mechanics
      equations for an ideal gas
  (5) All vibrations are strictly harmonic

freq.      33.13  E(vib)   ...       0.55 
freq.      45.56  E(vib)   ...       0.53 
freq.      89.23  E(vib)   ...       0.47 
freq.     106.64  E(vib)   ...       0.45 
freq.     144.39  E(vib)   ...       0.41 
freq.     200.45  E(vib)   ...       0.35 
freq.     203.84  E(vib)   ...       0.35 
freq.     217.03  E(vib)   ...       0.34 
freq.     227.51  E(vib)   ...       0.33 
freq.     269.98  E(vib)   ...       0.29 
freq.     271.82  E(vib)   ...       0.29 
freq.     281.92  E(vib)   ...       0.28 
freq.     288.28  E(vib)   ...       0.27 
freq.     289.94  E(vib)   ...       0.27 
freq.     293.03  E(vib)   ...       0.27 
freq.     315.31  E(vib)   ...       0.25 
freq.     322.64  E(vib)   ...       0.25 
freq.     394.89  E(vib)   ...       0.20 
freq.     423.43  E(vib)   ...       0.18 
freq.     475.33  E(vib)   ...       0.15 
freq.     492.70  E(vib)   ...       0.14 
freq.     551.42  E(vib)   ...       0.12 
freq.     614.52  E(vib)   ...       0.10 
freq.     624.49  E(vib)   ...       0.09 
freq.     682.58  E(vib)   ...       0.08 
freq.     713.75  E(vib)   ...       0.07 
freq.     754.06  E(vib)   ...       0.06 
freq.     803.54  E(vib)   ...       0.05 
freq.     881.42  E(vib)   ...       0.04 
freq.     915.90  E(vib)   ...       0.03 
freq.     929.27  E(vib)   ...       0.03 
freq.     947.10  E(vib)   ...       0.03 
freq.     947.27  E(vib)   ...       0.03 
freq.     967.91  E(vib)   ...       0.03 
freq.     968.83  E(vib)   ...       0.03 
freq.     977.44  E(vib)   ...       0.03 
freq.    1048.40  E(vib)   ...       0.02 
freq.    1067.34  E(vib)   ...       0.02 
freq.    1072.60  E(vib)   ...       0.02 
freq.    1099.50  E(vib)   ...       0.02 
freq.    1132.04  E(vib)   ...       0.01 
freq.    1160.75  E(vib)   ...       0.01 
freq.    1180.66  E(vib)   ...       0.01 
freq.    1182.11  E(vib)   ...       0.01 
freq.    1201.56  E(vib)   ...       0.01 
freq.    1222.16  E(vib)   ...       0.01 
freq.    1233.09  E(vib)   ...       0.01 
freq.    1252.66  E(vib)   ...       0.01 
freq.    1350.15  E(vib)   ...       0.01 
freq.    1353.15  E(vib)   ...       0.01 
freq.    1353.40  E(vib)   ...       0.01 
freq.    1379.66  E(vib)   ...       0.01 
freq.    1397.90  E(vib)   ...       0.00 
freq.    1405.17  E(vib)   ...       0.00 
freq.    1405.46  E(vib)   ...       0.00 
freq.    1406.73  E(vib)   ...       0.00 
freq.    1409.62  E(vib)   ...       0.00 
freq.    1422.63  E(vib)   ...       0.00 
freq.    1429.59  E(vib)   ...       0.00 
freq.    1443.46  E(vib)   ...       0.00 
freq.    1443.73  E(vib)   ...       0.00 
freq.    1446.32  E(vib)   ...       0.00 
freq.    1448.45  E(vib)   ...       0.00 
freq.    1448.47  E(vib)   ...       0.00 
freq.    1458.37  E(vib)   ...       0.00 
freq.    1460.73  E(vib)   ...       0.00 
freq.    1460.94  E(vib)   ...       0.00 
freq.    1463.48  E(vib)   ...       0.00 
freq.    1463.61  E(vib)   ...       0.00 
freq.    1474.87  E(vib)   ...       0.00 
freq.    1479.16  E(vib)   ...       0.00 
freq.    1518.69  E(vib)   ...       0.00 
freq.    1530.87  E(vib)   ...       0.00 
freq.    1652.17  E(vib)   ...       0.00 
freq.    1728.22  E(vib)   ...       0.00 
freq.    3071.04  E(vib)   ...       0.00 
freq.    3071.06  E(vib)   ...       0.00 
freq.    3072.78  E(vib)   ...       0.00 
freq.    3072.85  E(vib)   ...       0.00 
freq.    3076.75  E(vib)   ...       0.00 
freq.    3077.93  E(vib)   ...       0.00 
freq.    3156.62  E(vib)   ...       0.00 
freq.    3156.67  E(vib)   ...       0.00 
freq.    3170.31  E(vib)   ...       0.00 
freq.    3170.48  E(vib)   ...       0.00 
freq.    3173.92  E(vib)   ...       0.00 
freq.    3173.96  E(vib)   ...       0.00 
freq.    3179.47  E(vib)   ...       0.00 
freq.    3179.49  E(vib)   ...       0.00 
freq.    3187.28  E(vib)   ...       0.00 
freq.    3187.28  E(vib)   ...       0.00 
freq.    3189.32  E(vib)   ...       0.00 
freq.    3189.36  E(vib)   ...       0.00 
freq.    3202.51  E(vib)   ...       0.00 
freq.    3205.88  E(vib)   ...       0.00 
freq.    3296.19  E(vib)   ...       0.00 

------------
INNER ENERGY
------------

The inner energy is: U= E(el) + E(ZPE) + E(vib) + E(rot) + E(trans)
    E(el)   - is the total energy from the electronic structure calculation
              = E(kin-el) + E(nuc-el) + E(el-el) + E(nuc-nuc)
    E(ZPE)  - the the zero temperature vibrational energy from the frequency calculation
    E(vib)  - the the finite temperature correction to E(ZPE) due to population
              of excited vibrational states
    E(rot)  - is the rotational thermal energy
    E(trans)- is the translational thermal energy

Summary of contributions to the inner energy U:
Electronic energy                ...   -540.70512655 Eh
Zero point energy                ...      0.31214451 Eh     195.87 kcal/mol
Thermal vibrational correction   ...      0.01221226 Eh       7.66 kcal/mol
Thermal rotational correction    ...      0.00141627 Eh       0.89 kcal/mol
Thermal translational correction ...      0.00141627 Eh       0.89 kcal/mol
-----------------------------------------------------------------------
Total thermal energy                   -540.37793724 Eh


Summary of corrections to the electronic energy:
(perhaps to be used in another calculation)
Total thermal correction                  0.01504481 Eh       9.44 kcal/mol
Non-thermal (ZPE) correction              0.31214451 Eh     195.87 kcal/mol
-----------------------------------------------------------------------
Total correction                          0.32718931 Eh     205.31 kcal/mol


--------
ENTHALPY
--------

The enthalpy is H = U + kB*T
                kB is Boltzmann's constant
Total free energy                 ...   -540.37793724 Eh 
Thermal Enthalpy correction       ...      0.00094421 Eh       0.59 kcal/mol
-----------------------------------------------------------------------
Total Enthalpy                    ...   -540.37699303 Eh


Note: Rotational entropy computed according to Herzberg 
Infrared and Raman Spectra, Chapter V,1, Van Nostrand Reinhold, 1945 
Point Group:  C2v, Symmetry Number:   2  
Rotational constants in cm-1:     0.035301     0.019158     0.014917 

Vibrational entropy computed according to the QRRHO of S. Grimme
Chem.Eur.J. 2012 18 9955


-------
ENTROPY
-------

The entropy contributions are T*S = T*(S(el)+S(vib)+S(rot)+S(trans))
     S(el)   - electronic entropy
     S(vib)  - vibrational entropy
     S(rot)  - rotational entropy
     S(trans)- translational entropy
The entropies will be listed as multiplied by the temperature to get
units of energy

Electronic entropy                ...      0.00000000 Eh      0.00 kcal/mol
Vibrational entropy               ...      0.02105116 Eh     13.21 kcal/mol
Rotational entropy                ...      0.01428735 Eh      8.97 kcal/mol
Translational entropy             ...      0.01971392 Eh     12.37 kcal/mol
-----------------------------------------------------------------------
Final entropy term                ...      0.05505243 Eh     34.55 kcal/mol

In case the symmetry of your molecule has not been determined correctly
or in case you have a reason to use a different symmetry number we print 
out the resulting rotational entropy values for sn=1,12 :
 --------------------------------------------------------
|  sn= 1 | S(rot)=       0.01494181 Eh      9.38 kcal/mol|
|  sn= 2 | S(rot)=       0.01428735 Eh      8.97 kcal/mol|
|  sn= 3 | S(rot)=       0.01390452 Eh      8.73 kcal/mol|
|  sn= 4 | S(rot)=       0.01363290 Eh      8.55 kcal/mol|
|  sn= 5 | S(rot)=       0.01342221 Eh      8.42 kcal/mol|
|  sn= 6 | S(rot)=       0.01325007 Eh      8.31 kcal/mol|
|  sn= 7 | S(rot)=       0.01310452 Eh      8.22 kcal/mol|
|  sn= 8 | S(rot)=       0.01297844 Eh      8.14 kcal/mol|
|  sn= 9 | S(rot)=       0.01286723 Eh      8.07 kcal/mol|
|  sn=10 | S(rot)=       0.01276775 Eh      8.01 kcal/mol|
|  sn=11 | S(rot)=       0.01267776 Eh      7.96 kcal/mol|
|  sn=12 | S(rot)=       0.01259561 Eh      7.90 kcal/mol|
 --------------------------------------------------------


-------------------
GIBBS FREE ENERGY
-------------------

The Gibbs free energy is G = H - T*S

Total enthalpy                    ...   -540.37699303 Eh 
Total entropy correction          ...     -0.05505243 Eh    -34.55 kcal/mol
-----------------------------------------------------------------------
Final Gibbs free energy         ...   -540.43204546 Eh

For completeness - the Gibbs free energy minus the electronic energy
G-E(el)                           ...      0.27308109 Eh    171.36 kcal/mol


Timings for individual modules:

Sum of individual times         ...     1401.901 sec (=  23.365 min)
GTO integral calculation        ...        3.739 sec (=   0.062 min)   0.3 %
SCF iterations                  ...      542.075 sec (=   9.035 min)  38.7 %
SCF Gradient evaluation         ...      139.394 sec (=   2.323 min)   9.9 %
Geometry relaxation             ...        0.421 sec (=   0.007 min)   0.0 %
Analytical frequency calculation...      716.273 sec (=  11.938 min)  51.1 %
                             ****ORCA TERMINATED NORMALLY****
TOTAL RUN TIME: 0 days 0 hours 23 minutes 24 seconds 115 msec
