
                                 *****************
                                 * O   R   C   A *
                                 *****************

                                            #,                                       
                                            ###                                      
                                            ####                                     
                                            #####                                    
                                            ######                                   
                                           ########,                                 
                                     ,,################,,,,,                         
                               ,,#################################,,                 
                          ,,##########################################,,             
                       ,#########################################, ''#####,          
                    ,#############################################,,   '####,        
                  ,##################################################,,,,####,       
                ,###########''''           ''''###############################       
              ,#####''   ,,,,##########,,,,          '''####'''          '####       
            ,##' ,,,,###########################,,,                        '##       
           ' ,,###''''                  '''############,,,                           
         ,,##''                                '''############,,,,        ,,,,,,###''
      ,#''                                            '''#######################'''  
     '                                                          ''''####''''         
             ,#######,   #######,   ,#######,      ##                                
            ,#'     '#,  ##    ##  ,#'     '#,    #''#        ######   ,####,        
            ##       ##  ##   ,#'  ##            #'  '#       #        #'  '#        
            ##       ##  #######   ##           ,######,      #####,   #    #        
            '#,     ,#'  ##    ##  '#,     ,#' ,#      #,         ##   #,  ,#        
             '#######'   ##     ##  '#######'  #'      '#     #####' # '####'        



                  #######################################################
                  #                        -***-                        #
                  #          Department of theory and spectroscopy      #
                  #    Directorship and core code : Frank Neese         #
                  #        Max Planck Institute fuer Kohlenforschung    #
                  #                Kaiser Wilhelm Platz 1               #
                  #                 D-45470 Muelheim/Ruhr               #
                  #                      Germany                        #
                  #                                                     #
                  #                  All rights reserved                #
                  #                        -***-                        #
                  #######################################################


                         Program Version 5.0.4 -  RELEASE  -


 With contributions from (in alphabetic order):
   Daniel Aravena         : Magnetic Suceptibility
   Michael Atanasov       : Ab Initio Ligand Field Theory (pilot matlab implementation)
   Alexander A. Auer      : GIAO ZORA, VPT2 properties, NMR spectrum
   Ute Becker             : Parallelization
   Giovanni Bistoni       : ED, misc. LED, open-shell LED, HFLD
   Martin Brehm           : Molecular dynamics
   Dmytro Bykov           : SCF Hessian
   Vijay G. Chilkuri      : MRCI spin determinant printing, contributions to CSF-ICE
   Dipayan Datta          : RHF DLPNO-CCSD density
   Achintya Kumar Dutta   : EOM-CC, STEOM-CC
   Dmitry Ganyushin       : Spin-Orbit,Spin-Spin,Magnetic field MRCI
   Miquel Garcia          : C-PCM and meta-GGA Hessian, CC/C-PCM, Gaussian charge scheme
   Yang Guo               : DLPNO-NEVPT2, F12-NEVPT2, CIM, IAO-localization
   Andreas Hansen         : Spin unrestricted coupled pair/coupled cluster methods
   Benjamin Helmich-Paris : MC-RPA, TRAH-SCF, COSX integrals
   Lee Huntington         : MR-EOM, pCC
   Robert Izsak           : Overlap fitted RIJCOSX, COSX-SCS-MP3, EOM
   Marcus Kettner         : VPT2
   Christian Kollmar      : KDIIS, OOCD, Brueckner-CCSD(T), CCSD density, CASPT2, CASPT2-K
   Simone Kossmann        : Meta GGA functionals, TD-DFT gradient, OOMP2, MP2 Hessian
   Martin Krupicka        : Initial AUTO-CI
   Lucas Lang             : DCDCAS
   Marvin Lechner         : AUTO-CI (C++ implementation), FIC-MRCC
   Dagmar Lenk            : GEPOL surface, SMD
   Dimitrios Liakos       : Extrapolation schemes; Compound Job, initial MDCI parallelization
   Dimitrios Manganas     : Further ROCIS development; embedding schemes
   Dimitrios Pantazis     : SARC Basis sets
   Anastasios Papadopoulos: AUTO-CI, single reference methods and gradients
   Taras Petrenko         : DFT Hessian,TD-DFT gradient, ASA, ECA, R-Raman, ABS, FL, XAS/XES, NRVS
   Peter Pinski           : DLPNO-MP2, DLPNO-MP2 Gradient
   Christoph Reimann      : Effective Core Potentials
   Marius Retegan         : Local ZFS, SOC
   Christoph Riplinger    : Optimizer, TS searches, QM/MM, DLPNO-CCSD(T), (RO)-DLPNO pert. Triples
   Tobias Risthaus        : Range-separated hybrids, TD-DFT gradient, RPA, STAB
   Michael Roemelt        : Original ROCIS implementation
   Masaaki Saitow         : Open-shell DLPNO-CCSD energy and density
   Barbara Sandhoefer     : DKH picture change effects
   Avijit Sen             : IP-ROCIS
   Kantharuban Sivalingam : CASSCF convergence, NEVPT2, FIC-MRCI
   Bernardo de Souza      : ESD, SOC TD-DFT
   Georgi Stoychev        : AutoAux, RI-MP2 NMR, DLPNO-MP2 response
   Willem Van den Heuvel  : Paramagnetic NMR
   Boris Wezisla          : Elementary symmetry handling
   Frank Wennmohs         : Technical directorship


 We gratefully acknowledge several colleagues who have allowed us to
 interface, adapt or use parts of their codes:
   Stefan Grimme, W. Hujo, H. Kruse, P. Pracht,  : VdW corrections, initial TS optimization,
                  C. Bannwarth, S. Ehlert          DFT functionals, gCP, sTDA/sTD-DF
   Ed Valeev, F. Pavosevic, A. Kumar             : LibInt (2-el integral package), F12 methods
   Garnet Chan, S. Sharma, J. Yang, R. Olivares  : DMRG
   Ulf Ekstrom                                   : XCFun DFT Library
   Mihaly Kallay                                 : mrcc  (arbitrary order and MRCC methods)
   Jiri Pittner, Ondrej Demel                    : Mk-CCSD
   Frank Weinhold                                : gennbo (NPA and NBO analysis)
   Christopher J. Cramer and Donald G. Truhlar   : smd solvation model
   Lars Goerigk                                  : TD-DFT with DH, B97 family of functionals
   V. Asgeirsson, H. Jonsson                     : NEB implementation
   FAccTs GmbH                                   : IRC, NEB, NEB-TS, DLPNO-Multilevel, CI-OPT
                                                   MM, QMMM, 2- and 3-layer-ONIOM, Crystal-QMMM,
                                                   LR-CPCM, SF, NACMEs, symmetry and pop. for TD-DFT,
                                                   nearIR, NL-DFT gradient (VV10), updates on ESD,
                                                   ML-optimized integration grids
   S Lehtola, MJT Oliveira, MAL Marques          : LibXC Library
   Liviu Ungur et al                             : ANISO software


 Your calculation uses the libint2 library for the computation of 2-el integrals
 For citations please refer to: http://libint.valeyev.net

 Your ORCA version has been built with support for libXC version: 5.1.0
 For citations please refer to: https://tddft.org/programs/libxc/

 This ORCA versions uses:
   CBLAS   interface :  Fast vector & matrix operations
   LAPACKE interface :  Fast linear algebra routines
   SCALAPACK package :  Parallel linear algebra routines
   Shared memory     :  Shared parallel matrices
   BLAS/LAPACK       :  OpenBLAS 0.3.15  USE64BITINT DYNAMIC_ARCH NO_AFFINITY SkylakeX SINGLE_THREADED
        Core in use  :  SkylakeX
   Copyright (c) 2011-2014, The OpenBLAS Project


Your calculation utilizes the atom-pairwise dispersion correction
based on tight binding partial charges (D4)
Cite in your paper:
E.Caldeweyher, C.Bannwarth, S.Grimme, J.Chem.Phys., (2017), 147, 034112.
E.Caldeweyher, S.Ehlert, A.Hansen, H.Neugebauer, S.Grimme, J.Chem.Phys., (2018), in progress.
   

XCFun DFT library Copyright 2009-2010 Ulf Ekstrom and contributors.
See http://admol.org/xcfun for more information.
This is free software; see the source code for copying conditions.
There is ABSOLUTELY NO WARRANTY; not even for MERCHANTABILITY or FITNESS FOR A PARTICULAR PURPOSE.
For details see the documentation.
Scientific users of this library should cite U. Ekstrom, L. Visscher, R. Bast, A. J. Thorvaldsen and K. Ruud;
J.Chem.Theor.Comp. 2010, DOI: 10.1021/ct100117s
XCFun Version 0.99 

================================================================================

----- Orbital basis set information -----
Your calculation utilizes the basis: def2-SVP
   F. Weigend and R. Ahlrichs, Phys. Chem. Chem. Phys. 7, 3297 (2005).

----- AuxJ basis set information -----
Your calculation utilizes the auxiliary basis: def2/J
   F. Weigend, Phys. Chem. Chem. Phys. 8, 1057 (2006).

================================================================================
                                        WARNINGS
                       Please study these warnings very carefully!
================================================================================


INFO   : the flag for use of the SHARK integral package has been found!

================================================================================
                                       INPUT FILE
================================================================================
NAME = DFT_water_outs/7-gasSP.inp
|  1> ! SP wB97X D4 def2-SVP def2/J defgrid2 
|  2> %maxcore 3000
|  3> %PAL NPROCS 4 END
|  4> * xyz 0 1
|  5> C -0.0023 0.675 -1.837
|  6> C 0.0023 -0.675 -1.837
|  7> H -0.0176 1.3795 -2.6656
|  8> H 0.0176 -1.3795 -2.6656
|  9> C -0.0111 2.4203 -0.0584
| 10> C -0.5981 2.7505 1.1659
| 11> C 0.5698 3.4162 -0.8466
| 12> C -0.5948 4.0737 1.6
| 13> H -1.0517 1.9613 1.7685
| 14> C 0.5574 4.7405 -0.4087
| 15> H 1.047 3.1621 -1.7964
| 16> C -0.021 5.075 0.8147
| 17> H -1.0551 4.3248 2.5599
| 18> H 1.0152 5.5147 -1.0307
| 19> H -0.0257 6.1137 1.156
| 20> C 0.0111 -2.4203 -0.0584
| 21> C 0.5981 -2.7505 1.1659
| 22> C -0.5698 -3.4162 -0.8466
| 23> C 0.5948 -4.0737 1.6
| 24> H 1.0517 -1.9613 1.7685
| 25> C -0.5575 -4.7405 -0.4087
| 26> H -1.047 -3.1621 -1.7964
| 27> C 0.021 -5.075 0.8147
| 28> H 1.0551 -4.3248 2.5599
| 29> H -1.0152 -5.5147 -1.0307
| 30> H 0.0257 -6.1137 1.156
| 31> C -0.0 0.0 0.3513
| 32> N -0.0065 1.0631 -0.4988
| 33> N 0.0065 -1.0631 -0.4988
| 34> **                         ****END OF INPUT****
================================================================================

                       ****************************
                       * Single Point Calculation *
                       ****************************

---------------------------------
CARTESIAN COORDINATES (ANGSTROEM)
---------------------------------
  C     -0.002300    0.675000   -1.837000
  C      0.002300   -0.675000   -1.837000
  H     -0.017600    1.379500   -2.665600
  H      0.017600   -1.379500   -2.665600
  C     -0.011100    2.420300   -0.058400
  C     -0.598100    2.750500    1.165900
  C      0.569800    3.416200   -0.846600
  C     -0.594800    4.073700    1.600000
  H     -1.051700    1.961300    1.768500
  C      0.557400    4.740500   -0.408700
  H      1.047000    3.162100   -1.796400
  C     -0.021000    5.075000    0.814700
  H     -1.055100    4.324800    2.559900
  H      1.015200    5.514700   -1.030700
  H     -0.025700    6.113700    1.156000
  C      0.011100   -2.420300   -0.058400
  C      0.598100   -2.750500    1.165900
  C     -0.569800   -3.416200   -0.846600
  C      0.594800   -4.073700    1.600000
  H      1.051700   -1.961300    1.768500
  C     -0.557500   -4.740500   -0.408700
  H     -1.047000   -3.162100   -1.796400
  C      0.021000   -5.075000    0.814700
  H      1.055100   -4.324800    2.559900
  H     -1.015200   -5.514700   -1.030700
  H      0.025700   -6.113700    1.156000
  C     -0.000000    0.000000    0.351300
  N     -0.006500    1.063100   -0.498800
  N      0.006500   -1.063100   -0.498800

----------------------------
CARTESIAN COORDINATES (A.U.)
----------------------------
  NO LB      ZA    FRAG     MASS         X           Y           Z
   0 C     6.0000    0    12.011   -0.004346    1.275565   -3.471427
   1 C     6.0000    0    12.011    0.004346   -1.275565   -3.471427
   2 H     1.0000    0     1.008   -0.033259    2.606877   -5.037254
   3 H     1.0000    0     1.008    0.033259   -2.606877   -5.037254
   4 C     6.0000    0    12.011   -0.020976    4.573704   -0.110360
   5 C     6.0000    0    12.011   -1.130245    5.197692    2.203232
   6 C     6.0000    0    12.011    1.076766    6.455682   -1.599842
   7 C     6.0000    0    12.011   -1.124009    7.698177    3.023562
   8 H     1.0000    0     1.008   -1.987425    3.706320    3.341981
   9 C     6.0000    0    12.011    1.053333    8.958247   -0.772331
  10 H     1.0000    0     1.008    1.978543    5.975503   -3.394704
  11 C     6.0000    0    12.011   -0.039684    9.590360    1.539560
  12 H     1.0000    0     1.008   -1.993850    8.172688    4.837510
  13 H     1.0000    0     1.008    1.918450   10.421273   -1.947741
  14 H     1.0000    0     1.008   -0.048566   11.553219    2.184523
  15 C     6.0000    0    12.011    0.020976   -4.573704   -0.110360
  16 C     6.0000    0    12.011    1.130245   -5.197692    2.203232
  17 C     6.0000    0    12.011   -1.076766   -6.455682   -1.599842
  18 C     6.0000    0    12.011    1.124009   -7.698177    3.023562
  19 H     1.0000    0     1.008    1.987425   -3.706320    3.341981
  20 C     6.0000    0    12.011   -1.053522   -8.958247   -0.772331
  21 H     1.0000    0     1.008   -1.978543   -5.975503   -3.394704
  22 C     6.0000    0    12.011    0.039684   -9.590360    1.539560
  23 H     1.0000    0     1.008    1.993850   -8.172688    4.837510
  24 H     1.0000    0     1.008   -1.918450  -10.421273   -1.947741
  25 H     1.0000    0     1.008    0.048566  -11.553219    2.184523
  26 C     6.0000    0    12.011   -0.000000    0.000000    0.663861
  27 N     7.0000    0    14.007   -0.012283    2.008968   -0.942595
  28 N     7.0000    0    14.007    0.012283   -2.008968   -0.942595

--------------------------------
INTERNAL COORDINATES (ANGSTROEM)
--------------------------------
 C      0   0   0     0.000000000000     0.00000000     0.00000000
 C      1   0   0     1.350007837014     0.00000000     0.00000000
 H      1   2   0     1.087718851542   130.37066533     0.00000000
 H      2   1   3     1.087718851542   130.37066533     1.78378436
 C      1   2   3     2.491900377222   134.45887387   179.01620029
 C      5   1   2     1.397322987000   142.40699302   316.76540400
 C      5   1   2     1.396610489721    95.45991109   155.20582958
 C      6   5   1     1.392591806668   119.77931323   200.96481571
 H      6   5   1     1.091657620319   119.16782999    21.07822860
 C      7   5   1     1.394876575185   119.74442511   166.90960970
 H      7   5   1     1.092889148084   120.41740357   345.97603205
 C     10   7   5     1.393967133759   120.46627311     0.52012390
 H      8   6   5     1.093771141510   119.38687285   180.06817310
 H     10   7   5     1.093549486763   119.33165920   179.93042181
 H     12  10   7     1.093345997386   120.24625665   179.79153680
 C      2   1   3     2.491900377222   134.45887387   180.79998464
 C     16   2   1     1.397322987000   142.40699302   316.76540400
 C     16   2   1     1.396610489721    95.45991109   155.20582958
 C     17  16   2     1.392591806668   119.77931323   200.96481571
 H     17  16   2     1.091657620319   119.16782999    21.07822860
 C     18  16   2     1.394875689802   119.74641366   166.91374908
 H     18  16   2     1.092889148084   120.41740357   345.97603205
 C     21  18  16     1.394008629815   120.46335597     0.51175277
 H     19  17  16     1.093771141510   119.38687285   180.06817310
 H     21  18  16     1.093507626860   119.33493764   179.93564156
 H     23  21  18     1.093345997386   120.24528261   179.79574762
 C      1   2   3     2.290040868631    72.85707680   179.10810782
 N     27   1   2     1.361210442951    34.21036688   180.21543076
 N     27   1   2     1.361210442951    68.49607541     0.13018388

---------------------------
INTERNAL COORDINATES (A.U.)
---------------------------
 C      0   0   0     0.000000000000     0.00000000     0.00000000
 C      1   0   0     2.551145090604     0.00000000     0.00000000
 H      1   2   0     2.055490740118   130.37066533     0.00000000
 H      2   1   3     2.055490740118   130.37066533     1.78378436
 C      1   2   3     4.709009265965   134.45887387   179.01620029
 C      5   1   2     2.640557766064   142.40699302   316.76540400
 C      5   1   2     2.639211341335    95.45991109   155.20582958
 C      6   5   1     2.631617130946   119.77931323   200.96481571
 H      6   5   1     2.062933934411   119.16782999    21.07822860
 C      7   5   1     2.635934717722   119.74442511   166.90960970
 H      7   5   1     2.065261184613   120.41740357   345.97603205
 C     10   7   5     2.634216122491   120.46627311     0.52012390
 H      8   6   5     2.066927910640   119.38687285   180.06817310
 H     10   7   5     2.066509043873   119.33165920   179.93042181
 H     12  10   7     2.066124504679   120.24625665   179.79153680
 C      2   1   3     4.709009265965   134.45887387   180.79998464
 C     16   2   1     2.640557766064   142.40699302   316.76540400
 C     16   2   1     2.639211341335    95.45991109   155.20582958
 C     17  16   2     2.631617130946   119.77931323   200.96481571
 H     17  16   2     2.062933934411   119.16782999    21.07822860
 C     18  16   2     2.635933044590   119.74641366   166.91374908
 H     18  16   2     2.065261184613   120.41740357   345.97603205
 C     21  18  16     2.634294538674   120.46335597     0.51175277
 H     19  17  16     2.066927910640   119.38687285   180.06817310
 H     21  18  16     2.066429940119   119.33493764   179.93564156
 H     23  21  18     2.066124504679   120.24528261   179.79574762
 C      1   2   3     4.327550077200    72.85707680   179.10810782
 N     27   1   2     2.572314947812    34.21036688   180.21543076
 N     27   1   2     2.572314947812    68.49607541     0.13018388

---------------------
BASIS SET INFORMATION
---------------------
There are 3 groups of distinct atoms

 Group   1 Type C   : 7s4p1d contracted to 3s2p1d pattern {511/31/1}
 Group   2 Type H   : 4s1p contracted to 2s1p pattern {31/1}
 Group   3 Type N   : 7s4p1d contracted to 3s2p1d pattern {511/31/1}

Atom   0C    basis set group =>   1
Atom   1C    basis set group =>   1
Atom   2H    basis set group =>   2
Atom   3H    basis set group =>   2
Atom   4C    basis set group =>   1
Atom   5C    basis set group =>   1
Atom   6C    basis set group =>   1
Atom   7C    basis set group =>   1
Atom   8H    basis set group =>   2
Atom   9C    basis set group =>   1
Atom  10H    basis set group =>   2
Atom  11C    basis set group =>   1
Atom  12H    basis set group =>   2
Atom  13H    basis set group =>   2
Atom  14H    basis set group =>   2
Atom  15C    basis set group =>   1
Atom  16C    basis set group =>   1
Atom  17C    basis set group =>   1
Atom  18C    basis set group =>   1
Atom  19H    basis set group =>   2
Atom  20C    basis set group =>   1
Atom  21H    basis set group =>   2
Atom  22C    basis set group =>   1
Atom  23H    basis set group =>   2
Atom  24H    basis set group =>   2
Atom  25H    basis set group =>   2
Atom  26C    basis set group =>   1
Atom  27N    basis set group =>   3
Atom  28N    basis set group =>   3
---------------------------------
AUXILIARY/J BASIS SET INFORMATION
---------------------------------
There are 3 groups of distinct atoms

 Group   1 Type C   : 12s5p4d2f1g contracted to 6s4p3d1f1g pattern {711111/2111/211/2/1}
 Group   2 Type H   : 5s2p1d contracted to 3s1p1d pattern {311/2/1}
 Group   3 Type N   : 12s5p4d2f1g contracted to 6s4p3d1f1g pattern {711111/2111/211/2/1}

Atom   0C    basis set group =>   1
Atom   1C    basis set group =>   1
Atom   2H    basis set group =>   2
Atom   3H    basis set group =>   2
Atom   4C    basis set group =>   1
Atom   5C    basis set group =>   1
Atom   6C    basis set group =>   1
Atom   7C    basis set group =>   1
Atom   8H    basis set group =>   2
Atom   9C    basis set group =>   1
Atom  10H    basis set group =>   2
Atom  11C    basis set group =>   1
Atom  12H    basis set group =>   2
Atom  13H    basis set group =>   2
Atom  14H    basis set group =>   2
Atom  15C    basis set group =>   1
Atom  16C    basis set group =>   1
Atom  17C    basis set group =>   1
Atom  18C    basis set group =>   1
Atom  19H    basis set group =>   2
Atom  20C    basis set group =>   1
Atom  21H    basis set group =>   2
Atom  22C    basis set group =>   1
Atom  23H    basis set group =>   2
Atom  24H    basis set group =>   2
Atom  25H    basis set group =>   2
Atom  26C    basis set group =>   1
Atom  27N    basis set group =>   3
Atom  28N    basis set group =>   3


           ************************************************************
           *        Program running with 4 parallel MPI-processes     *
           *              working on a common directory               *
           ************************************************************
------------------------------------------------------------------------------
                           ORCA GTO INTEGRAL CALCULATION
                           -- RI-GTO INTEGRALS CHOSEN --
------------------------------------------------------------------------------
------------------------------------------------------------------------------
                   ___                                                        
                  /   \      - P O W E R E D   B Y -                         
                 /     \                                                     
                 |  |  |   _    _      __       _____    __    __             
                 |  |  |  | |  | |    /  \     |  _  \  |  |  /  |          
                  \  \/   | |  | |   /    \    | | | |  |  | /  /          
                 / \  \   | |__| |  /  /\  \   | |_| |  |  |/  /          
                |  |  |   |  __  | /  /__\  \  |    /   |      \           
                |  |  |   | |  | | |   __   |  |    \   |  |\   \          
                \     /   | |  | | |  |  |  |  | |\  \  |  | \   \       
                 \___/    |_|  |_| |__|  |__|  |_| \__\ |__|  \__/        
                                                                              
                      - O R C A' S   B I G   F R I E N D -                    
                                      &                                       
                       - I N T E G R A L  F E E D E R -                       
                                                                              
 v1 FN, 2020, v2 2021                                                         
------------------------------------------------------------------------------


Reading SHARK input file DFT_water_outs/7-gasSP.SHARKINP.tmp ... ok
----------------------
SHARK INTEGRAL PACKAGE
----------------------

Number of atoms                             ...     29
Number of basis functions                   ...    298
Number of shells                            ...    138
Maximum angular momentum                    ...      2
Integral batch strategy                     ... SHARK/LIBINT Hybrid
RI-J (if used) integral strategy            ... SPLIT-RIJ (Revised 2003 algorithm where possible)
Printlevel                                  ...      1
Contraction scheme used                     ... SEGMENTED contraction
Coulomb Range Separation                    ... NOT USED
Exchange Range Separation                   ... Long Range
   Mu parameter                             ...  0.300000
   Scaling (regular/separated)              ...  0.157706  0.842294
Finite Nucleus Model                        ... NOT USED
Auxiliary Coulomb fitting basis             ... AVAILABLE
   # of basis functions in Aux-J            ...    965
   # of shells in Aux-J                     ...    315
   Maximum angular momentum in Aux-J        ...      4
Auxiliary J/K fitting basis                 ... NOT available
Auxiliary Correlation fitting basis         ... NOT available
Auxiliary 'external' fitting basis          ... NOT available
Integral threshold                          ...     1.000000e-10
Primitive cut-off                           ...     1.000000e-11
Primitive pair pre-selection threshold      ...     1.000000e-11

Calculating pre-screening integrals         ... done (  0.0 sec) Dimension = 138
Organizing shell pair data                  ... done (  0.1 sec)
Shell pair information
Total number of shell pairs                 ...      9591
Shell pairs after pre-screening             ...      7069
Total number of primitive shell pairs       ...     35237
Primitive shell pairs kept                  ...     17201
          la=0 lb=0:   2131 shell pairs
          la=1 lb=0:   2592 shell pairs
          la=1 lb=1:    822 shell pairs
          la=2 lb=0:    877 shell pairs
          la=2 lb=1:    552 shell pairs
          la=2 lb=2:     95 shell pairs

Calculating one electron integrals          ... done (  0.0 sec)
Calculating RI/J V-Matrix + Cholesky decomp.... done (  0.1 sec)
Calculating Nuclear repulsion               ... done (  0.0 sec) ENN=   1037.453698473992 Eh

SHARK setup successfully completed in   0.3 seconds

Maximum memory used throughout the entire GTOINT-calculation: 15.5 MB


           ************************************************************
           *        Program running with 4 parallel MPI-processes     *
           *              working on a common directory               *
           ************************************************************
-------------------------------------------------------------------------------
                                 ORCA SCF
-------------------------------------------------------------------------------

------------
SCF SETTINGS
------------
Hamiltonian:
 Density Functional     Method          .... DFT(GTOs)
 Exchange Functional    Exchange        .... WB97X
 Correlation Functional Correlation     .... WB97X
 Gradients option       PostSCFGGA      .... off
 Hybrid DFT is turned on
   Fraction HF Exchange ScalHFX         ....  0.157706
   Scaling of DF-GGA-X  ScalDFX         ....  0.000000
   Scaling of DF-GGA-C  ScalDFC         ....  1.000000
   Scaling of DF-LDA-C  ScalLDAC        ....  1.000000
   Perturbative correction              ....  0.000000
   Density functional embedding theory  .... OFF
 Long-range corrected/Screened/Range-Separated Hybrid DFT is turned on
   Amount of maximum screened exact exchange              ....  0.842294
   Range separation parameter mu (erf(mu*r12)/r12)        ....  0.300000
 RI-approximation to the Coulomb term is turned on
   Number of AuxJ basis functions       .... 965
   RIJ-COSX (HFX calculated with COS-X)).... on


General Settings:
 Integral files         IntName         .... DFT_water_outs/7-gasSP
 Hartree-Fock type      HFTyp           .... RHF
 Total Charge           Charge          ....    0
 Multiplicity           Mult            ....    1
 Number of Electrons    NEL             ....  116
 Basis Dimension        Dim             ....  298
 Nuclear Repulsion      ENuc            ....   1037.4536984740 Eh

Convergence Acceleration:
 DIIS                   CNVDIIS         .... on
   Start iteration      DIISMaxIt       ....    12
   Startup error        DIISStart       ....  0.200000
   # of expansion vecs  DIISMaxEq       ....     5
   Bias factor          DIISBfac        ....   1.050
   Max. coefficient     DIISMaxC        ....  10.000
 Trust-Rad. Augm. Hess. CNVTRAH         .... auto
   Auto Start mean grad. ratio tolernc. ....  1.125000
   Auto Start start iteration           ....    20
   Auto Start num. interpolation iter.  ....    10
   Max. Number of Micro iterations      ....    16
   Max. Number of Macro iterations      .... Maxiter - #DIIS iter
   Number of Davidson start vectors     ....     2
   Converg. threshold I  (grad. norm)   ....   5.000e-05
   Converg. threshold II (energy diff.) ....   1.000e-06
   Grad. Scal. Fac. for Micro threshold ....   0.100
   Minimum threshold for Micro iter.    ....   0.010
   NR start threshold (gradient norm)   ....   0.001
   Initial trust radius                 ....   0.400
   Minimum AH scaling param. (alpha)    ....   1.000
   Maximum AH scaling param. (alpha)    .... 1000.000
   Orbital update algorithm             .... Taylor
   White noise on init. David. guess    .... on
   Maximum white noise                  ....   0.010
   Quad. conv. algorithm                .... NR
 SOSCF                  CNVSOSCF        .... on
   Start iteration      SOSCFMaxIt      ....   150
   Startup grad/error   SOSCFStart      ....  0.003300
 Level Shifting         CNVShift        .... on
   Level shift para.    LevelShift      ....    0.2500
   Turn off err/grad.   ShiftErr        ....    0.0010
 Zerner damping         CNVZerner       .... off
 Static damping         CNVDamp         .... on
   Fraction old density DampFac         ....    0.7000
   Max. Damping (<1)    DampMax         ....    0.9800
   Min. Damping (>=0)   DampMin         ....    0.0000
   Turn off err/grad.   DampErr         ....    0.1000
 Fernandez-Rico         CNVRico         .... off

SCF Procedure:
 Maximum # iterations   MaxIter         ....   125
 SCF integral mode      SCFMode         .... Direct
   Integral package                     .... SHARK and LIBINT hybrid scheme
 Reset frequency        DirectResetFreq ....    20
 Integral Threshold     Thresh          ....  1.000e-10 Eh
 Primitive CutOff       TCut            ....  1.000e-11 Eh

Convergence Tolerance:
 Convergence Check Mode ConvCheckMode   .... Total+1el-Energy
 Convergence forced     ConvForced      .... 0
 Energy Change          TolE            ....  1.000e-06 Eh
 1-El. energy change                    ....  1.000e-03 Eh
 Orbital Gradient       TolG            ....  5.000e-05
 Orbital Rotation angle TolX            ....  5.000e-05
 DIIS Error             TolErr          ....  1.000e-06


Diagonalization of the overlap matrix:
Smallest eigenvalue                        ... 2.784e-04
Time for diagonalization                   ...    0.021 sec
Threshold for overlap eigenvalues          ... 1.000e-08
Number of eigenvalues below threshold      ... 0
Time for construction of square roots      ...    0.011 sec
Total time needed                          ...    0.033 sec

Time for model grid setup =    0.255 sec

------------------------------
INITIAL GUESS: MODEL POTENTIAL
------------------------------
Loading Hartree-Fock densities                     ... done
Calculating cut-offs                               ... done
Initializing the effective Hamiltonian             ... done
Setting up the integral package (SHARK)            ... done
Starting the Coulomb interaction                   ... done (   0.2 sec)
Reading the grid                                   ... done
Mapping shells                                     ... done
Starting the XC term evaluation                    ... done (   0.2 sec)
  promolecular density results
     # of electrons  =    115.994087473
     EX              =    -93.339925590
     EC              =     -3.875592897
     EX+EC           =    -97.215518487
Transforming the Hamiltonian                       ... done (   0.0 sec)
Diagonalizing the Hamiltonian                      ... done (   0.0 sec)
Back transforming the eigenvectors                 ... done (   0.0 sec)
Now organizing SCF variables                       ... done
                      ------------------
                      INITIAL GUESS DONE (   0.6 sec)
                      ------------------
-------------------
DFT GRID GENERATION
-------------------

General Integration Accuracy     IntAcc      ... 4.388
Radial Grid Type                 RadialGrid  ... OptM3 with GC (2021)
Angular Grid (max. ang.)         AngularGrid ... 4 (Lebedev-302)
Angular grid pruning method      GridPruning ... 4 (adaptive)
Weight generation scheme         WeightScheme... Becke
Basis function cutoff            BFCut       ... 1.0000e-10
Integration weight cutoff        WCut        ... 1.0000e-14
Angular grids for H and He will be reduced by one unit
Partially contracted basis set               ... off
Rotationally invariant grid construction     ... off

Total number of grid points                  ...   140405
Total number of batches                      ...     2207
Average number of points per batch           ...       63
Average number of grid points per atom       ...     4842
Time for grid setup =    1.133 sec

--------------------
COSX GRID GENERATION
--------------------

GRIDX 1
-------
General Integration Accuracy     IntAcc      ... 3.816
Radial Grid Type                 RadialGrid  ... OptM3 with GC (2021)
Angular Grid (max. ang.)         AngularGrid ... 1 (Lebedev-50)
Angular grid pruning method      GridPruning ... 4 (adaptive)
Weight generation scheme         WeightScheme... Becke
Basis function cutoff            BFCut       ... 1.0000e-10
Integration weight cutoff        WCut        ... 1.0000e-14
Angular grids for H and He will be reduced by one unit
Partially contracted basis set               ... on
Rotationally invariant grid construction     ... off

Total number of grid points                  ...    17907
Total number of batches                      ...      291
Average number of points per batch           ...       61
Average number of grid points per atom       ...      617
UseSFitting                                  ... on

GRIDX 2
-------
General Integration Accuracy     IntAcc      ... 4.020
Radial Grid Type                 RadialGrid  ... OptM3 with GC (2021)
Angular Grid (max. ang.)         AngularGrid ... 2 (Lebedev-110)
Angular grid pruning method      GridPruning ... 4 (adaptive)
Weight generation scheme         WeightScheme... Becke
Basis function cutoff            BFCut       ... 1.0000e-10
Integration weight cutoff        WCut        ... 1.0000e-14
Angular grids for H and He will be reduced by one unit
Partially contracted basis set               ... on
Rotationally invariant grid construction     ... off

Total number of grid points                  ...    39181
Total number of batches                      ...      626
Average number of points per batch           ...       62
Average number of grid points per atom       ...     1351
UseSFitting                                  ... on

GRIDX 3
-------
General Integration Accuracy     IntAcc      ... 4.338
Radial Grid Type                 RadialGrid  ... OptM3 with GC (2021)
Angular Grid (max. ang.)         AngularGrid ... 3 (Lebedev-194)
Angular grid pruning method      GridPruning ... 4 (adaptive)
Weight generation scheme         WeightScheme... Becke
Basis function cutoff            BFCut       ... 1.0000e-10
Integration weight cutoff        WCut        ... 1.0000e-14
Angular grids for H and He will be reduced by one unit
Partially contracted basis set               ... on
Rotationally invariant grid construction     ... off

Total number of grid points                  ...    86009
Total number of batches                      ...     1360
Average number of points per batch           ...       63
Average number of grid points per atom       ...     2966
UseSFitting                                  ... on

Time for X-Grid setup             =    1.738 sec

--------------
SCF ITERATIONS
--------------
ITER       Energy         Delta-E        Max-DP      RMS-DP      [F,P]     Damp
               ***  Starting incremental Fock matrix formation  ***
  0   -687.3398201806   0.000000000000 0.06858424  0.00157205  0.1149599 0.7000
  1   -687.4395187980  -0.099698617330 0.06364586  0.00122542  0.0685203 0.7000
                               ***Turning on DIIS***
  2   -687.4961950040  -0.056676206089 0.15590939  0.00268177  0.0369487 0.0000
  3   -687.5949362737  -0.098741269681 0.01952483  0.00051702  0.0284147 0.0000
  4   -687.6050773573  -0.010141083576 0.00393590  0.00012325  0.0040540 0.0000
                      *** Initiating the SOSCF procedure ***
                           *** Shutting down DIIS ***
                      *** Re-Reading the Fockian *** 
                      *** Removing any level shift *** 
ITER      Energy       Delta-E        Grad      Rot      Max-DP    RMS-DP
  5   -687.60538606  -0.0003087007  0.001292  0.001292  0.004544  0.000072
               *** Restarting incremental Fock matrix formation ***
  6   -687.60535456   0.0000314953  0.000636  0.001371  0.001143  0.000031
  7   -687.60535982  -0.0000052608  0.000440  0.000540  0.000605  0.000014
  8   -687.60536574  -0.0000059130  0.000082  0.000268  0.000193  0.000004
  9   -687.60536590  -0.0000001677  0.000017  0.000074  0.000135  0.000002
                 **** Energy Check signals convergence ****
              ***Rediagonalizing the Fockian in SOSCF/NRSCF***

               *****************************************************
               *                     SUCCESS                       *
               *           SCF CONVERGED AFTER  10 CYCLES          *
               *****************************************************

Old exchange energy                            =    -30.241401178 Eh
New exchange energy                            =    -30.241439954 Eh
Exchange energy change after final integration =     -0.000038777 Eh
Total energy after final integration           =   -687.605404753 Eh
Final COS-X integration done in                =    20.715 sec

----------------
TOTAL SCF ENERGY
----------------

Total Energy       :         -687.60540475 Eh          -18710.69430 eV

Components:
Nuclear Repulsion  :         1037.45369847 Eh           28230.55035 eV
Electronic Energy  :        -1725.05910323 Eh          -46941.24465 eV
One Electron Energy:        -2986.23308545 Eh          -81259.53341 eV
Two Electron Energy:         1261.17398222 Eh           34318.28876 eV
Max COSX asymmetry :            0.00000250 Eh               0.00007 eV

Virial components:
Potential Energy   :        -1367.42148903 Eh          -37209.43041 eV
Kinetic Energy     :          679.81608428 Eh           18498.73611 eV
Virial Ratio       :            2.01145798


DFT components:
N(Alpha)           :       58.000031436119 electrons
N(Beta)            :       58.000031436119 electrons
N(Total)           :      116.000062872237 electrons
E(XC)              :      -69.096160949409 Eh       
DFET-embed. en.    :        0.000000000000 Eh       

---------------
SCF CONVERGENCE
---------------

  Last Energy change         ...   -7.2283e-08  Tolerance :   1.0000e-06
  Last MAX-Density change    ...    3.8840e-15  Tolerance :   1.0000e-05
  Last RMS-Density change    ...    3.6829e-17  Tolerance :   1.0000e-06
  Last Orbital Gradient      ...    8.1995e-06  Tolerance :   5.0000e-05
  Last Orbital Rotation      ...    1.5844e-05  Tolerance :   5.0000e-05

             **** THE GBW FILE WAS UPDATED (DFT_water_outs/7-gasSP.gbw) ****
             **** DENSITY DFT_water_outs/7-gasSP.scfp WAS UPDATED ****
             **** ENERGY FILE WAS UPDATED (DFT_water_outs/7-gasSP.en.tmp) ****
             **** THE GBW FILE WAS UPDATED (DFT_water_outs/7-gasSP.gbw) ****
             **** DENSITY DFT_water_outs/7-gasSP.scfp WAS UPDATED ****
----------------
ORBITAL ENERGIES
----------------

  NO   OCC          E(Eh)            E(eV) 
   0   2.0000     -14.464567      -393.6009 
   1   2.0000     -14.464565      -393.6008 
   2   2.0000     -10.321945      -280.8744 
   3   2.0000     -10.321891      -280.8729 
   4   2.0000     -10.309990      -280.5491 
   5   2.0000     -10.309380      -280.5325 
   6   2.0000     -10.283788      -279.8361 
   7   2.0000     -10.283787      -279.8361 
   8   2.0000     -10.283677      -279.8331 
   9   2.0000     -10.282973      -279.8139 
  10   2.0000     -10.282971      -279.8139 
  11   2.0000     -10.280358      -279.7428 
  12   2.0000     -10.280355      -279.7427 
  13   2.0000     -10.277962      -279.6776 
  14   2.0000     -10.277958      -279.6774 
  15   2.0000     -10.275799      -279.6187 
  16   2.0000     -10.275797      -279.6187 
  17   2.0000      -1.162227       -31.6258 
  18   2.0000      -1.061879       -28.8952 
  19   2.0000      -0.992739       -27.0138 
  20   2.0000      -0.974604       -26.5203 
  21   2.0000      -0.908900       -24.7324 
  22   2.0000      -0.881285       -23.9810 
  23   2.0000      -0.875817       -23.8322 
  24   2.0000      -0.863243       -23.4900 
  25   2.0000      -0.857563       -23.3355 
  26   2.0000      -0.778838       -21.1933 
  27   2.0000      -0.759560       -20.6687 
  28   2.0000      -0.729591       -19.8532 
  29   2.0000      -0.722613       -19.6633 
  30   2.0000      -0.694220       -18.8907 
  31   2.0000      -0.684021       -18.6132 
  32   2.0000      -0.663568       -18.0566 
  33   2.0000      -0.638981       -17.3876 
  34   2.0000      -0.608141       -16.5483 
  35   2.0000      -0.591746       -16.1022 
  36   2.0000      -0.583075       -15.8663 
  37   2.0000      -0.575994       -15.6736 
  38   2.0000      -0.566687       -15.4203 
  39   2.0000      -0.563014       -15.3204 
  40   2.0000      -0.546207       -14.8631 
  41   2.0000      -0.537142       -14.6164 
  42   2.0000      -0.534562       -14.5462 
  43   2.0000      -0.531601       -14.4656 
  44   2.0000      -0.529817       -14.4170 
  45   2.0000      -0.505058       -13.7433 
  46   2.0000      -0.485407       -13.2086 
  47   2.0000      -0.469374       -12.7723 
  48   2.0000      -0.464258       -12.6331 
  49   2.0000      -0.455563       -12.3965 
  50   2.0000      -0.449908       -12.2426 
  51   2.0000      -0.431960       -11.7542 
  52   2.0000      -0.367049        -9.9879 
  53   2.0000      -0.354193        -9.6381 
  54   2.0000      -0.353638        -9.6230 
  55   2.0000      -0.324540        -8.8312 
  56   2.0000      -0.322234        -8.7684 
  57   2.0000      -0.316680        -8.6173 
  58   0.0000       0.055109         1.4996 
  59   0.0000       0.062203         1.6926 
  60   0.0000       0.068078         1.8525 
  61   0.0000       0.071634         1.9493 
  62   0.0000       0.121957         3.3186 
  63   0.0000       0.141590         3.8529 
  64   0.0000       0.152214         4.1420 
  65   0.0000       0.152834         4.1588 
  66   0.0000       0.169604         4.6152 
  67   0.0000       0.181172         4.9299 
  68   0.0000       0.199581         5.4309 
  69   0.0000       0.206277         5.6131 
  70   0.0000       0.216002         5.8777 
  71   0.0000       0.224322         6.1041 
  72   0.0000       0.240832         6.5534 
  73   0.0000       0.250824         6.8253 
  74   0.0000       0.251398         6.8409 
  75   0.0000       0.254079         6.9138 
  76   0.0000       0.262628         7.1465 
  77   0.0000       0.266463         7.2508 
  78   0.0000       0.269481         7.3329 
  79   0.0000       0.298483         8.1221 
  80   0.0000       0.316692         8.6176 
  81   0.0000       0.333595         9.0776 
  82   0.0000       0.344509         9.3746 
  83   0.0000       0.369073        10.0430 
  84   0.0000       0.378084        10.2882 
  85   0.0000       0.378866        10.3095 
  86   0.0000       0.384169        10.4538 
  87   0.0000       0.395831        10.7711 
  88   0.0000       0.397419        10.8143 
  89   0.0000       0.411372        11.1940 
  90   0.0000       0.426338        11.6012 
  91   0.0000       0.445514        12.1231 
  92   0.0000       0.446251        12.1431 
  93   0.0000       0.454683        12.3726 
  94   0.0000       0.471296        12.8246 
  95   0.0000       0.474898        12.9226 
  96   0.0000       0.496479        13.5099 
  97   0.0000       0.499951        13.6043 
  98   0.0000       0.504933        13.7399 
  99   0.0000       0.508172        13.8281 
 100   0.0000       0.509117        13.8538 
 101   0.0000       0.523682        14.2501 
 102   0.0000       0.542242        14.7552 
 103   0.0000       0.546828        14.8800 
 104   0.0000       0.558855        15.2072 
 105   0.0000       0.574418        15.6307 
 106   0.0000       0.585267        15.9259 
 107   0.0000       0.585807        15.9406 
 108   0.0000       0.587492        15.9865 
 109   0.0000       0.594981        16.1903 
 110   0.0000       0.601300        16.3622 
 111   0.0000       0.601708        16.3733 
 112   0.0000       0.606485        16.5033 
 113   0.0000       0.632561        17.2129 
 114   0.0000       0.634711        17.2714 
 115   0.0000       0.644264        17.5313 
 116   0.0000       0.649136        17.6639 
 117   0.0000       0.655033        17.8244 
 118   0.0000       0.659129        17.9358 
 119   0.0000       0.680176        18.5085 
 120   0.0000       0.683742        18.6056 
 121   0.0000       0.686508        18.6808 
 122   0.0000       0.696809        18.9611 
 123   0.0000       0.719299        19.5731 
 124   0.0000       0.733050        19.9473 
 125   0.0000       0.744858        20.2686 
 126   0.0000       0.751011        20.4361 
 127   0.0000       0.751848        20.4588 
 128   0.0000       0.754222        20.5234 
 129   0.0000       0.757806        20.6209 
 130   0.0000       0.763715        20.7818 
 131   0.0000       0.766674        20.8623 
 132   0.0000       0.779665        21.2158 
 133   0.0000       0.779727        21.2174 
 134   0.0000       0.783208        21.3122 
 135   0.0000       0.801059        21.7979 
 136   0.0000       0.809192        22.0192 
 137   0.0000       0.819067        22.2880 
 138   0.0000       0.819249        22.2929 
 139   0.0000       0.832452        22.6522 
 140   0.0000       0.834929        22.7196 
 141   0.0000       0.839634        22.8476 
 142   0.0000       0.842168        22.9166 
 143   0.0000       0.853372        23.2214 
 144   0.0000       0.853404        23.2223 
 145   0.0000       0.878023        23.8922 
 146   0.0000       0.881006        23.9734 
 147   0.0000       0.901488        24.5307 
 148   0.0000       0.909842        24.7581 
 149   0.0000       0.926314        25.2063 
 150   0.0000       0.934548        25.4304 
 151   0.0000       0.948070        25.7983 
 152   0.0000       0.957680        26.0598 
 153   0.0000       0.971419        26.4336 
 154   0.0000       1.013487        27.5784 
 155   0.0000       1.036829        28.2135 
 156   0.0000       1.040475        28.3128 
 157   0.0000       1.041683        28.3456 
 158   0.0000       1.070102        29.1190 
 159   0.0000       1.083706        29.4891 
 160   0.0000       1.106721        30.1154 
 161   0.0000       1.127443        30.6793 
 162   0.0000       1.170018        31.8378 
 163   0.0000       1.181915        32.1615 
 164   0.0000       1.184782        32.2396 
 165   0.0000       1.269279        34.5388 
 166   0.0000       1.276465        34.7344 
 167   0.0000       1.290879        35.1266 
 168   0.0000       1.307618        35.5821 
 169   0.0000       1.307885        35.5894 
 170   0.0000       1.319893        35.9161 
 171   0.0000       1.335534        36.3417 
 172   0.0000       1.342408        36.5288 
 173   0.0000       1.345161        36.6037 
 174   0.0000       1.358127        36.9565 
 175   0.0000       1.359134        36.9839 
 176   0.0000       1.366754        37.1913 
 177   0.0000       1.369990        37.2793 
 178   0.0000       1.381932        37.6043 
 179   0.0000       1.384712        37.6799 
 180   0.0000       1.406718        38.2787 
 181   0.0000       1.407734        38.3064 
 182   0.0000       1.407839        38.3092 
 183   0.0000       1.411258        38.4023 
 184   0.0000       1.424977        38.7756 
 185   0.0000       1.514225        41.2042 
 186   0.0000       1.576605        42.9016 
 187   0.0000       1.591073        43.2953 
 188   0.0000       1.599531        43.5255 
 189   0.0000       1.641070        44.6558 
 190   0.0000       1.677577        45.6492 
 191   0.0000       1.687474        45.9185 
 192   0.0000       1.725668        46.9578 
 193   0.0000       1.762560        47.9617 
 194   0.0000       1.773537        48.2604 
 195   0.0000       1.776954        48.3534 
 196   0.0000       1.783161        48.5223 
 197   0.0000       1.788343        48.6633 
 198   0.0000       1.804871        49.1130 
 199   0.0000       1.817954        49.4690 
 200   0.0000       1.836739        49.9802 
 201   0.0000       1.849039        50.3149 
 202   0.0000       1.853412        50.4339 
 203   0.0000       1.856223        50.5104 
 204   0.0000       1.858011        50.5591 
 205   0.0000       1.858346        50.5682 
 206   0.0000       1.869572        50.8736 
 207   0.0000       1.876584        51.0644 
 208   0.0000       1.884368        51.2763 
 209   0.0000       1.885755        51.3140 
 210   0.0000       1.889670        51.4205 
 211   0.0000       1.891662        51.4747 
 212   0.0000       1.899846        51.6974 
 213   0.0000       1.904804        51.8324 
 214   0.0000       1.935909        52.6788 
 215   0.0000       1.938172        52.7403 
 216   0.0000       1.950610        53.0788 
 217   0.0000       1.998836        54.3911 
 218   0.0000       2.001981        54.4767 
 219   0.0000       2.004789        54.5531 
 220   0.0000       2.039784        55.5054 
 221   0.0000       2.045014        55.6477 
 222   0.0000       2.053461        55.8775 
 223   0.0000       2.066783        56.2400 
 224   0.0000       2.086589        56.7790 
 225   0.0000       2.086953        56.7889 
 226   0.0000       2.087429        56.8018 
 227   0.0000       2.091365        56.9089 
 228   0.0000       2.103109        57.2285 
 229   0.0000       2.117669        57.6247 
 230   0.0000       2.122000        57.7425 
 231   0.0000       2.124755        57.8175 
 232   0.0000       2.178757        59.2870 
 233   0.0000       2.195926        59.7542 
 234   0.0000       2.215149        60.2773 
 235   0.0000       2.215622        60.2901 
 236   0.0000       2.231205        60.7142 
 237   0.0000       2.245241        61.0961 
 238   0.0000       2.249514        61.2124 
 239   0.0000       2.259295        61.4785 
 240   0.0000       2.260389        61.5083 
 241   0.0000       2.292428        62.3801 
 242   0.0000       2.303465        62.6805 
 243   0.0000       2.331670        63.4480 
 244   0.0000       2.351743        63.9942 
 245   0.0000       2.353601        64.0447 
 246   0.0000       2.386906        64.9510 
 247   0.0000       2.394458        65.1565 
 248   0.0000       2.401097        65.3372 
 249   0.0000       2.408964        65.5512 
 250   0.0000       2.417029        65.7707 
 251   0.0000       2.418421        65.8086 
 252   0.0000       2.443246        66.4841 
 253   0.0000       2.448886        66.6376 
 254   0.0000       2.451271        66.7025 
 255   0.0000       2.452767        66.7432 
 256   0.0000       2.483842        67.5888 
 257   0.0000       2.492773        67.8318 
 258   0.0000       2.498586        67.9900 
 259   0.0000       2.585232        70.3477 
 260   0.0000       2.619250        71.2734 
 261   0.0000       2.619991        71.2936 
 262   0.0000       2.693625        73.2973 
 263   0.0000       2.701426        73.5095 
 264   0.0000       2.703914        73.5772 
 265   0.0000       2.713997        73.8516 
 266   0.0000       2.735437        74.4350 
 267   0.0000       2.749802        74.8259 
 268   0.0000       2.765788        75.2609 
 269   0.0000       2.776044        75.5400 
 270   0.0000       2.811891        76.5154 
 271   0.0000       2.830489        77.0215 
 272   0.0000       2.832644        77.0802 
 273   0.0000       2.838617        77.2427 
 274   0.0000       2.838906        77.2506 
 275   0.0000       2.850790        77.5739 
 276   0.0000       2.852387        77.6174 
 277   0.0000       2.906487        79.0895 
 278   0.0000       2.933430        79.8227 
 279   0.0000       2.941212        80.0345 
 280   0.0000       2.969824        80.8130 
 281   0.0000       2.984628        81.2159 
 282   0.0000       2.987730        81.3003 
 283   0.0000       2.989917        81.3598 
 284   0.0000       2.997450        81.5648 
 285   0.0000       3.072961        83.6195 
 286   0.0000       3.109826        84.6227 
 287   0.0000       3.175603        86.4126 
 288   0.0000       3.177883        86.4746 
 289   0.0000       3.213745        87.4505 
 290   0.0000       3.258096        88.6573 
 291   0.0000       3.288498        89.4846 
 292   0.0000       3.377953        91.9188 
 293   0.0000       3.470134        94.4271 
 294   0.0000       3.506351        95.4127 
 295   0.0000       3.629707        98.7694 
 296   0.0000       3.773718       102.6881 
 297   0.0000       3.787287       103.0573 

                    ********************************
                    * MULLIKEN POPULATION ANALYSIS *
                    ********************************

-----------------------
MULLIKEN ATOMIC CHARGES
-----------------------
   0 C :    0.047185
   1 C :    0.047187
   2 H :    0.043888
   3 H :    0.043888
   4 C :    0.166666
   5 C :   -0.016656
   6 C :   -0.061350
   7 C :   -0.012022
   8 H :    0.025725
   9 C :   -0.013121
  10 H :    0.002320
  11 C :   -0.003241
  12 H :    0.020305
  13 H :    0.016854
  14 H :    0.016086
  15 C :    0.166673
  16 C :   -0.016657
  17 C :   -0.061354
  18 C :   -0.012019
  19 H :    0.025727
  20 C :   -0.013104
  21 H :    0.002321
  22 C :   -0.003253
  23 H :    0.020306
  24 H :    0.016840
  25 H :    0.016087
  26 C :   -0.074724
  27 N :   -0.195281
  28 N :   -0.195279
Sum of atomic charges:   -0.0000000

--------------------------------
MULLIKEN REDUCED ORBITAL CHARGES
--------------------------------
  0 C s       :     3.120515  s :     3.120515
      pz      :     0.794849  p :     2.785158
      px      :     1.072190
      py      :     0.918119
      dz2     :     0.014279  d :     0.047142
      dxz     :     0.007372
      dyz     :     0.012612
      dx2y2   :     0.004804
      dxy     :     0.008074
  1 C s       :     3.120514  s :     3.120514
      pz      :     0.794849  p :     2.785157
      px      :     1.072190
      py      :     0.918118
      dz2     :     0.014279  d :     0.047142
      dxz     :     0.007372
      dyz     :     0.012612
      dx2y2   :     0.004804
      dxy     :     0.008074
  2 H s       :     0.931838  s :     0.931838
      pz      :     0.010476  p :     0.024274
      px      :     0.005444
      py      :     0.008354
  3 H s       :     0.931838  s :     0.931838
      pz      :     0.010476  p :     0.024274
      px      :     0.005444
      py      :     0.008354
  4 C s       :     2.965629  s :     2.965629
      pz      :     0.984946  p :     2.811836
      px      :     0.981534
      py      :     0.845355
      dz2     :     0.011141  d :     0.055869
      dxz     :     0.006686
      dyz     :     0.014156
      dx2y2   :     0.011825
      dxy     :     0.012060
  5 C s       :     3.226571  s :     3.226571
      pz      :     0.946960  p :     2.757070
      px      :     0.958980
      py      :     0.851131
      dz2     :     0.007719  d :     0.033015
      dxz     :     0.004944
      dyz     :     0.008989
      dx2y2   :     0.005275
      dxy     :     0.006089
  6 C s       :     3.211581  s :     3.211581
      pz      :     0.885240  p :     2.816567
      px      :     0.981699
      py      :     0.949628
      dz2     :     0.006114  d :     0.033201
      dxz     :     0.003556
      dyz     :     0.009779
      dx2y2   :     0.006064
      dxy     :     0.007687
  7 C s       :     3.145797  s :     3.145797
      pz      :     0.913336  p :     2.831091
      px      :     0.961755
      py      :     0.956000
      dz2     :     0.007045  d :     0.035134
      dxz     :     0.003929
      dyz     :     0.009790
      dx2y2   :     0.006772
      dxy     :     0.007598
  8 H s       :     0.950342  s :     0.950342
      pz      :     0.007106  p :     0.023933
      px      :     0.005824
      py      :     0.011002
  9 C s       :     3.143681  s :     3.143681
      pz      :     0.942965  p :     2.834300
      px      :     0.964856
      py      :     0.926480
      dz2     :     0.007587  d :     0.035140
      dxz     :     0.005025
      dyz     :     0.010667
      dx2y2   :     0.005321
      dxy     :     0.006540
 10 H s       :     0.974298  s :     0.974298
      pz      :     0.012900  p :     0.023382
      px      :     0.006814
      py      :     0.003668
 11 C s       :     3.140634  s :     3.140634
      pz      :     0.957584  p :     2.828062
      px      :     0.988878
      py      :     0.881600
      dz2     :     0.008749  d :     0.034545
      dxz     :     0.005708
      dyz     :     0.009335
      dx2y2   :     0.006219
      dxy     :     0.004535
 12 H s       :     0.956770  s :     0.956770
      pz      :     0.013039  p :     0.022926
      px      :     0.006174
      py      :     0.003712
 13 H s       :     0.960109  s :     0.960109
      pz      :     0.007330  p :     0.023036
      px      :     0.006250
      py      :     0.009457
 14 H s       :     0.960930  s :     0.960930
      pz      :     0.004502  p :     0.022984
      px      :     0.004071
      py      :     0.014411
 15 C s       :     2.965625  s :     2.965625
      pz      :     0.984947  p :     2.811833
      px      :     0.981540
      py      :     0.845346
      dz2     :     0.011141  d :     0.055869
      dxz     :     0.006686
      dyz     :     0.014156
      dx2y2   :     0.011825
      dxy     :     0.012060
 16 C s       :     3.226567  s :     3.226567
      pz      :     0.946970  p :     2.757076
      px      :     0.958970
      py      :     0.851136
      dz2     :     0.007718  d :     0.033015
      dxz     :     0.004944
      dyz     :     0.008989
      dx2y2   :     0.005275
      dxy     :     0.006089
 17 C s       :     3.211574  s :     3.211574
      pz      :     0.885250  p :     2.816580
      px      :     0.981699
      py      :     0.949631
      dz2     :     0.006114  d :     0.033201
      dxz     :     0.003557
      dyz     :     0.009779
      dx2y2   :     0.006064
      dxy     :     0.007687
 18 C s       :     3.145801  s :     3.145801
      pz      :     0.913321  p :     2.831084
      px      :     0.961765
      py      :     0.955999
      dz2     :     0.007045  d :     0.035134
      dxz     :     0.003928
      dyz     :     0.009790
      dx2y2   :     0.006772
      dxy     :     0.007598
 19 H s       :     0.950341  s :     0.950341
      pz      :     0.007106  p :     0.023933
      px      :     0.005824
      py      :     0.011002
 20 C s       :     3.143692  s :     3.143692
      pz      :     0.942956  p :     2.834273
      px      :     0.964860
      py      :     0.926456
      dz2     :     0.007586  d :     0.035138
      dxz     :     0.005024
      dyz     :     0.010667
      dx2y2   :     0.005321
      dxy     :     0.006540
 21 H s       :     0.974297  s :     0.974297
      pz      :     0.012900  p :     0.023382
      px      :     0.006814
      py      :     0.003668
 22 C s       :     3.140634  s :     3.140634
      pz      :     0.957589  p :     2.828076
      px      :     0.988870
      py      :     0.881617
      dz2     :     0.008748  d :     0.034543
      dxz     :     0.005707
      dyz     :     0.009334
      dx2y2   :     0.006219
      dxy     :     0.004535
 23 H s       :     0.956768  s :     0.956768
      pz      :     0.013039  p :     0.022926
      px      :     0.006174
      py      :     0.003712
 24 H s       :     0.960122  s :     0.960122
      pz      :     0.007330  p :     0.023038
      px      :     0.006250
      py      :     0.009458
 25 H s       :     0.960929  s :     0.960929
      pz      :     0.004502  p :     0.022984
      px      :     0.004071
      py      :     0.014411
 26 C s       :     3.622089  s :     3.622089
      pz      :     1.117114  p :     2.386661
      px      :     0.630599
      py      :     0.638948
      dz2     :     0.008892  d :     0.065974
      dxz     :     0.009965
      dyz     :     0.028785
      dx2y2   :     0.007119
      dxy     :     0.011213
 27 N s       :     3.373228  s :     3.373228
      pz      :     1.117916  p :     3.790192
      px      :     1.529287
      py      :     1.142989
      dz2     :     0.008809  d :     0.031860
      dxz     :     0.005349
      dyz     :     0.008514
      dx2y2   :     0.005206
      dxy     :     0.003982
 28 N s       :     3.373228  s :     3.373228
      pz      :     1.117916  p :     3.790191
      px      :     1.529287
      py      :     1.142989
      dz2     :     0.008809  d :     0.031860
      dxz     :     0.005349
      dyz     :     0.008514
      dx2y2   :     0.005206
      dxy     :     0.003982


                     *******************************
                     * LOEWDIN POPULATION ANALYSIS *
                     *******************************

----------------------
LOEWDIN ATOMIC CHARGES
----------------------
   0 C :   -0.021508
   1 C :   -0.021508
   2 H :    0.032809
   3 H :    0.032809
   4 C :    0.033054
   5 C :   -0.019974
   6 C :   -0.047625
   7 C :   -0.019953
   8 H :    0.040660
   9 C :   -0.022755
  10 H :    0.030418
  11 C :   -0.036728
  12 H :    0.034176
  13 H :    0.032813
  14 H :    0.031672
  15 C :    0.033052
  16 C :   -0.019972
  17 C :   -0.047623
  18 C :   -0.019957
  19 H :    0.040660
  20 C :   -0.022748
  21 H :    0.030417
  22 C :   -0.036722
  23 H :    0.034177
  24 H :    0.032806
  25 H :    0.031670
  26 C :   -0.209884
  27 N :    0.037881
  28 N :    0.037882

-------------------------------
LOEWDIN REDUCED ORBITAL CHARGES
-------------------------------
  0 C s       :     2.858307  s :     2.858307
      pz      :     0.931236  p :     3.046287
      px      :     1.060209
      py      :     1.054842
      dz2     :     0.038032  d :     0.116915
      dxz     :     0.014788
      dyz     :     0.034456
      dx2y2   :     0.013732
      dxy     :     0.015907
  1 C s       :     2.858306  s :     2.858306
      pz      :     0.931237  p :     3.046287
      px      :     1.060209
      py      :     1.054841
      dz2     :     0.038032  d :     0.116915
      dxz     :     0.014788
      dyz     :     0.034456
      dx2y2   :     0.013732
      dxy     :     0.015907
  2 H s       :     0.895641  s :     0.895641
      pz      :     0.030950  p :     0.071550
      px      :     0.016811
      py      :     0.023789
  3 H s       :     0.895641  s :     0.895641
      pz      :     0.030950  p :     0.071550
      px      :     0.016811
      py      :     0.023789
  4 C s       :     2.833772  s :     2.833772
      pz      :     1.060430  p :     2.997899
      px      :     1.007098
      py      :     0.930371
      dz2     :     0.027649  d :     0.135275
      dxz     :     0.015906
      dyz     :     0.037112
      dx2y2   :     0.027793
      dxy     :     0.026814
  5 C s       :     2.858411  s :     2.858411
      pz      :     1.030042  p :     3.074250
      px      :     0.986687
      py      :     1.057521
      dz2     :     0.020252  d :     0.087313
      dxz     :     0.012198
      dyz     :     0.026501
      dx2y2   :     0.014192
      dxy     :     0.014170
  6 C s       :     2.856089  s :     2.856089
      pz      :     1.031576  p :     3.103557
      px      :     1.009576
      py      :     1.062404
      dz2     :     0.016426  d :     0.087979
      dxz     :     0.008665
      dyz     :     0.027480
      dx2y2   :     0.017066
      dxy     :     0.018342
  7 C s       :     2.857501  s :     2.857501
      pz      :     1.026191  p :     3.071709
      px      :     0.979233
      py      :     1.066285
      dz2     :     0.018206  d :     0.090742
      dxz     :     0.009169
      dyz     :     0.027113
      dx2y2   :     0.018339
      dxy     :     0.017915
  8 H s       :     0.888797  s :     0.888797
      pz      :     0.021427  p :     0.070543
      px      :     0.018204
      py      :     0.030912
  9 C s       :     2.856647  s :     2.856647
      pz      :     1.040997  p :     3.075280
      px      :     0.984392
      py      :     1.049890
      dz2     :     0.019721  d :     0.090828
      dxz     :     0.012094
      dyz     :     0.029642
      dx2y2   :     0.014245
      dxy     :     0.015127
 10 H s       :     0.901259  s :     0.901259
      pz      :     0.035535  p :     0.068323
      px      :     0.020051
      py      :     0.012737
 11 C s       :     2.857662  s :     2.857662
      pz      :     1.047276  p :     3.089253
      px      :     0.999176
      py      :     1.042802
      dz2     :     0.022768  d :     0.089813
      dxz     :     0.014585
      dyz     :     0.026159
      dx2y2   :     0.015635
      dxy     :     0.010665
 12 H s       :     0.899559  s :     0.899559
      pz      :     0.035537  p :     0.066265
      px      :     0.018370
      py      :     0.012359
 13 H s       :     0.900861  s :     0.900861
      pz      :     0.021460  p :     0.066325
      px      :     0.018457
      py      :     0.026408
 14 H s       :     0.901553  s :     0.901553
      pz      :     0.014504  p :     0.066775
      px      :     0.013298
      py      :     0.038973
 15 C s       :     2.833771  s :     2.833771
      pz      :     1.060430  p :     2.997902
      px      :     1.007101
      py      :     0.930372
      dz2     :     0.027649  d :     0.135275
      dxz     :     0.015906
      dyz     :     0.037112
      dx2y2   :     0.027793
      dxy     :     0.026814
 16 C s       :     2.858411  s :     2.858411
      pz      :     1.030042  p :     3.074247
      px      :     0.986684
      py      :     1.057521
      dz2     :     0.020252  d :     0.087313
      dxz     :     0.012198
      dyz     :     0.026501
      dx2y2   :     0.014192
      dxy     :     0.014170
 17 C s       :     2.856088  s :     2.856088
      pz      :     1.031578  p :     3.103555
      px      :     1.009572
      py      :     1.062406
      dz2     :     0.016426  d :     0.087979
      dxz     :     0.008666
      dyz     :     0.027480
      dx2y2   :     0.017066
      dxy     :     0.018341
 18 C s       :     2.857501  s :     2.857501
      pz      :     1.026193  p :     3.071714
      px      :     0.979237
      py      :     1.066285
      dz2     :     0.018206  d :     0.090742
      dxz     :     0.009169
      dyz     :     0.027113
      dx2y2   :     0.018339
      dxy     :     0.017915
 19 H s       :     0.888797  s :     0.888797
      pz      :     0.021427  p :     0.070543
      px      :     0.018204
      py      :     0.030912
 20 C s       :     2.856646  s :     2.856646
      pz      :     1.040989  p :     3.075278
      px      :     0.984397
      py      :     1.049892
      dz2     :     0.019718  d :     0.090824
      dxz     :     0.012094
      dyz     :     0.029642
      dx2y2   :     0.014245
      dxy     :     0.015126
 21 H s       :     0.901259  s :     0.901259
      pz      :     0.035535  p :     0.068323
      px      :     0.020051
      py      :     0.012738
 22 C s       :     2.857671  s :     2.857671
      pz      :     1.047266  p :     3.089244
      px      :     0.999173
      py      :     1.042804
      dz2     :     0.022765  d :     0.089807
      dxz     :     0.014585
      dyz     :     0.026157
      dx2y2   :     0.015636
      dxy     :     0.010665
 23 H s       :     0.899558  s :     0.899558
      pz      :     0.035537  p :     0.066265
      px      :     0.018370
      py      :     0.012359
 24 H s       :     0.900861  s :     0.900861
      pz      :     0.021463  p :     0.066333
      px      :     0.018458
      py      :     0.026412
 25 H s       :     0.901555  s :     0.901555
      pz      :     0.014504  p :     0.066775
      px      :     0.013298
      py      :     0.038973
 26 C s       :     3.203187  s :     3.203187
      pz      :     1.361545  p :     2.865628
      px      :     0.692886
      py      :     0.811197
      dz2     :     0.013958  d :     0.141069
      dxz     :     0.014219
      dyz     :     0.066883
      dx2y2   :     0.021411
      dxy     :     0.024598
 27 N s       :     3.056737  s :     3.056737
      pz      :     1.193764  p :     3.829634
      px      :     1.448026
      py      :     1.187843
      dz2     :     0.022973  d :     0.075748
      dxz     :     0.010199
      dyz     :     0.024209
      dx2y2   :     0.011260
      dxy     :     0.007107
 28 N s       :     3.056736  s :     3.056736
      pz      :     1.193765  p :     3.829634
      px      :     1.448026
      py      :     1.187843
      dz2     :     0.022973  d :     0.075748
      dxz     :     0.010199
      dyz     :     0.024209
      dx2y2   :     0.011260
      dxy     :     0.007107


                      *****************************
                      * MAYER POPULATION ANALYSIS *
                      *****************************

  NA   - Mulliken gross atomic population
  ZA   - Total nuclear charge
  QA   - Mulliken gross atomic charge
  VA   - Mayer's total valence
  BVA  - Mayer's bonded valence
  FA   - Mayer's free valence

  ATOM       NA         ZA         QA         VA         BVA        FA
  0 C      5.9528     6.0000     0.0472     3.8623     3.8623    -0.0000
  1 C      5.9528     6.0000     0.0472     3.8623     3.8623    -0.0000
  2 H      0.9561     1.0000     0.0439     1.0007     1.0007    -0.0000
  3 H      0.9561     1.0000     0.0439     1.0007     1.0007     0.0000
  4 C      5.8333     6.0000     0.1667     3.8702     3.8702    -0.0000
  5 C      6.0167     6.0000    -0.0167     3.9040     3.9040     0.0000
  6 C      6.0613     6.0000    -0.0613     3.8899     3.8899    -0.0000
  7 C      6.0120     6.0000    -0.0120     3.8596     3.8596     0.0000
  8 H      0.9743     1.0000     0.0257     1.0202     1.0202     0.0000
  9 C      6.0131     6.0000    -0.0131     3.8950     3.8950    -0.0000
 10 H      0.9977     1.0000     0.0023     0.9947     0.9947    -0.0000
 11 C      6.0032     6.0000    -0.0032     3.8533     3.8533     0.0000
 12 H      0.9797     1.0000     0.0203     0.9857     0.9857     0.0000
 13 H      0.9831     1.0000     0.0169     0.9853     0.9853     0.0000
 14 H      0.9839     1.0000     0.0161     0.9854     0.9854     0.0000
 15 C      5.8333     6.0000     0.1667     3.8702     3.8702     0.0000
 16 C      6.0167     6.0000    -0.0167     3.9040     3.9040    -0.0000
 17 C      6.0614     6.0000    -0.0614     3.8899     3.8899     0.0000
 18 C      6.0120     6.0000    -0.0120     3.8596     3.8596    -0.0000
 19 H      0.9743     1.0000     0.0257     1.0202     1.0202    -0.0000
 20 C      6.0131     6.0000    -0.0131     3.8950     3.8950    -0.0000
 21 H      0.9977     1.0000     0.0023     0.9947     0.9947     0.0000
 22 C      6.0033     6.0000    -0.0033     3.8533     3.8533    -0.0000
 23 H      0.9797     1.0000     0.0203     0.9857     0.9857    -0.0000
 24 H      0.9832     1.0000     0.0168     0.9853     0.9853     0.0000
 25 H      0.9839     1.0000     0.0161     0.9854     0.9854     0.0000
 26 C      6.0747     6.0000    -0.0747     2.6707     2.6707    -0.0000
 27 N      7.1953     7.0000    -0.1953     3.3134     3.3134    -0.0000
 28 N      7.1953     7.0000    -0.1953     3.3134     3.3134    -0.0000

  Mayer bond orders larger than 0.100000
B(  0-C ,  1-C ) :   1.6690 B(  0-C ,  2-H ) :   0.9818 B(  0-C , 27-N ) :   1.0932 
B(  1-C ,  3-H ) :   0.9818 B(  1-C , 28-N ) :   1.0932 B(  4-C ,  5-C ) :   1.4140 
B(  4-C ,  6-C ) :   1.3938 B(  4-C , 27-N ) :   0.9434 B(  5-C ,  7-C ) :   1.3912 
B(  5-C ,  8-H ) :   0.9882 B(  6-C ,  9-C ) :   1.3935 B(  6-C , 10-H ) :   0.9907 
B(  7-C , 11-C ) :   1.3872 B(  7-C , 12-H ) :   0.9867 B(  9-C , 11-C ) :   1.4080 
B(  9-C , 13-H ) :   0.9854 B( 11-C , 14-H ) :   0.9913 B( 15-C , 16-C ) :   1.4140 
B( 15-C , 17-C ) :   1.3938 B( 15-C , 28-N ) :   0.9434 B( 16-C , 18-C ) :   1.3911 
B( 16-C , 19-H ) :   0.9882 B( 17-C , 20-C ) :   1.3935 B( 17-C , 21-H ) :   0.9907 
B( 18-C , 22-C ) :   1.3872 B( 18-C , 23-H ) :   0.9868 B( 20-C , 22-C ) :   1.4080 
B( 20-C , 24-H ) :   0.9854 B( 22-C , 25-H ) :   0.9913 B( 26-C , 27-N ) :   1.2044 
B( 26-C , 28-N ) :   1.2044 

-------
TIMINGS
-------

Total SCF time: 0 days 0 hours 1 min 46 sec 

Total time                  ....     106.710 sec
Sum of individual times     ....     106.212 sec  ( 99.5%)

Fock matrix formation       ....     102.358 sec  ( 95.9%)
  Split-RI-J                ....       4.623 sec  (  4.5% of F)
  Chain of spheres X        ....      90.294 sec  ( 88.2% of F)
  XC integration            ....       7.176 sec  (  7.0% of F)
    Basis function eval.    ....       2.348 sec  ( 32.7% of XC)
    Density eval.           ....       1.569 sec  ( 21.9% of XC)
    XC-Functional eval.     ....       0.959 sec  ( 13.4% of XC)
    XC-Potential eval.      ....       1.598 sec  ( 22.3% of XC)
Diagonalization             ....       0.134 sec  (  0.1%)
Density matrix formation    ....       0.014 sec  (  0.0%)
Population analysis         ....       0.019 sec  (  0.0%)
Initial guess               ....       0.387 sec  (  0.4%)
Orbital Transformation      ....       0.000 sec  (  0.0%)
Orbital Orthonormalization  ....       0.000 sec  (  0.0%)
DIIS solution               ....       0.071 sec  (  0.1%)
SOSCF solution              ....       0.103 sec  (  0.1%)
Grid generation             ....       3.126 sec  (  2.9%)

Maximum memory used throughout the entire SCF-calculation: 69.0 MB


-------------------------------------------------------------------------------
                          DFT DISPERSION CORRECTION                            
                                                                               
                                 DFTD4 V2.5                                    
-------------------------------------------------------------------------------
The WB97X functional is recognized
Active option DFTDOPT                   ...         5   

Starting D4
-------------------------   ----------------
Dispersion correction           -0.005806581
-------------------------   ----------------


-------------------------   --------------------
FINAL SINGLE POINT ENERGY      -687.611211334095
-------------------------   --------------------


                            ***************************************
                            *     ORCA property calculations      *
                            ***************************************

                                    ---------------------
                                    Active property flags
                                    ---------------------
   (+) Dipole Moment


------------------------------------------------------------------------------
                       ORCA ELECTRIC PROPERTIES CALCULATION
------------------------------------------------------------------------------

Dipole Moment Calculation                       ... on
Quadrupole Moment Calculation                   ... off
Polarizability Calculation                      ... off
GBWName                                         ... DFT_water_outs/7-gasSP.gbw
Electron density                                ... DFT_water_outs/7-gasSP.scfp
The origin for moment calculation is the CENTER OF MASS  = (-0.000010,  0.000000  0.004773)

-------------
DIPOLE MOMENT
-------------
                                X             Y             Z
Electronic contribution:     -0.00005      -0.00002      -0.84664
Nuclear contribution   :      0.00006      -0.00000      -0.04953
                        -----------------------------------------
Total Dipole Moment    :      0.00001      -0.00002      -0.89617
                        -----------------------------------------
Magnitude (a.u.)       :      0.89617
Magnitude (Debye)      :      2.27789



--------------------
Rotational spectrum 
--------------------
 
Rotational constants in cm-1:     0.054882     0.006881     0.006302 
Rotational constants in MHz :  1645.314866   206.291262   188.935535 

 Dipole components along the rotational axes: 
x,y,z [a.u.] :     0.000016     0.896171     0.000015 
x,y,z [Debye]:     0.000041     2.277886     0.000038 

 

Timings for individual modules:

Sum of individual times         ...      107.822 sec (=   1.797 min)
GTO integral calculation        ...        0.717 sec (=   0.012 min)   0.7 %
SCF iterations                  ...      107.105 sec (=   1.785 min)  99.3 %
                             ****ORCA TERMINATED NORMALLY****
TOTAL RUN TIME: 0 days 0 hours 1 minutes 48 seconds 451 msec
