
                                 *****************
                                 * O   R   C   A *
                                 *****************

                                            #,                                       
                                            ###                                      
                                            ####                                     
                                            #####                                    
                                            ######                                   
                                           ########,                                 
                                     ,,################,,,,,                         
                               ,,#################################,,                 
                          ,,##########################################,,             
                       ,#########################################, ''#####,          
                    ,#############################################,,   '####,        
                  ,##################################################,,,,####,       
                ,###########''''           ''''###############################       
              ,#####''   ,,,,##########,,,,          '''####'''          '####       
            ,##' ,,,,###########################,,,                        '##       
           ' ,,###''''                  '''############,,,                           
         ,,##''                                '''############,,,,        ,,,,,,###''
      ,#''                                            '''#######################'''  
     '                                                          ''''####''''         
             ,#######,   #######,   ,#######,      ##                                
            ,#'     '#,  ##    ##  ,#'     '#,    #''#        ######   ,####,        
            ##       ##  ##   ,#'  ##            #'  '#       #        #'  '#        
            ##       ##  #######   ##           ,######,      #####,   #    #        
            '#,     ,#'  ##    ##  '#,     ,#' ,#      #,         ##   #,  ,#        
             '#######'   ##     ##  '#######'  #'      '#     #####' # '####'        



                  #######################################################
                  #                        -***-                        #
                  #          Department of theory and spectroscopy      #
                  #    Directorship and core code : Frank Neese         #
                  #        Max Planck Institute fuer Kohlenforschung    #
                  #                Kaiser Wilhelm Platz 1               #
                  #                 D-45470 Muelheim/Ruhr               #
                  #                      Germany                        #
                  #                                                     #
                  #                  All rights reserved                #
                  #                        -***-                        #
                  #######################################################


                         Program Version 5.0.3 -  RELEASE  -


 With contributions from (in alphabetic order):
   Daniel Aravena         : Magnetic Suceptibility
   Michael Atanasov       : Ab Initio Ligand Field Theory (pilot matlab implementation)
   Alexander A. Auer      : GIAO ZORA, VPT2 properties, NMR spectrum
   Ute Becker             : Parallelization
   Giovanni Bistoni       : ED, misc. LED, open-shell LED, HFLD
   Martin Brehm           : Molecular dynamics
   Dmytro Bykov           : SCF Hessian
   Vijay G. Chilkuri      : MRCI spin determinant printing, contributions to CSF-ICE
   Dipayan Datta          : RHF DLPNO-CCSD density
   Achintya Kumar Dutta   : EOM-CC, STEOM-CC
   Dmitry Ganyushin       : Spin-Orbit,Spin-Spin,Magnetic field MRCI
   Miquel Garcia          : C-PCM and meta-GGA Hessian, CC/C-PCM, Gaussian charge scheme
   Yang Guo               : DLPNO-NEVPT2, F12-NEVPT2, CIM, IAO-localization
   Andreas Hansen         : Spin unrestricted coupled pair/coupled cluster methods
   Benjamin Helmich-Paris : MC-RPA, TRAH-SCF, COSX integrals
   Lee Huntington         : MR-EOM, pCC
   Robert Izsak           : Overlap fitted RIJCOSX, COSX-SCS-MP3, EOM
   Marcus Kettner         : VPT2
   Christian Kollmar      : KDIIS, OOCD, Brueckner-CCSD(T), CCSD density, CASPT2, CASPT2-K
   Simone Kossmann        : Meta GGA functionals, TD-DFT gradient, OOMP2, MP2 Hessian
   Martin Krupicka        : Initial AUTO-CI
   Lucas Lang             : DCDCAS
   Marvin Lechner         : AUTO-CI (C++ implementation), FIC-MRCC
   Dagmar Lenk            : GEPOL surface, SMD
   Dimitrios Liakos       : Extrapolation schemes; Compound Job, initial MDCI parallelization
   Dimitrios Manganas     : Further ROCIS development; embedding schemes
   Dimitrios Pantazis     : SARC Basis sets
   Anastasios Papadopoulos: AUTO-CI, single reference methods and gradients
   Taras Petrenko         : DFT Hessian,TD-DFT gradient, ASA, ECA, R-Raman, ABS, FL, XAS/XES, NRVS
   Peter Pinski           : DLPNO-MP2, DLPNO-MP2 Gradient
   Christoph Reimann      : Effective Core Potentials
   Marius Retegan         : Local ZFS, SOC
   Christoph Riplinger    : Optimizer, TS searches, QM/MM, DLPNO-CCSD(T), (RO)-DLPNO pert. Triples
   Tobias Risthaus        : Range-separated hybrids, TD-DFT gradient, RPA, STAB
   Michael Roemelt        : Original ROCIS implementation
   Masaaki Saitow         : Open-shell DLPNO-CCSD energy and density
   Barbara Sandhoefer     : DKH picture change effects
   Avijit Sen             : IP-ROCIS
   Kantharuban Sivalingam : CASSCF convergence, NEVPT2, FIC-MRCI
   Bernardo de Souza      : ESD, SOC TD-DFT
   Georgi Stoychev        : AutoAux, RI-MP2 NMR, DLPNO-MP2 response
   Willem Van den Heuvel  : Paramagnetic NMR
   Boris Wezisla          : Elementary symmetry handling
   Frank Wennmohs         : Technical directorship


 We gratefully acknowledge several colleagues who have allowed us to
 interface, adapt or use parts of their codes:
   Stefan Grimme, W. Hujo, H. Kruse, P. Pracht,  : VdW corrections, initial TS optimization,
                  C. Bannwarth, S. Ehlert          DFT functionals, gCP, sTDA/sTD-DF
   Ed Valeev, F. Pavosevic, A. Kumar             : LibInt (2-el integral package), F12 methods
   Garnet Chan, S. Sharma, J. Yang, R. Olivares  : DMRG
   Ulf Ekstrom                                   : XCFun DFT Library
   Mihaly Kallay                                 : mrcc  (arbitrary order and MRCC methods)
   Jiri Pittner, Ondrej Demel                    : Mk-CCSD
   Frank Weinhold                                : gennbo (NPA and NBO analysis)
   Christopher J. Cramer and Donald G. Truhlar   : smd solvation model
   Lars Goerigk                                  : TD-DFT with DH, B97 family of functionals
   V. Asgeirsson, H. Jonsson                     : NEB implementation
   FAccTs GmbH                                   : IRC, NEB, NEB-TS, DLPNO-Multilevel, CI-OPT
                                                   MM, QMMM, 2- and 3-layer-ONIOM, Crystal-QMMM,
                                                   LR-CPCM, SF, NACMEs, symmetry and pop. for TD-DFT,
                                                   nearIR, NL-DFT gradient (VV10), updates on ESD,
                                                   ML-optimized integration grids
   S Lehtola, MJT Oliveira, MAL Marques          : LibXC Library
   Liviu Ungur et al                             : ANISO software


 Your calculation uses the libint2 library for the computation of 2-el integrals
 For citations please refer to: http://libint.valeyev.net

 Your ORCA version has been built with support for libXC version: 5.1.0
 For citations please refer to: https://tddft.org/programs/libxc/

 This ORCA versions uses:
   CBLAS   interface :  Fast vector & matrix operations
   LAPACKE interface :  Fast linear algebra routines
   SCALAPACK package :  Parallel linear algebra routines
   Shared memory     :  Shared parallel matrices
   BLAS/LAPACK       :  OpenBLAS 0.3.15  USE64BITINT DYNAMIC_ARCH NO_AFFINITY SkylakeX SINGLE_THREADED
        Core in use  :  SkylakeX
   Copyright (c) 2011-2014, The OpenBLAS Project




***************************************
The coordinates will be read from file: PhH.xyz
***************************************


Your calculation utilizes the atom-pairwise dispersion correction
based on tight binding partial charges (D4)
Cite in your paper:
E.Caldeweyher, C.Bannwarth, S.Grimme, J.Chem.Phys., (2017), 147, 034112.
E.Caldeweyher, S.Ehlert, A.Hansen, H.Neugebauer, S.Grimme, J.Chem.Phys., (2018), in progress.
   

XCFun DFT library Copyright 2009-2010 Ulf Ekstrom and contributors.
See http://admol.org/xcfun for more information.
This is free software; see the source code for copying conditions.
There is ABSOLUTELY NO WARRANTY; not even for MERCHANTABILITY or FITNESS FOR A PARTICULAR PURPOSE.
For details see the documentation.
Scientific users of this library should cite U. Ekstrom, L. Visscher, R. Bast, A. J. Thorvaldsen and K. Ruud;
J.Chem.Theor.Comp. 2010, DOI: 10.1021/ct100117s
XCFun Version 0.99 

================================================================================

----- Orbital basis set information -----
Your calculation utilizes the basis: def2-SVP
   F. Weigend and R. Ahlrichs, Phys. Chem. Chem. Phys. 7, 3297 (2005).

----- AuxJ basis set information -----
Your calculation utilizes the auxiliary basis: def2/J
   F. Weigend, Phys. Chem. Chem. Phys. 8, 1057 (2006).

================================================================================
                                        WARNINGS
                       Please study these warnings very carefully!
================================================================================


WARNING: Geometry Optimization
  ===> : Switching off AutoStart
         For restart on a previous wavefunction, please use MOREAD

INFO   : the flag for use of the SHARK integral package has been found!

================================================================================
                                       INPUT FILE
================================================================================
NAME = PhH_Water.inp
|  1> # ORCAForces - ../2023_02/pKa_prediction/Yates_carbene_xyzs/Our_level/Uncharged/Water/2/PhH_Water.inp
|  2> # Basic Mode
|  3> #
|  4> ! Opt FREQ wB97X D4 Def2-SVP SlowConv TightSCF DEFGRID2 Def2/J RIJCOSX CPCM(Water)
|  5> 
|  6> %maxcore 4500
|  7> 
|  8> %PAL NPROCS 4 END
|  9> 
| 10> %geom 
| 11> Maxiter 150
| 12> END
| 13> 
| 14> * xyzfile 0 1 PhH.xyz
| 15> 
| 16>                          ****END OF INPUT****
================================================================================

                       *****************************
                       * Geometry Optimization Run *
                       *****************************

Geometry optimization settings:
Update method            Update   .... BFGS
Choice of coordinates    CoordSys .... Z-matrix Internals
Initial Hessian          InHess   .... Almoef's Model

Convergence Tolerances:
Energy Change            TolE     ....  5.0000e-06 Eh
Max. Gradient            TolMAXG  ....  3.0000e-04 Eh/bohr
RMS Gradient             TolRMSG  ....  1.0000e-04 Eh/bohr
Max. Displacement        TolMAXD  ....  4.0000e-03 bohr
RMS Displacement         TolRMSD  ....  2.0000e-03 bohr
Strict Convergence                ....  False
------------------------------------------------------------------------------
                        ORCA OPTIMIZATION COORDINATE SETUP
------------------------------------------------------------------------------

The optimization will be done in new redundant internal coordinates
Making redundant internal coordinates   ...  (new redundants) done
Evaluating the initial hessian          ...  (Almloef) done
Evaluating the coordinates              ...  done
Calculating the B-matrix                .... done
Calculating the G-matrix                .... done
Diagonalizing the G-matrix              .... done
Small eigenvalue found = 4.530e-03
Small eigenvalue found = 1.502e-02
The first mode is                       ....   71
The number of degrees of freedom        ....   81

    -----------------------------------------------------------------
                    Redundant Internal Coordinates


    -----------------------------------------------------------------
         Definition                    Initial Value    Approx d2E/dq
    -----------------------------------------------------------------
      1. B(C   1,C   0)                  1.3487         0.727282   
      2. B(H   2,C   0)                  1.0757         0.379548   
      3. B(H   3,C   1)                  1.0757         0.379548   
      4. B(C   5,C   4)                  1.3966         0.609858   
      5. B(C   6,C   4)                  1.3958         0.611618   
      6. B(C   7,C   5)                  1.3901         0.624486   
      7. B(H   8,C   5)                  1.0815         0.371577   
      8. B(C   9,C   6)                  1.3931         0.617693   
      9. B(H  10,C   6)                  1.0831         0.369387   
     10. B(C  11,C   9)                  1.3918         0.620650   
     11. B(C  11,C   7)                  1.3945         0.614463   
     12. B(H  12,C   7)                  1.0842         0.367912   
     13. B(H  13,C   9)                  1.0841         0.368014   
     14. B(H  14,C  11)                  1.0838         0.368417   
     15. B(C  16,C  15)                  1.3966         0.609858   
     16. B(C  17,C  15)                  1.3958         0.611618   
     17. B(C  18,C  16)                  1.3901         0.624486   
     18. B(H  19,C  16)                  1.0815         0.371577   
     19. B(C  20,C  17)                  1.3931         0.617693   
     20. B(H  21,C  17)                  1.0831         0.369387   
     21. B(C  22,C  20)                  1.3918         0.620650   
     22. B(C  22,C  18)                  1.3945         0.614463   
     23. B(H  23,C  18)                  1.0842         0.367912   
     24. B(H  24,C  20)                  1.0841         0.368014   
     25. B(H  25,C  22)                  1.0838         0.368417   
     26. B(N  27,C  26)                  1.3694         0.603544   
     27. B(N  27,C   4)                  1.4268         0.488747   
     28. B(N  27,C   0)                  1.3984         0.542555   
     29. B(N  28,C  26)                  1.3694         0.603544   
     30. B(N  28,C  15)                  1.4268         0.488747   
     31. B(N  28,C   1)                  1.3984         0.542555   
     32. A(C   1,C   0,N  27)          106.2941         0.433259   
     33. A(C   1,C   0,H   2)          130.1421         0.365893   
     34. A(H   2,C   0,N  27)          123.5450         0.345992   
     35. A(C   0,C   1,H   3)          130.1421         0.365893   
     36. A(H   3,C   1,N  28)          123.5450         0.345992   
     37. A(C   0,C   1,N  28)          106.2941         0.433259   
     38. A(C   6,C   4,N  27)          120.5285         0.412291   
     39. A(C   5,C   4,N  27)          119.5052         0.412080   
     40. A(C   5,C   4,C   6)          119.9662         0.431723   
     41. A(C   7,C   5,H   8)          121.7019         0.355224   
     42. A(C   4,C   5,H   8)          118.6102         0.353799   
     43. A(C   4,C   5,C   7)          119.6842         0.433342   
     44. A(C   4,C   6,H  10)          120.3245         0.353618   
     45. A(C   9,C   6,H  10)          119.7939         0.354210   
     46. A(C   4,C   6,C   9)          119.8617         0.432714   
     47. A(C  11,C   7,H  12)          120.0458         0.353656   
     48. A(C   5,C   7,H  12)          119.3083         0.354627   
     49. A(C   5,C   7,C  11)          120.6442         0.433928   
     50. A(C   6,C   9,H  13)          119.3885         0.353987   
     51. A(C   6,C   9,C  11)          120.4079         0.433857   
     52. A(C  11,C   9,H  13)          120.1995         0.354274   
     53. A(C   7,C  11,C   9)          119.4302         0.433448   
     54. A(C   9,C  11,H  14)          120.2561         0.354339   
     55. A(C   7,C  11,H  14)          120.3132         0.353738   
     56. A(C  17,C  15,N  28)          120.5285         0.412291   
     57. A(C  16,C  15,C  17)          119.9662         0.431723   
     58. A(C  16,C  15,N  28)          119.5052         0.412080   
     59. A(C  18,C  16,H  19)          121.7019         0.355224   
     60. A(C  15,C  16,H  19)          118.6102         0.353799   
     61. A(C  15,C  16,C  18)          119.6842         0.433342   
     62. A(C  20,C  17,H  21)          119.7939         0.354210   
     63. A(C  15,C  17,H  21)          120.3245         0.353618   
     64. A(C  15,C  17,C  20)          119.8617         0.432714   
     65. A(C  22,C  18,H  23)          120.0458         0.353656   
     66. A(C  16,C  18,H  23)          119.3083         0.354627   
     67. A(C  16,C  18,C  22)          120.6442         0.433928   
     68. A(C  17,C  20,H  24)          119.3885         0.353987   
     69. A(C  17,C  20,C  22)          120.4079         0.433857   
     70. A(C  22,C  20,H  24)          120.1995         0.354274   
     71. A(C  18,C  22,C  20)          119.4302         0.433448   
     72. A(C  20,C  22,H  25)          120.2561         0.354339   
     73. A(C  18,C  22,H  25)          120.3132         0.353738   
     74. A(N  27,C  26,N  28)          102.3249         0.424302   
     75. A(C   4,N  27,C  26)          122.8604         0.408668   
     76. A(C   0,N  27,C  26)          112.5434         0.416315   
     77. A(C   0,N  27,C   4)          124.5958         0.401052   
     78. A(C  15,N  28,C  26)          122.8604         0.408668   
     79. A(C   1,N  28,C  26)          112.5434         0.416315   
     80. A(C   1,N  28,C  15)          124.5958         0.401052   
     81. D(N  28,C   1,C   0,H   2)   -178.4195         0.037504   
     82. D(H   3,C   1,C   0,N  27)   -178.4195         0.037504   
     83. D(N  28,C   1,C   0,N  27)      0.0140         0.037504   
     84. D(H   3,C   1,C   0,H   2)      3.1470         0.037504   
     85. D(H   8,C   5,C   4,C   6)   -179.2152         0.025686   
     86. D(C   7,C   5,C   4,N  27)    179.9636         0.025686   
     87. D(C   7,C   5,C   4,C   6)      0.0937         0.025686   
     88. D(H   8,C   5,C   4,N  27)      0.6547         0.025686   
     89. D(C   9,C   6,C   4,C   5)     -0.6638         0.025843   
     90. D(H  10,C   6,C   4,C   5)    177.7096         0.025843   
     91. D(C   9,C   6,C   4,N  27)    179.4676         0.025843   
     92. D(H  10,C   6,C   4,N  27)     -2.1589         0.025843   
     93. D(C  11,C   7,C   5,H   8)    179.8309         0.027010   
     94. D(H  12,C   7,C   5,H   8)     -0.6359         0.027010   
     95. D(H  12,C   7,C   5,C   4)   -179.9228         0.027010   
     96. D(C  11,C   7,C   5,C   4)      0.5440         0.027010   
     97. D(H  13,C   9,C   6,H  10)      1.4891         0.026390   
     98. D(H  13,C   9,C   6,C   4)    179.8713         0.026390   
     99. D(C  11,C   9,C   6,C   4)      0.6039         0.026390   
    100. D(C  11,C   9,C   6,H  10)   -177.7782         0.026390   
    101. D(H  14,C  11,C   9,H  13)      0.5288         0.026659   
    102. D(H  14,C  11,C   9,C   6)    179.7901         0.026659   
    103. D(C   7,C  11,C   9,C   6)      0.0273         0.026659   
    104. D(H  14,C  11,C   7,H  12)      0.1029         0.026098   
    105. D(H  14,C  11,C   7,C   5)    179.6326         0.026098   
    106. D(C   7,C  11,C   9,H  13)   -179.2340         0.026659   
    107. D(C   9,C  11,C   7,C   5)     -0.6047         0.026098   
    108. D(C   9,C  11,C   7,H  12)    179.8655         0.026098   
    109. D(C  18,C  16,C  15,C  17)      0.0937         0.025686   
    110. D(C  18,C  16,C  15,N  28)    179.9636         0.025686   
    111. D(H  19,C  16,C  15,C  17)   -179.2152         0.025686   
    112. D(H  19,C  16,C  15,N  28)      0.6547         0.025686   
    113. D(H  21,C  17,C  15,N  28)     -2.1589         0.025843   
    114. D(H  21,C  17,C  15,C  16)    177.7096         0.025843   
    115. D(C  20,C  17,C  15,N  28)    179.4676         0.025843   
    116. D(C  20,C  17,C  15,C  16)     -0.6638         0.025843   
    117. D(H  23,C  18,C  16,H  19)     -0.6359         0.027010   
    118. D(H  23,C  18,C  16,C  15)   -179.9228         0.027010   
    119. D(C  22,C  18,C  16,H  19)    179.8309         0.027010   
    120. D(C  22,C  18,C  16,C  15)      0.5440         0.027010   
    121. D(H  24,C  20,C  17,H  21)      1.4891         0.026390   
    122. D(H  24,C  20,C  17,C  15)    179.8713         0.026390   
    123. D(C  22,C  20,C  17,H  21)   -177.7782         0.026390   
    124. D(C  22,C  20,C  17,C  15)      0.6039         0.026390   
    125. D(H  25,C  22,C  20,H  24)      0.5288         0.026659   
    126. D(H  25,C  22,C  20,C  17)    179.7901         0.026659   
    127. D(C  18,C  22,C  20,H  24)   -179.2340         0.026659   
    128. D(C  18,C  22,C  20,C  17)      0.0273         0.026659   
    129. D(H  25,C  22,C  18,H  23)      0.1029         0.026098   
    130. D(H  25,C  22,C  18,C  16)    179.6326         0.026098   
    131. D(C  20,C  22,C  18,H  23)    179.8655         0.026098   
    132. D(C  20,C  22,C  18,C  16)     -0.6047         0.026098   
    133. D(C   4,N  27,C  26,N  28)    179.7647         0.026625   
    134. D(C   0,N  27,C  26,N  28)      0.0046         0.026625   
    135. D(C  26,N  27,C   4,C   6)    152.4734         0.018860   
    136. D(C  26,N  27,C   4,C   5)    -27.3958         0.018860   
    137. D(C   0,N  27,C   4,C   6)    -27.7957         0.018860   
    138. D(C   0,N  27,C   4,C   5)    152.3351         0.018860   
    139. D(C  26,N  27,C   0,H   2)    178.5510         0.023429   
    140. D(C  26,N  27,C   0,C   1)     -0.0122         0.023429   
    141. D(C   4,N  27,C   0,H   2)     -1.2042         0.023429   
    142. D(C   4,N  27,C   0,C   1)   -179.7674         0.023429   
    143. D(C  15,N  28,C   1,C   0)   -179.7674         0.023429   
    144. D(C  15,N  28,C  26,N  27)    179.7647         0.026625   
    145. D(C  26,N  28,C  15,C  17)    152.4734         0.018860   
    146. D(C  26,N  28,C  15,C  16)    -27.3958         0.018860   
    147. D(C   1,N  28,C  15,C  17)    -27.7957         0.018860   
    148. D(C   1,N  28,C  15,C  16)    152.3351         0.018860   
    149. D(C  26,N  28,C   1,H   3)    178.5510         0.023429   
    150. D(C   1,N  28,C  26,N  27)      0.0046         0.026625   
    151. D(C  26,N  28,C   1,C   0)     -0.0122         0.023429   
    152. D(C  15,N  28,C   1,H   3)     -1.2042         0.023429   
    -----------------------------------------------------------------

Number of atoms                         .... 29
Number of degrees of freedom            .... 152

         *************************************************************
         *                GEOMETRY OPTIMIZATION CYCLE   1            *
         *************************************************************
---------------------------------
CARTESIAN COORDINATES (ANGSTROEM)
---------------------------------
  C      0.001267    0.674326   -1.856613
  C     -0.001267   -0.674326   -1.856613
  H     -0.020010    1.367843   -2.678606
  H      0.020010   -1.367843   -2.678606
  C      0.000000    2.421349   -0.066301
  C     -0.563412    2.735195    1.172458
  C      0.557637    3.429621   -0.854143
  C     -0.566853    4.053681    1.612979
  H     -0.977781    1.935099    1.770538
  C      0.538060    4.749243   -0.408074
  H      1.029036    3.187802   -1.798783
  C     -0.023293    5.067793    0.825032
  H     -1.004701    4.290275    2.576156
  H      0.975219    5.525953   -1.025203
  H     -0.034160    6.094765    1.171151
  C      0.000000   -2.421349   -0.066301
  C      0.563412   -2.735195    1.172458
  C     -0.557637   -3.429621   -0.854143
  C      0.566853   -4.053681    1.612979
  H      0.977781   -1.935099    1.770538
  C     -0.538060   -4.749243   -0.408074
  H     -1.029036   -3.187802   -1.798783
  C      0.023293   -5.067793    0.825032
  H      1.004701   -4.290275    2.576156
  H     -0.975219   -5.525953   -1.025203
  H      0.034160   -6.094765    1.171151
  C      0.000000    0.000000    0.344420
  N      0.002168    1.066677   -0.514363
  N     -0.002168   -1.066677   -0.514363

----------------------------
CARTESIAN COORDINATES (A.U.)
----------------------------
  NO LB      ZA    FRAG     MASS         X           Y           Z
   0 C     6.0000    0    12.011    0.002394    1.274291   -3.508490
   1 C     6.0000    0    12.011   -0.002394   -1.274291   -3.508490
   2 H     1.0000    0     1.008   -0.037813    2.584849   -5.061832
   3 H     1.0000    0     1.008    0.037813   -2.584849   -5.061832
   4 C     6.0000    0    12.011    0.000000    4.575686   -0.125291
   5 C     6.0000    0    12.011   -1.064694    5.168769    2.215625
   6 C     6.0000    0    12.011    1.053781    6.481044   -1.614096
   7 C     6.0000    0    12.011   -1.071197    7.660347    3.048089
   8 H     1.0000    0     1.008   -1.847738    3.656807    3.345832
   9 C     6.0000    0    12.011    1.016786    8.974769   -0.771148
  10 H     1.0000    0     1.008    1.944596    6.024073   -3.399207
  11 C     6.0000    0    12.011   -0.044017    9.576741    1.559085
  12 H     1.0000    0     1.008   -1.898610    8.107445    4.868229
  13 H     1.0000    0     1.008    1.842897   10.442538   -1.937353
  14 H     1.0000    0     1.008   -0.064553   11.517437    2.213155
  15 C     6.0000    0    12.011    0.000000   -4.575686   -0.125291
  16 C     6.0000    0    12.011    1.064694   -5.168769    2.215625
  17 C     6.0000    0    12.011   -1.053781   -6.481044   -1.614096
  18 C     6.0000    0    12.011    1.071197   -7.660347    3.048089
  19 H     1.0000    0     1.008    1.847738   -3.656807    3.345832
  20 C     6.0000    0    12.011   -1.016786   -8.974769   -0.771148
  21 H     1.0000    0     1.008   -1.944596   -6.024073   -3.399207
  22 C     6.0000    0    12.011    0.044017   -9.576741    1.559085
  23 H     1.0000    0     1.008    1.898610   -8.107445    4.868229
  24 H     1.0000    0     1.008   -1.842897  -10.442538   -1.937353
  25 H     1.0000    0     1.008    0.064553  -11.517437    2.213155
  26 C     6.0000    0    12.011    0.000000    0.000000    0.650859
  27 N     7.0000    0    14.007    0.004097    2.015727   -0.972005
  28 N     7.0000    0    14.007   -0.004097   -2.015727   -0.972005

--------------------------------
INTERNAL COORDINATES (ANGSTROEM)
--------------------------------
 C      0   0   0     0.000000000000     0.00000000     0.00000000
 C      1   0   0     1.348654380581     0.00000000     0.00000000
 H      1   2   0     1.075681659259   130.14205971     0.00000000
 H      2   1   3     1.075681659259   130.14205971     3.14702068
 C      1   2   3     2.501461178024   134.29868187   178.28089136
 C      5   1   2     1.396587359796   142.37055154   318.87200142
 C      5   1   2     1.395803161881    95.75780930   156.50132609
 C      6   5   1     1.390135217926   119.68415933   200.44818813
 H      6   5   1     1.081459645006   118.61023628    21.13922945
 C      7   5   1     1.393112714239   119.86174202   167.01195943
 H      7   5   1     1.083068869261   120.32446007   345.38537223
 C     10   7   5     1.391812379721   120.40790137     0.60391443
 H      8   6   5     1.084157518661   119.30834462   180.07716748
 H     10   7   5     1.084082385256   119.38851952   179.87125868
 H     12  10   7     1.083784084878   120.25610155   179.79013643
 C      2   1   3     2.501461178024   134.29868187   181.42791204
 C     16   2   1     1.396587359796   142.37055154   318.87200142
 C     16   2   1     1.395803161881    95.75780930   156.50132609
 C     17  16   2     1.390135217926   119.68415933   200.44818813
 H     17  16   2     1.081459645006   118.61023628    21.13922945
 C     18  16   2     1.393112714239   119.86174202   167.01195943
 H     18  16   2     1.083068869261   120.32446007   345.38537223
 C     21  18  16     1.391812379721   120.40790137     0.60391443
 H     19  17  16     1.084157518661   119.30834462   180.07716748
 H     21  18  16     1.084082385256   119.38851952   179.87125868
 H     23  21  18     1.083784084878   120.25610155   179.79013643
 C      1   2   3     2.302012907578    72.96658523   178.42648966
 N     27   1   2     1.369420594135    34.12905798   179.98778460
 N     27   1   2     1.369420594135    68.19588709     0.00000000

---------------------------
INTERNAL COORDINATES (A.U.)
---------------------------
 C      0   0   0     0.000000000000     0.00000000     0.00000000
 C      1   0   0     2.548587428611     0.00000000     0.00000000
 H      1   2   0     2.032743743282   130.14205971     0.00000000
 H      2   1   3     2.032743743282   130.14205971     3.14702068
 C      1   2   3     4.727076561102   134.29868187   178.28089136
 C      5   1   2     2.639167632110   142.37055154   318.87200142
 C      5   1   2     2.637685712816    95.75780930   156.50132609
 C      6   5   1     2.626974850999   119.68415933   200.44818813
 H      6   5   1     2.043662553949   118.61023628    21.13922945
 C      7   5   1     2.632601503595   119.86174202   167.01195943
 H      7   5   1     2.046703547079   120.32446007   345.38537223
 C     10   7   5     2.630144227474   120.40790137     0.60391443
 H      8   6   5     2.048760796301   119.30834462   180.07716748
 H     10   7   5     2.048618814742   119.38851952   179.87125868
 H     12  10   7     2.048055108721   120.25610155   179.79013643
 C      2   1   3     4.727076561102   134.29868187   181.42791204
 C     16   2   1     2.639167632110   142.37055154   318.87200142
 C     16   2   1     2.637685712816    95.75780930   156.50132609
 C     17  16   2     2.626974850999   119.68415933   200.44818813
 H     17  16   2     2.043662553949   118.61023628    21.13922945
 C     18  16   2     2.632601503595   119.86174202   167.01195943
 H     18  16   2     2.046703547079   120.32446007   345.38537223
 C     21  18  16     2.630144227474   120.40790137     0.60391443
 H     19  17  16     2.048760796301   119.30834462   180.07716748
 H     21  18  16     2.048618814742   119.38851952   179.87125868
 H     23  21  18     2.048055108721   120.25610155   179.79013643
 C      1   2   3     4.350173952073    72.96658523   178.42648966
 N     27   1   2     2.587829885068    34.12905798   179.98778460
 N     27   1   2     2.587829885068    68.19588709     0.00000000

---------------------
BASIS SET INFORMATION
---------------------
There are 3 groups of distinct atoms

 Group   1 Type C   : 7s4p1d contracted to 3s2p1d pattern {511/31/1}
 Group   2 Type H   : 4s1p contracted to 2s1p pattern {31/1}
 Group   3 Type N   : 7s4p1d contracted to 3s2p1d pattern {511/31/1}

Atom   0C    basis set group =>   1
Atom   1C    basis set group =>   1
Atom   2H    basis set group =>   2
Atom   3H    basis set group =>   2
Atom   4C    basis set group =>   1
Atom   5C    basis set group =>   1
Atom   6C    basis set group =>   1
Atom   7C    basis set group =>   1
Atom   8H    basis set group =>   2
Atom   9C    basis set group =>   1
Atom  10H    basis set group =>   2
Atom  11C    basis set group =>   1
Atom  12H    basis set group =>   2
Atom  13H    basis set group =>   2
Atom  14H    basis set group =>   2
Atom  15C    basis set group =>   1
Atom  16C    basis set group =>   1
Atom  17C    basis set group =>   1
Atom  18C    basis set group =>   1
Atom  19H    basis set group =>   2
Atom  20C    basis set group =>   1
Atom  21H    basis set group =>   2
Atom  22C    basis set group =>   1
Atom  23H    basis set group =>   2
Atom  24H    basis set group =>   2
Atom  25H    basis set group =>   2
Atom  26C    basis set group =>   1
Atom  27N    basis set group =>   3
Atom  28N    basis set group =>   3
---------------------------------
AUXILIARY/J BASIS SET INFORMATION
---------------------------------
There are 3 groups of distinct atoms

 Group   1 Type C   : 12s5p4d2f1g contracted to 6s4p3d1f1g pattern {711111/2111/211/2/1}
 Group   2 Type H   : 5s2p1d contracted to 3s1p1d pattern {311/2/1}
 Group   3 Type N   : 12s5p4d2f1g contracted to 6s4p3d1f1g pattern {711111/2111/211/2/1}

Atom   0C    basis set group =>   1
Atom   1C    basis set group =>   1
Atom   2H    basis set group =>   2
Atom   3H    basis set group =>   2
Atom   4C    basis set group =>   1
Atom   5C    basis set group =>   1
Atom   6C    basis set group =>   1
Atom   7C    basis set group =>   1
Atom   8H    basis set group =>   2
Atom   9C    basis set group =>   1
Atom  10H    basis set group =>   2
Atom  11C    basis set group =>   1
Atom  12H    basis set group =>   2
Atom  13H    basis set group =>   2
Atom  14H    basis set group =>   2
Atom  15C    basis set group =>   1
Atom  16C    basis set group =>   1
Atom  17C    basis set group =>   1
Atom  18C    basis set group =>   1
Atom  19H    basis set group =>   2
Atom  20C    basis set group =>   1
Atom  21H    basis set group =>   2
Atom  22C    basis set group =>   1
Atom  23H    basis set group =>   2
Atom  24H    basis set group =>   2
Atom  25H    basis set group =>   2
Atom  26C    basis set group =>   1
Atom  27N    basis set group =>   3
Atom  28N    basis set group =>   3


           ************************************************************
           *        Program running with 4 parallel MPI-processes     *
           *              working on a common directory               *
           ************************************************************
------------------------------------------------------------------------------
                           ORCA GTO INTEGRAL CALCULATION
                           -- RI-GTO INTEGRALS CHOSEN --
------------------------------------------------------------------------------
------------------------------------------------------------------------------
                   ___                                                        
                  /   \      - P O W E R E D   B Y -                         
                 /     \                                                     
                 |  |  |   _    _      __       _____    __    __             
                 |  |  |  | |  | |    /  \     |  _  \  |  |  /  |          
                  \  \/   | |  | |   /    \    | | | |  |  | /  /          
                 / \  \   | |__| |  /  /\  \   | |_| |  |  |/  /          
                |  |  |   |  __  | /  /__\  \  |    /   |      \           
                |  |  |   | |  | | |   __   |  |    \   |  |\   \          
                \     /   | |  | | |  |  |  |  | |\  \  |  | \   \       
                 \___/    |_|  |_| |__|  |__|  |_| \__\ |__|  \__/        
                                                                              
                      - O R C A' S   B I G   F R I E N D -                    
                                      &                                       
                       - I N T E G R A L  F E E D E R -                       
                                                                              
 v1 FN, 2020, v2 2021                                                         
------------------------------------------------------------------------------


Reading SHARK input file PhH_Water.SHARKINP.tmp ... ok
----------------------
SHARK INTEGRAL PACKAGE
----------------------

Number of atoms                             ...     29
Number of basis functions                   ...    298
Number of shells                            ...    138
Maximum angular momentum                    ...      2
Integral batch strategy                     ... SHARK/LIBINT Hybrid
RI-J (if used) integral strategy            ... SPLIT-RIJ (Revised 2003 algorithm where possible)
Printlevel                                  ...      1
Contraction scheme used                     ... SEGMENTED contraction
Coulomb Range Separation                    ... NOT USED
Exchange Range Separation                   ... Long Range
   Mu parameter                             ...  0.300000
   Scaling (regular/separated)              ...  0.157706  0.842294
Finite Nucleus Model                        ... NOT USED
Auxiliary Coulomb fitting basis             ... AVAILABLE
   # of basis functions in Aux-J            ...    965
   # of shells in Aux-J                     ...    315
   Maximum angular momentum in Aux-J        ...      4
Auxiliary J/K fitting basis                 ... NOT available
Auxiliary Correlation fitting basis         ... NOT available
Auxiliary 'external' fitting basis          ... NOT available
Integral threshold                          ...     2.500000e-11
Primitive cut-off                           ...     2.500000e-12
Primitive pair pre-selection threshold      ...     2.500000e-12

Calculating pre-screening integrals         ... done (  0.0 sec) Dimension = 138
Organizing shell pair data                  ... done (  0.0 sec)
Shell pair information
Total number of shell pairs                 ...      9591
Shell pairs after pre-screening             ...      7188
Total number of primitive shell pairs       ...     35237
Primitive shell pairs kept                  ...     17523
          la=0 lb=0:   2163 shell pairs
          la=1 lb=0:   2634 shell pairs
          la=1 lb=1:    844 shell pairs
          la=2 lb=0:    891 shell pairs
          la=2 lb=1:    556 shell pairs
          la=2 lb=2:    100 shell pairs

Calculating one electron integrals          ... done (  0.0 sec)
Calculating RI/J V-Matrix + Cholesky decomp.... done (  0.1 sec)
Calculating Nuclear repulsion               ... done (  0.0 sec) ENN=   1037.910227938159 Eh

SHARK setup successfully completed in   0.8 seconds

Maximum memory used throughout the entire GTOINT-calculation: 15.6 MB


           ************************************************************
           *        Program running with 4 parallel MPI-processes     *
           *              working on a common directory               *
           ************************************************************
-------------------------------------------------------------------------------
                                 ORCA SCF
-------------------------------------------------------------------------------

------------
SCF SETTINGS
------------
Hamiltonian:
 Density Functional     Method          .... DFT(GTOs)
 Exchange Functional    Exchange        .... WB97X
 Correlation Functional Correlation     .... WB97X
 Gradients option       PostSCFGGA      .... off
 Hybrid DFT is turned on
   Fraction HF Exchange ScalHFX         ....  0.157706
   Scaling of DF-GGA-X  ScalDFX         ....  0.000000
   Scaling of DF-GGA-C  ScalDFC         ....  1.000000
   Scaling of DF-LDA-C  ScalLDAC        ....  1.000000
   Perturbative correction              ....  0.000000
   Density functional embedding theory  .... OFF
 Long-range corrected/Screened/Range-Separated Hybrid DFT is turned on
   Amount of maximum screened exact exchange              ....  0.842294
   Range separation parameter mu (erf(mu*r12)/r12)        ....  0.300000
 RI-approximation to the Coulomb term is turned on
   Number of AuxJ basis functions       .... 965
   RIJ-COSX (HFX calculated with COS-X)).... on


General Settings:
 Integral files         IntName         .... PhH_Water
 Hartree-Fock type      HFTyp           .... RHF
 Total Charge           Charge          ....    0
 Multiplicity           Mult            ....    1
 Number of Electrons    NEL             ....  116
 Basis Dimension        Dim             ....  298
 Nuclear Repulsion      ENuc            ....   1037.9102279382 Eh

Convergence Acceleration:
 DIIS                   CNVDIIS         .... on
   Start iteration      DIISMaxIt       ....     0
   Startup error        DIISStart       ....  0.200000
   # of expansion vecs  DIISMaxEq       ....     5
   Bias factor          DIISBfac        ....   1.050
   Max. coefficient     DIISMaxC        ....  10.000
 Trust-Rad. Augm. Hess. CNVTRAH         .... auto
   Auto Start mean grad. ratio tolernc. ....  1.125000
   Auto Start start iteration           ....    20
   Auto Start num. interpolation iter.  ....    10
   Max. Number of Micro iterations      ....    16
   Max. Number of Macro iterations      .... Maxiter - #DIIS iter
   Number of Davidson start vectors     ....     2
   Converg. threshold I  (grad. norm)   ....   1.000e-05
   Converg. threshold II (energy diff.) ....   1.000e-08
   Grad. Scal. Fac. for Micro threshold ....   0.100
   Minimum threshold for Micro iter.    ....   0.010
   NR start threshold (gradient norm)   ....   0.001
   Initial trust radius                 ....   0.400
   Minimum AH scaling param. (alpha)    ....   1.000
   Maximum AH scaling param. (alpha)    .... 1000.000
   Orbital update algorithm             .... Taylor
   White noise on init. David. guess    .... on
   Maximum white noise                  ....   0.010
   Quad. conv. algorithm                .... NR
 SOSCF                  CNVSOSCF        .... on
   Start iteration      SOSCFMaxIt      ....   150
   Startup grad/error   SOSCFStart      ....  0.001000
 Level Shifting         CNVShift        .... on
   Level shift para.    LevelShift      ....    0.2500
   Turn off err/grad.   ShiftErr        ....    0.0000
 Zerner damping         CNVZerner       .... off
 Static damping         CNVDamp         .... on
   Fraction old density DampFac         ....    0.8500
   Max. Damping (<1)    DampMax         ....    0.9800
   Min. Damping (>=0)   DampMin         ....    0.0000
   Turn off err/grad.   DampErr         ....    0.0300
 Fernandez-Rico         CNVRico         .... off

SCF Procedure:
 Maximum # iterations   MaxIter         ....   125
 SCF integral mode      SCFMode         .... Direct
   Integral package                     .... SHARK and LIBINT hybrid scheme
 Reset frequency        DirectResetFreq ....    20
 Integral Threshold     Thresh          ....  2.500e-11 Eh
 Primitive CutOff       TCut            ....  2.500e-12 Eh

Convergence Tolerance:
 Convergence Check Mode ConvCheckMode   .... Total+1el-Energy
 Convergence forced     ConvForced      .... 0
 Energy Change          TolE            ....  1.000e-08 Eh
 1-El. energy change                    ....  1.000e-05 Eh
 Orbital Gradient       TolG            ....  1.000e-05
 Orbital Rotation angle TolX            ....  1.000e-05
 DIIS Error             TolErr          ....  5.000e-07


Diagonalization of the overlap matrix:
Smallest eigenvalue                        ... 2.762e-04
Time for diagonalization                   ...    0.015 sec
Threshold for overlap eigenvalues          ... 1.000e-08
Number of eigenvalues below threshold      ... 0
Time for construction of square roots      ...    0.029 sec
Total time needed                          ...    0.045 sec

Time for model grid setup =    0.330 sec

------------------------------
INITIAL GUESS: MODEL POTENTIAL
------------------------------
Loading Hartree-Fock densities                     ... done
Calculating cut-offs                               ... done
Initializing the effective Hamiltonian             ... done
Setting up the integral package (SHARK)            ... done
Starting the Coulomb interaction                   ... done (   0.2 sec)
Reading the grid                                   ... done
Mapping shells                                     ... done
Starting the XC term evaluation                    ... done (   0.2 sec)
  promolecular density results
     # of electrons  =    115.993887083
     EX              =    -93.356568653
     EC              =     -3.877423282
     EX+EC           =    -97.233991935
Transforming the Hamiltonian                       ... done (   0.0 sec)
Diagonalizing the Hamiltonian                      ... done (   0.0 sec)
Back transforming the eigenvectors                 ... done (   0.0 sec)
Now organizing SCF variables                       ... done
                      ------------------
                      INITIAL GUESS DONE (   0.7 sec)
                      ------------------
-------------------
DFT GRID GENERATION
-------------------

General Integration Accuracy     IntAcc      ... 4.388
Radial Grid Type                 RadialGrid  ... OptM3 with GC (2021)
Angular Grid (max. ang.)         AngularGrid ... 4 (Lebedev-302)
Angular grid pruning method      GridPruning ... 4 (adaptive)
Weight generation scheme         WeightScheme... Becke
Basis function cutoff            BFCut       ... 1.0000e-11
Integration weight cutoff        WCut        ... 1.0000e-14
Angular grids for H and He will be reduced by one unit
Partially contracted basis set               ... off
Rotationally invariant grid construction     ... off

Total number of grid points                  ...   140403
Total number of batches                      ...     2210
Average number of points per batch           ...       63
Average number of grid points per atom       ...     4841
Time for grid setup =    1.070 sec

--------------------
COSX GRID GENERATION
--------------------

GRIDX 1
-------
General Integration Accuracy     IntAcc      ... 3.816
Radial Grid Type                 RadialGrid  ... OptM3 with GC (2021)
Angular Grid (max. ang.)         AngularGrid ... 1 (Lebedev-50)
Angular grid pruning method      GridPruning ... 4 (adaptive)
Weight generation scheme         WeightScheme... Becke
Basis function cutoff            BFCut       ... 1.0000e-11
Integration weight cutoff        WCut        ... 1.0000e-14
Angular grids for H and He will be reduced by one unit
Partially contracted basis set               ... on
Rotationally invariant grid construction     ... off

Total number of grid points                  ...    17901
Total number of batches                      ...      290
Average number of points per batch           ...       61
Average number of grid points per atom       ...      617
UseSFitting                                  ... on

GRIDX 2
-------
General Integration Accuracy     IntAcc      ... 4.020
Radial Grid Type                 RadialGrid  ... OptM3 with GC (2021)
Angular Grid (max. ang.)         AngularGrid ... 2 (Lebedev-110)
Angular grid pruning method      GridPruning ... 4 (adaptive)
Weight generation scheme         WeightScheme... Becke
Basis function cutoff            BFCut       ... 1.0000e-11
Integration weight cutoff        WCut        ... 1.0000e-14
Angular grids for H and He will be reduced by one unit
Partially contracted basis set               ... on
Rotationally invariant grid construction     ... off

Total number of grid points                  ...    39193
Total number of batches                      ...      626
Average number of points per batch           ...       62
Average number of grid points per atom       ...     1351
UseSFitting                                  ... on

GRIDX 3
-------
General Integration Accuracy     IntAcc      ... 4.338
Radial Grid Type                 RadialGrid  ... OptM3 with GC (2021)
Angular Grid (max. ang.)         AngularGrid ... 3 (Lebedev-194)
Angular grid pruning method      GridPruning ... 4 (adaptive)
Weight generation scheme         WeightScheme... Becke
Basis function cutoff            BFCut       ... 1.0000e-11
Integration weight cutoff        WCut        ... 1.0000e-14
Angular grids for H and He will be reduced by one unit
Partially contracted basis set               ... on
Rotationally invariant grid construction     ... off

Total number of grid points                  ...    86029
Total number of batches                      ...     1362
Average number of points per batch           ...       63
Average number of grid points per atom       ...     2967
UseSFitting                                  ... on

Time for X-Grid setup             =    1.470 sec


--------------------
CPCM SOLVATION MODEL
--------------------
CPCM parameters:
  Epsilon                                         ...      80.4000
  Refrac                                          ...       1.3300
  Rsolv                                           ...       1.3000
  Surface type                                    ... GAUSSIAN VDW
  Epsilon function type                           ...         CPCM
Radii:
 Radius for C  used is    3.8550 Bohr (=   2.0400 Ang.)
 Radius for H  used is    2.4944 Bohr (=   1.3200 Ang.)
 Radius for N  used is    3.5149 Bohr (=   1.8600 Ang.)
Calculating surface                               ...        done! (  0.0s)
GEPOL surface points                              ...         1549
GEPOL Volume                                      ...    1841.5348
GEPOL Surface-area                                ...     949.2222
Calculating surface distance matrix               ...        done! (  0.0s)
Performing Cholesky decomposition & store         ...        done! (  0.1s)
Overall time for CPCM initialization              ...                 0.1s
--------------
SCF ITERATIONS
--------------
ITER       Energy         Delta-E        Max-DP      RMS-DP      [F,P]     Damp
               ***  Starting incremental Fock matrix formation  ***
  0   -687.3637982536   0.000000000000 0.02960265  0.00072343  0.1055544 0.8500
  1   -687.4135807685  -0.049782514877 0.03236714  0.00069069  0.0843238 0.8500
                               ***Turning on DIIS***
  2   -687.4524840734  -0.038903304924 0.02916080  0.00057829  0.0645304 0.8500
  3   -687.4821085983  -0.029624524847 0.02502218  0.00044999  0.0510118 0.8500
  4   -687.5053549369  -0.023246338612 0.02118907  0.00036068  0.0415739 0.8500
  5   -687.5238924807  -0.018537543803 0.01794532  0.00029897  0.0347265 0.8500
  6   -687.5390500521  -0.015157571406 0.10175968  0.00168031  0.0293482 0.0000
  7   -687.6191210026  -0.080070950462 0.00143655  0.00005221  0.0012374 0.0000
                      *** Initiating the SOSCF procedure ***
                           *** Shutting down DIIS ***
                      *** Re-Reading the Fockian *** 
                      *** Removing any level shift *** 
ITER      Energy       Delta-E        Grad      Rot      Max-DP    RMS-DP
  8   -687.61917907  -0.0000580658  0.000779  0.000779  0.001974  0.000029
               *** Restarting incremental Fock matrix formation ***
  9   -687.61908726   0.0000918066  0.000481  0.001052  0.000748  0.000022
 10   -687.61909233  -0.0000050658  0.000145  0.000762  0.000632  0.000017
 11   -687.61909353  -0.0000012056  0.000067  0.000106  0.000267  0.000005
 12   -687.61909373  -0.0000001958  0.000014  0.000039  0.000153  0.000001
 13   -687.61909375  -0.0000000177  0.000006  0.000017  0.000019  0.000000
                  ***Gradient check signals convergence***
              ***Rediagonalizing the Fockian in SOSCF/NRSCF***

               *****************************************************
               *                     SUCCESS                       *
               *           SCF CONVERGED AFTER  14 CYCLES          *
               *****************************************************

Old exchange energy                            =    -30.253234039 Eh
New exchange energy                            =    -30.253266564 Eh
Exchange energy change after final integration =     -0.000032525 Eh
Total energy after final integration           =   -687.619126281 Eh
Final COS-X integration done in                =    22.298 sec

----------------
TOTAL SCF ENERGY
----------------

Total Energy       :         -687.61912628 Eh          -18711.06768 eV

Components:
Nuclear Repulsion  :         1037.91022794 Eh           28242.97315 eV
Electronic Energy  :        -1725.52935422 Eh          -46954.04083 eV
One Electron Energy:        -2987.80224713 Eh          -81302.23247 eV
Two Electron Energy:         1262.27289292 Eh           34348.19164 eV
Max COSX asymmetry :            0.00000243 Eh               0.00007 eV
CPCM Dielectric    :           -0.01786960 Eh              -0.48626 eV

Virial components:
Potential Energy   :        -1367.59640222 Eh          -37214.19004 eV
Kinetic Energy     :          679.97727594 Eh           18503.12236 eV
Virial Ratio       :            2.01123839


DFT components:
N(Alpha)           :       58.000064908955 electrons
N(Beta)            :       58.000064908955 electrons
N(Total)           :      116.000129817911 electrons
E(XC)              :      -69.134054896069 Eh       
DFET-embed. en.    :        0.000000000000 Eh       
CPCM Solvation Model Properties:
Surface-charge          :           -0.02499335
Charge-correction       :           -0.00014061 Eh              -0.00383 eV
Free-energy (cav+disp)  :  This term is not implemented in the current solvation scheme

---------------
SCF CONVERGENCE
---------------

  Last Energy change         ...   -9.4720e-09  Tolerance :   1.0000e-08
  Last MAX-Density change    ...    3.1086e-15  Tolerance :   1.0000e-07
  Last RMS-Density change    ...    4.2641e-17  Tolerance :   5.0000e-09
  Last Orbital Gradient      ...    1.7586e-06  Tolerance :   1.0000e-05
  Last Orbital Rotation      ...    6.5418e-06  Tolerance :   1.0000e-05

             **** THE GBW FILE WAS UPDATED (PhH_Water.gbw) ****
             **** DENSITY PhH_Water.scfp WAS UPDATED ****
             **** ENERGY FILE WAS UPDATED (PhH_Water.en.tmp) ****
             **** THE GBW FILE WAS UPDATED (PhH_Water.gbw) ****
             **** DENSITY PhH_Water.scfp WAS UPDATED ****
----------------
ORBITAL ENERGIES
----------------

  NO   OCC          E(Eh)            E(eV) 
   0   2.0000     -14.471143      -393.7798 
   1   2.0000     -14.471143      -393.7798 
   2   2.0000     -10.325517      -280.9716 
   3   2.0000     -10.325463      -280.9701 
   4   2.0000     -10.308408      -280.5061 
   5   2.0000     -10.307791      -280.4892 
   6   2.0000     -10.297031      -280.1965 
   7   2.0000     -10.282408      -279.7985 
   8   2.0000     -10.282405      -279.7985 
   9   2.0000     -10.281333      -279.7693 
  10   2.0000     -10.281332      -279.7693 
  11   2.0000     -10.280736      -279.7531 
  12   2.0000     -10.280733      -279.7530 
  13   2.0000     -10.278854      -279.7018 
  14   2.0000     -10.278851      -279.7017 
  15   2.0000     -10.276967      -279.6505 
  16   2.0000     -10.276966      -279.6505 
  17   2.0000      -1.164211       -31.6798 
  18   2.0000      -1.065732       -29.0001 
  19   2.0000      -0.996507       -27.1163 
  20   2.0000      -0.978030       -26.6135 
  21   2.0000      -0.912143       -24.8207 
  22   2.0000      -0.883814       -24.0498 
  23   2.0000      -0.878968       -23.9179 
  24   2.0000      -0.865889       -23.5620 
  25   2.0000      -0.860478       -23.4148 
  26   2.0000      -0.781718       -21.2716 
  27   2.0000      -0.761653       -20.7256 
  28   2.0000      -0.732306       -19.9271 
  29   2.0000      -0.725346       -19.7377 
  30   2.0000      -0.695606       -18.9284 
  31   2.0000      -0.686342       -18.6763 
  32   2.0000      -0.664522       -18.0826 
  33   2.0000      -0.641208       -17.4482 
  34   2.0000      -0.610190       -16.6041 
  35   2.0000      -0.594025       -16.1642 
  36   2.0000      -0.586170       -15.9505 
  37   2.0000      -0.576685       -15.6924 
  38   2.0000      -0.567348       -15.4383 
  39   2.0000      -0.563731       -15.3399 
  40   2.0000      -0.547221       -14.8906 
  41   2.0000      -0.539630       -14.6841 
  42   2.0000      -0.535266       -14.5653 
  43   2.0000      -0.532998       -14.5036 
  44   2.0000      -0.532984       -14.5032 
  45   2.0000      -0.510122       -13.8811 
  46   2.0000      -0.490026       -13.3343 
  47   2.0000      -0.470696       -12.8083 
  48   2.0000      -0.465501       -12.6669 
  49   2.0000      -0.456840       -12.4313 
  50   2.0000      -0.450714       -12.2646 
  51   2.0000      -0.436334       -11.8733 
  52   2.0000      -0.370630       -10.0853 
  53   2.0000      -0.358945        -9.7674 
  54   2.0000      -0.357709        -9.7337 
  55   2.0000      -0.337641        -9.1877 
  56   2.0000      -0.326732        -8.8908 
  57   2.0000      -0.325625        -8.8607 
  58   0.0000       0.047510         1.2928 
  59   0.0000       0.060243         1.6393 
  60   0.0000       0.065260         1.7758 
  61   0.0000       0.068076         1.8524 
  62   0.0000       0.123797         3.3687 
  63   0.0000       0.130427         3.5491 
  64   0.0000       0.164078         4.4648 
  65   0.0000       0.164606         4.4792 
  66   0.0000       0.185735         5.0541 
  67   0.0000       0.196243         5.3401 
  68   0.0000       0.205852         5.6015 
  69   0.0000       0.216023         5.8783 
  70   0.0000       0.224503         6.1090 
  71   0.0000       0.234018         6.3680 
  72   0.0000       0.244843         6.6625 
  73   0.0000       0.250974         6.8294 
  74   0.0000       0.253924         6.9096 
  75   0.0000       0.259429         7.0594 
  76   0.0000       0.262303         7.1376 
  77   0.0000       0.272659         7.4194 
  78   0.0000       0.276776         7.5315 
  79   0.0000       0.296047         8.0559 
  80   0.0000       0.310452         8.4478 
  81   0.0000       0.330750         9.0002 
  82   0.0000       0.341244         9.2857 
  83   0.0000       0.368227        10.0200 
  84   0.0000       0.376328        10.2404 
  85   0.0000       0.377213        10.2645 
  86   0.0000       0.383413        10.4332 
  87   0.0000       0.392053        10.6683 
  88   0.0000       0.396171        10.7804 
  89   0.0000       0.412479        11.2241 
  90   0.0000       0.425056        11.5664 
  91   0.0000       0.441125        12.0036 
  92   0.0000       0.442170        12.0321 
  93   0.0000       0.450305        12.2534 
  94   0.0000       0.469400        12.7730 
  95   0.0000       0.471339        12.8258 
  96   0.0000       0.492491        13.4014 
  97   0.0000       0.497566        13.5394 
  98   0.0000       0.500211        13.6114 
  99   0.0000       0.503947        13.7131 
 100   0.0000       0.504687        13.7332 
 101   0.0000       0.521784        14.1985 
 102   0.0000       0.542160        14.7529 
 103   0.0000       0.547410        14.8958 
 104   0.0000       0.554478        15.0881 
 105   0.0000       0.570204        15.5161 
 106   0.0000       0.581655        15.8276 
 107   0.0000       0.582840        15.8599 
 108   0.0000       0.585540        15.9334 
 109   0.0000       0.593481        16.1494 
 110   0.0000       0.598187        16.2775 
 111   0.0000       0.599159        16.3039 
 112   0.0000       0.604938        16.4612 
 113   0.0000       0.626654        17.0521 
 114   0.0000       0.629031        17.1168 
 115   0.0000       0.639722        17.4077 
 116   0.0000       0.643886        17.5210 
 117   0.0000       0.653514        17.7830 
 118   0.0000       0.656129        17.8542 
 119   0.0000       0.676061        18.3965 
 120   0.0000       0.681540        18.5456 
 121   0.0000       0.684703        18.6317 
 122   0.0000       0.693595        18.8737 
 123   0.0000       0.716829        19.5059 
 124   0.0000       0.736125        20.0310 
 125   0.0000       0.744532        20.2597 
 126   0.0000       0.747268        20.3342 
 127   0.0000       0.757127        20.6025 
 128   0.0000       0.757430        20.6107 
 129   0.0000       0.762065        20.7369 
 130   0.0000       0.768587        20.9143 
 131   0.0000       0.769183        20.9305 
 132   0.0000       0.781342        21.2614 
 133   0.0000       0.785251        21.3678 
 134   0.0000       0.785424        21.3725 
 135   0.0000       0.797199        21.6929 
 136   0.0000       0.808671        22.0050 
 137   0.0000       0.821485        22.3538 
 138   0.0000       0.824316        22.4308 
 139   0.0000       0.828870        22.5547 
 140   0.0000       0.834658        22.7122 
 141   0.0000       0.840120        22.8608 
 142   0.0000       0.842781        22.9332 
 143   0.0000       0.855509        23.2796 
 144   0.0000       0.855623        23.2827 
 145   0.0000       0.877271        23.8718 
 146   0.0000       0.881345        23.9826 
 147   0.0000       0.900683        24.5088 
 148   0.0000       0.909253        24.7420 
 149   0.0000       0.925267        25.1778 
 150   0.0000       0.933153        25.3924 
 151   0.0000       0.949533        25.8381 
 152   0.0000       0.955010        25.9871 
 153   0.0000       0.968796        26.3623 
 154   0.0000       1.011554        27.5258 
 155   0.0000       1.032852        28.1053 
 156   0.0000       1.042077        28.3563 
 157   0.0000       1.043446        28.3936 
 158   0.0000       1.061440        28.8833 
 159   0.0000       1.083142        29.4738 
 160   0.0000       1.106783        30.1171 
 161   0.0000       1.123641        30.5758 
 162   0.0000       1.173179        31.9238 
 163   0.0000       1.183066        32.1929 
 164   0.0000       1.183166        32.1956 
 165   0.0000       1.269218        34.5372 
 166   0.0000       1.273305        34.6484 
 167   0.0000       1.288371        35.0584 
 168   0.0000       1.303879        35.4804 
 169   0.0000       1.307880        35.5892 
 170   0.0000       1.321573        35.9618 
 171   0.0000       1.334030        36.3008 
 172   0.0000       1.340193        36.4685 
 173   0.0000       1.341652        36.5082 
 174   0.0000       1.357858        36.9492 
 175   0.0000       1.360249        37.0143 
 176   0.0000       1.363517        37.1032 
 177   0.0000       1.367787        37.2194 
 178   0.0000       1.383089        37.6358 
 179   0.0000       1.385564        37.7031 
 180   0.0000       1.404915        38.2297 
 181   0.0000       1.408353        38.3232 
 182   0.0000       1.408626        38.3307 
 183   0.0000       1.412420        38.4339 
 184   0.0000       1.425477        38.7892 
 185   0.0000       1.513658        41.1887 
 186   0.0000       1.571111        42.7521 
 187   0.0000       1.590338        43.2753 
 188   0.0000       1.599034        43.5119 
 189   0.0000       1.635528        44.5050 
 190   0.0000       1.673477        45.5376 
 191   0.0000       1.685505        45.8649 
 192   0.0000       1.733622        47.1743 
 193   0.0000       1.769490        48.1503 
 194   0.0000       1.773395        48.2565 
 195   0.0000       1.777181        48.3595 
 196   0.0000       1.785844        48.5953 
 197   0.0000       1.794042        48.8184 
 198   0.0000       1.806454        49.1561 
 199   0.0000       1.821509        49.5658 
 200   0.0000       1.836454        49.9725 
 201   0.0000       1.851025        50.3690 
 202   0.0000       1.855440        50.4891 
 203   0.0000       1.857016        50.5320 
 204   0.0000       1.863578        50.7105 
 205   0.0000       1.867231        50.8099 
 206   0.0000       1.872880        50.9637 
 207   0.0000       1.877582        51.0916 
 208   0.0000       1.887175        51.3526 
 209   0.0000       1.887335        51.3570 
 210   0.0000       1.893805        51.5331 
 211   0.0000       1.894112        51.5414 
 212   0.0000       1.902655        51.7739 
 213   0.0000       1.906426        51.8765 
 214   0.0000       1.930998        52.5451 
 215   0.0000       1.943096        52.8743 
 216   0.0000       1.954361        53.1809 
 217   0.0000       1.998217        54.3742 
 218   0.0000       1.998481        54.3814 
 219   0.0000       2.005859        54.5822 
 220   0.0000       2.041222        55.5445 
 221   0.0000       2.055861        55.9428 
 222   0.0000       2.060537        56.0701 
 223   0.0000       2.075902        56.4882 
 224   0.0000       2.094454        56.9930 
 225   0.0000       2.094653        56.9984 
 226   0.0000       2.099263        57.1238 
 227   0.0000       2.103655        57.2434 
 228   0.0000       2.110888        57.4402 
 229   0.0000       2.119842        57.6838 
 230   0.0000       2.129132        57.9366 
 231   0.0000       2.132021        58.0152 
 232   0.0000       2.189445        59.5778 
 233   0.0000       2.193914        59.6994 
 234   0.0000       2.215053        60.2747 
 235   0.0000       2.220328        60.4182 
 236   0.0000       2.231855        60.7319 
 237   0.0000       2.246311        61.1252 
 238   0.0000       2.249530        61.2128 
 239   0.0000       2.260211        61.5035 
 240   0.0000       2.264573        61.6222 
 241   0.0000       2.299079        62.5611 
 242   0.0000       2.309803        62.8529 
 243   0.0000       2.320916        63.1553 
 244   0.0000       2.350319        63.9554 
 245   0.0000       2.352550        64.0161 
 246   0.0000       2.384692        64.8908 
 247   0.0000       2.390241        65.0418 
 248   0.0000       2.404344        65.4255 
 249   0.0000       2.409732        65.5722 
 250   0.0000       2.423348        65.9427 
 251   0.0000       2.424474        65.9733 
 252   0.0000       2.450134        66.6715 
 253   0.0000       2.453168        66.7541 
 254   0.0000       2.458661        66.9036 
 255   0.0000       2.459003        66.9129 
 256   0.0000       2.487819        67.6970 
 257   0.0000       2.498274        67.9815 
 258   0.0000       2.503246        68.1168 
 259   0.0000       2.584598        70.3305 
 260   0.0000       2.620970        71.3202 
 261   0.0000       2.628687        71.5302 
 262   0.0000       2.697359        73.3989 
 263   0.0000       2.705283        73.6145 
 264   0.0000       2.708293        73.6964 
 265   0.0000       2.717832        73.9560 
 266   0.0000       2.736708        74.4696 
 267   0.0000       2.750749        74.8517 
 268   0.0000       2.769866        75.3719 
 269   0.0000       2.777364        75.5759 
 270   0.0000       2.829449        76.9932 
 271   0.0000       2.841994        77.3346 
 272   0.0000       2.848776        77.5191 
 273   0.0000       2.857742        77.7631 
 274   0.0000       2.859138        77.8011 
 275   0.0000       2.860134        77.8282 
 276   0.0000       2.863236        77.9126 
 277   0.0000       2.903188        78.9998 
 278   0.0000       2.928348        79.6844 
 279   0.0000       2.941213        80.0345 
 280   0.0000       2.970728        80.8376 
 281   0.0000       2.991481        81.4023 
 282   0.0000       2.999015        81.6073 
 283   0.0000       3.003836        81.7385 
 284   0.0000       3.004638        81.7604 
 285   0.0000       3.076299        83.7104 
 286   0.0000       3.117162        84.8223 
 287   0.0000       3.183005        86.6140 
 288   0.0000       3.191160        86.8359 
 289   0.0000       3.227977        87.8377 
 290   0.0000       3.274524        89.1043 
 291   0.0000       3.303580        89.8950 
 292   0.0000       3.376554        91.8807 
 293   0.0000       3.467683        94.3604 
 294   0.0000       3.510691        95.5308 
 295   0.0000       3.637541        98.9825 
 296   0.0000       3.784373       102.9780 
 297   0.0000       3.799535       103.3906 

                    ********************************
                    * MULLIKEN POPULATION ANALYSIS *
                    ********************************

-----------------------
MULLIKEN ATOMIC CHARGES
-----------------------
   0 C :    0.045764
   1 C :    0.045764
   2 H :    0.075234
   3 H :    0.075233
   4 C :    0.159928
   5 C :   -0.040623
   6 C :   -0.070183
   7 C :   -0.020229
   8 H :    0.013528
   9 C :   -0.024738
  10 H :    0.029340
  11 C :   -0.018195
  12 H :    0.037296
  13 H :    0.037960
  14 H :    0.034699
  15 C :    0.159928
  16 C :   -0.040622
  17 C :   -0.070186
  18 C :   -0.020231
  19 H :    0.013528
  20 C :   -0.024735
  21 H :    0.029339
  22 C :   -0.018196
  23 H :    0.037296
  24 H :    0.037960
  25 H :    0.034699
  26 C :   -0.125190
  27 N :   -0.197184
  28 N :   -0.197183
Sum of atomic charges:   -0.0000000

--------------------------------
MULLIKEN REDUCED ORBITAL CHARGES
--------------------------------
  0 C s       :     3.137526  s :     3.137526
      pz      :     0.790609  p :     2.770172
      px      :     1.060751
      py      :     0.918811
      dz2     :     0.014242  d :     0.046538
      dxz     :     0.007106
      dyz     :     0.012418
      dx2y2   :     0.004774
      dxy     :     0.007999
  1 C s       :     3.137526  s :     3.137526
      pz      :     0.790608  p :     2.770172
      px      :     1.060751
      py      :     0.918813
      dz2     :     0.014242  d :     0.046538
      dxz     :     0.007106
      dyz     :     0.012418
      dx2y2   :     0.004774
      dxy     :     0.007999
  2 H s       :     0.899629  s :     0.899629
      pz      :     0.011261  p :     0.025137
      px      :     0.005192
      py      :     0.008683
  3 H s       :     0.899630  s :     0.899630
      pz      :     0.011261  p :     0.025137
      px      :     0.005192
      py      :     0.008683
  4 C s       :     2.965264  s :     2.965264
      pz      :     0.980832  p :     2.818823
      px      :     0.989934
      py      :     0.848056
      dz2     :     0.011337  d :     0.055986
      dxz     :     0.006798
      dyz     :     0.014314
      dx2y2   :     0.011708
      dxy     :     0.011829
  5 C s       :     3.246864  s :     3.246864
      pz      :     0.941191  p :     2.760469
      px      :     0.973797
      py      :     0.845481
      dz2     :     0.007880  d :     0.033290
      dxz     :     0.004951
      dyz     :     0.009319
      dx2y2   :     0.005201
      dxy     :     0.005940
  6 C s       :     3.236295  s :     3.236295
      pz      :     0.888095  p :     2.800638
      px      :     0.973422
      py      :     0.939121
      dz2     :     0.006102  d :     0.033250
      dxz     :     0.003573
      dyz     :     0.009987
      dx2y2   :     0.005983
      dxy     :     0.007605
  7 C s       :     3.159093  s :     3.159093
      pz      :     0.916561  p :     2.825816
      px      :     0.961662
      py      :     0.947593
      dz2     :     0.007315  d :     0.035321
      dxz     :     0.003832
      dyz     :     0.009857
      dx2y2   :     0.006727
      dxy     :     0.007590
  8 H s       :     0.962082  s :     0.962082
      pz      :     0.007295  p :     0.024390
      px      :     0.005810
      py      :     0.011285
  9 C s       :     3.160892  s :     3.160892
      pz      :     0.940217  p :     2.828518
      px      :     0.962059
      py      :     0.926242
      dz2     :     0.007742  d :     0.035328
      dxz     :     0.005022
      dyz     :     0.010863
      dx2y2   :     0.005301
      dxy     :     0.006400
 10 H s       :     0.946605  s :     0.946605
      pz      :     0.013682  p :     0.024055
      px      :     0.006732
      py      :     0.003641
 11 C s       :     3.160265  s :     3.160265
      pz      :     0.953346  p :     2.823212
      px      :     0.985546
      py      :     0.884320
      dz2     :     0.008809  d :     0.034719
      dxz     :     0.005670
      dyz     :     0.009669
      dx2y2   :     0.006048
      dxy     :     0.004523
 12 H s       :     0.939127  s :     0.939127
      pz      :     0.013758  p :     0.023577
      px      :     0.006064
      py      :     0.003756
 13 H s       :     0.938418  s :     0.938418
      pz      :     0.007563  p :     0.023622
      px      :     0.006068
      py      :     0.009990
 14 H s       :     0.941734  s :     0.941734
      pz      :     0.004598  p :     0.023567
      px      :     0.003980
      py      :     0.014989
 15 C s       :     2.965263  s :     2.965263
      pz      :     0.980832  p :     2.818823
      px      :     0.989934
      py      :     0.848057
      dz2     :     0.011337  d :     0.055986
      dxz     :     0.006798
      dyz     :     0.014314
      dx2y2   :     0.011708
      dxy     :     0.011829
 16 C s       :     3.246861  s :     3.246861
      pz      :     0.941191  p :     2.760470
      px      :     0.973799
      py      :     0.845480
      dz2     :     0.007880  d :     0.033290
      dxz     :     0.004951
      dyz     :     0.009319
      dx2y2   :     0.005201
      dxy     :     0.005940
 17 C s       :     3.236296  s :     3.236296
      pz      :     0.888097  p :     2.800640
      px      :     0.973421
      py      :     0.939122
      dz2     :     0.006102  d :     0.033250
      dxz     :     0.003573
      dyz     :     0.009987
      dx2y2   :     0.005983
      dxy     :     0.007605
 18 C s       :     3.159095  s :     3.159095
      pz      :     0.916560  p :     2.825815
      px      :     0.961662
      py      :     0.947593
      dz2     :     0.007315  d :     0.035321
      dxz     :     0.003832
      dyz     :     0.009857
      dx2y2   :     0.006727
      dxy     :     0.007590
 19 H s       :     0.962082  s :     0.962082
      pz      :     0.007295  p :     0.024390
      px      :     0.005810
      py      :     0.011285
 20 C s       :     3.160890  s :     3.160890
      pz      :     0.940217  p :     2.828517
      px      :     0.962059
      py      :     0.926241
      dz2     :     0.007742  d :     0.035328
      dxz     :     0.005022
      dyz     :     0.010863
      dx2y2   :     0.005301
      dxy     :     0.006400
 21 H s       :     0.946605  s :     0.946605
      pz      :     0.013682  p :     0.024055
      px      :     0.006732
      py      :     0.003641
 22 C s       :     3.160264  s :     3.160264
      pz      :     0.953346  p :     2.823213
      px      :     0.985547
      py      :     0.884321
      dz2     :     0.008809  d :     0.034719
      dxz     :     0.005670
      dyz     :     0.009669
      dx2y2   :     0.006048
      dxy     :     0.004523
 23 H s       :     0.939126  s :     0.939126
      pz      :     0.013758  p :     0.023577
      px      :     0.006064
      py      :     0.003756
 24 H s       :     0.938418  s :     0.938418
      pz      :     0.007563  p :     0.023622
      px      :     0.006068
      py      :     0.009990
 25 H s       :     0.941734  s :     0.941734
      pz      :     0.004598  p :     0.023567
      px      :     0.003980
      py      :     0.014989
 26 C s       :     3.606263  s :     3.606263
      pz      :     1.138106  p :     2.454819
      px      :     0.667546
      py      :     0.649168
      dz2     :     0.008308  d :     0.064108
      dxz     :     0.009460
      dyz     :     0.028108
      dx2y2   :     0.007094
      dxy     :     0.011139
 27 N s       :     3.378081  s :     3.378081
      pz      :     1.121047  p :     3.787749
      px      :     1.522961
      py      :     1.143741
      dz2     :     0.008353  d :     0.031354
      dxz     :     0.005395
      dyz     :     0.008614
      dx2y2   :     0.005002
      dxy     :     0.003990
 28 N s       :     3.378080  s :     3.378080
      pz      :     1.121047  p :     3.787749
      px      :     1.522961
      py      :     1.143741
      dz2     :     0.008353  d :     0.031354
      dxz     :     0.005395
      dyz     :     0.008614
      dx2y2   :     0.005002
      dxy     :     0.003990


                     *******************************
                     * LOEWDIN POPULATION ANALYSIS *
                     *******************************

----------------------
LOEWDIN ATOMIC CHARGES
----------------------
   0 C :   -0.010810
   1 C :   -0.010810
   2 H :    0.044729
   3 H :    0.044729
   4 C :    0.023597
   5 C :   -0.034860
   6 C :   -0.044267
   7 C :   -0.023109
   8 H :    0.033419
   9 C :   -0.021953
  10 H :    0.041214
  11 C :   -0.038389
  12 H :    0.040182
  13 H :    0.040789
  14 H :    0.038428
  15 C :    0.023597
  16 C :   -0.034860
  17 C :   -0.044267
  18 C :   -0.023109
  19 H :    0.033419
  20 C :   -0.021953
  21 H :    0.041214
  22 C :   -0.038389
  23 H :    0.040182
  24 H :    0.040789
  25 H :    0.038428
  26 C :   -0.250553
  27 N :    0.036304
  28 N :    0.036304

-------------------------------
LOEWDIN REDUCED ORBITAL CHARGES
-------------------------------
  0 C s       :     2.858600  s :     2.858600
      pz      :     0.928893  p :     3.036654
      px      :     1.049926
      py      :     1.057835
      dz2     :     0.037836  d :     0.115555
      dxz     :     0.014269
      dyz     :     0.034093
      dx2y2   :     0.013665
      dxy     :     0.015692
  1 C s       :     2.858600  s :     2.858600
      pz      :     0.928893  p :     3.036654
      px      :     1.049926
      py      :     1.057835
      dz2     :     0.037836  d :     0.115555
      dxz     :     0.014269
      dyz     :     0.034093
      dx2y2   :     0.013665
      dxy     :     0.015692
  2 H s       :     0.880418  s :     0.880418
      pz      :     0.033088  p :     0.074853
      px      :     0.016917
      py      :     0.024848
  3 H s       :     0.880418  s :     0.880418
      pz      :     0.033088  p :     0.074853
      px      :     0.016917
      py      :     0.024848
  4 C s       :     2.834093  s :     2.834093
      pz      :     1.063527  p :     3.006431
      px      :     1.010435
      py      :     0.932469
      dz2     :     0.028505  d :     0.135879
      dxz     :     0.016023
      dyz     :     0.037571
      dx2y2   :     0.027623
      dxy     :     0.026158
  5 C s       :     2.856314  s :     2.856314
      pz      :     1.034424  p :     3.089930
      px      :     0.994753
      py      :     1.060754
      dz2     :     0.021049  d :     0.088615
      dxz     :     0.012169
      dyz     :     0.027570
      dx2y2   :     0.014052
      dxy     :     0.013776
  6 C s       :     2.855044  s :     2.855044
      pz      :     1.036435  p :     3.100881
      px      :     1.003718
      py      :     1.060728
      dz2     :     0.016425  d :     0.088342
      dxz     :     0.008602
      dyz     :     0.028166
      dx2y2   :     0.016992
      dxy     :     0.018157
  7 C s       :     2.855826  s :     2.855826
      pz      :     1.033115  p :     3.075740
      px      :     0.977471
      py      :     1.065154
      dz2     :     0.019021  d :     0.091543
      dxz     :     0.008852
      dyz     :     0.027518
      dx2y2   :     0.018348
      dxy     :     0.017805
  8 H s       :     0.893795  s :     0.893795
      pz      :     0.022175  p :     0.072786
      px      :     0.018467
      py      :     0.032143
  9 C s       :     2.855637  s :     2.855637
      pz      :     1.042840  p :     3.074824
      px      :     0.978975
      py      :     1.053009
      dz2     :     0.020324  d :     0.091491
      dxz     :     0.012063
      dyz     :     0.030180
      dx2y2   :     0.014218
      dxy     :     0.014706
 10 H s       :     0.887703  s :     0.887703
      pz      :     0.037723  p :     0.071082
      px      :     0.020440
      py      :     0.012919
 11 C s       :     2.856552  s :     2.856552
      pz      :     1.048307  p :     3.091362
      px      :     0.994286
      py      :     1.048768
      dz2     :     0.023142  d :     0.090474
      dxz     :     0.014413
      dyz     :     0.027164
      dx2y2   :     0.015271
      dxy     :     0.010485
 12 H s       :     0.891024  s :     0.891024
      pz      :     0.037542  p :     0.068793
      px      :     0.018557
      py      :     0.012694
 13 H s       :     0.890356  s :     0.890356
      pz      :     0.022356  p :     0.068856
      px      :     0.018548
      py      :     0.027951
 14 H s       :     0.892270  s :     0.892270
[...]
     86       0.000102  -0.000152   0.000196  -0.000286   0.000248  -0.000450
                 84         85         86    
      0      -0.000001  -0.000828   0.000853
      1       0.000026   0.038859  -0.049997
      2       0.000054  -0.048204   0.047960
      3       0.000001  -0.000828  -0.000853
      4      -0.000026   0.038859   0.049997
      5       0.000054   0.048204   0.047960
      6       0.000044   0.008412  -0.008513
      7       0.000622  -0.457335   0.461426
      8      -0.001181   0.534742  -0.530739
      9      -0.000044   0.008413   0.008514
     10      -0.000622  -0.457337  -0.461423
     11      -0.001182  -0.534744  -0.530736
     12       0.001236  -0.000027   0.000003
     13      -0.001078   0.000247  -0.000023
     14      -0.002587  -0.000215   0.000316
     15      -0.025316  -0.000053   0.000033
     16      -0.043625  -0.000244   0.000159
     17       0.033130   0.000033  -0.000009
     18       0.000662   0.001273  -0.000937
     19      -0.000198  -0.000515   0.000353
     20      -0.001234  -0.002197   0.001575
     21      -0.006672  -0.000045  -0.000001
     22       0.006456   0.000095  -0.000050
     23       0.014995   0.000106  -0.000033
     24       0.282509   0.000608  -0.000125
     25       0.485828   0.001090  -0.000396
     26      -0.375223  -0.000673   0.000221
     27       0.001698   0.000075  -0.000027
     28       0.002578   0.000239  -0.000124
     29      -0.002425  -0.000057   0.000002
     30      -0.006300  -0.012958   0.009387
     31       0.003071   0.007952  -0.006025
     32       0.012719   0.027191  -0.019860
     33       0.000368  -0.000030   0.000018
     34       0.006378  -0.000014   0.000016
     35       0.001369   0.000034  -0.000008
     36       0.075550   0.000596  -0.000211
     37      -0.043303  -0.000426   0.000205
     38      -0.158656  -0.001286   0.000493
     39      -0.017252  -0.000896   0.000329
     40      -0.028782  -0.001750   0.000721
     41       0.023490   0.001276  -0.000496
     42      -0.000150  -0.000018   0.000055
     43      -0.063269   0.000073  -0.000189
     44      -0.020135   0.000054  -0.000064
     45      -0.001237  -0.000027  -0.000003
     46       0.001079   0.000247   0.000023
     47      -0.002589   0.000215   0.000316
     48       0.025331  -0.000053  -0.000033
     49       0.043650  -0.000244  -0.000159
     50       0.033149  -0.000033  -0.000009
     51      -0.000662   0.001273   0.000937
     52       0.000198  -0.000515  -0.000353
     53      -0.001235   0.002197   0.001575
     54       0.006675  -0.000045   0.000001
     55      -0.006460   0.000095   0.000050
     56       0.015004  -0.000106  -0.000033
     57      -0.282674   0.000608   0.000126
     58      -0.486111   0.001090   0.000396
     59      -0.375441   0.000673   0.000221
     60      -0.001699   0.000075   0.000027
     61      -0.002580   0.000239   0.000124
     62      -0.002427   0.000057   0.000002
     63       0.006304  -0.012958  -0.009387
     64      -0.003073   0.007952   0.006025
     65       0.012728  -0.027191  -0.019860
     66      -0.000368  -0.000030  -0.000018
     67      -0.006382  -0.000014  -0.000016
     68       0.001370  -0.000034  -0.000008
     69      -0.075595   0.000596   0.000211
     70       0.043329  -0.000426  -0.000205
     71      -0.158749   0.001286   0.000493
     72       0.017263  -0.000896  -0.000329
     73       0.028799  -0.001750  -0.000722
     74       0.023504  -0.001276  -0.000496
     75       0.000150  -0.000018  -0.000055
     76       0.063305   0.000073   0.000189
     77      -0.020146  -0.000054  -0.000064
     78      -0.000000  -0.000005   0.000000
     79       0.000000  -0.001663  -0.000000
     80      -0.000302  -0.000000  -0.001061
     81      -0.000154  -0.000003   0.000026
     82      -0.000106  -0.000032  -0.000668
     83       0.000347   0.000675  -0.002639
     84       0.000154  -0.000003  -0.000026
     85       0.000106  -0.000032   0.000668
     86       0.000347  -0.000675  -0.002639


-----------
IR SPECTRUM
-----------

 Mode   freq       eps      Int      T**2         TX        TY        TZ
       cm**-1   L/(mol*cm) km/mol    a.u.
----------------------------------------------------------------------------
  6:     18.41   0.000002    0.01  0.000035  ( 0.000001 -0.000001  0.005913)
  7:     35.40   0.000112    0.56  0.000983  ( 0.007163 -0.030529 -0.000000)
  8:     75.02   0.000082    0.41  0.000340  ( 0.000000  0.000000 -0.018434)
  9:     86.73   0.004247   21.46  0.015282  (-0.113731  0.048444 -0.000000)
 10:    135.49   0.000003    0.02  0.000007  (-0.000000 -0.000000 -0.002668)
 11:    179.26   0.000616    3.11  0.001072  (-0.016103 -0.028507 -0.000000)
 12:    260.58   0.000038    0.19  0.000045  ( 0.000000 -0.000000 -0.006708)
 13:    293.83   0.001655    8.36  0.001757  (-0.021371  0.036062  0.000000)
 14:    311.70   0.000081    0.41  0.000081  (-0.000000 -0.000000  0.009006)
 15:    420.24   0.000003    0.01  0.000002  (-0.000259  0.001380  0.000000)
 16:    425.71   0.000008    0.04  0.000006  (-0.000000 -0.000000  0.002346)
 17:    431.17   0.000005    0.02  0.000004  ( 0.000001 -0.000026  0.001875)
 18:    431.22   0.000144    0.73  0.000104  ( 0.000458 -0.010188 -0.000005)
 19:    492.42   0.001744    8.81  0.001105  (-0.015397  0.029465  0.000000)
 20:    538.79   0.001187    6.00  0.000688  ( 0.000000 -0.000000  0.026222)
 21:    570.07   0.004362   22.04  0.002388  (-0.038795 -0.029712  0.000000)
 22:    628.79   0.000262    1.32  0.000130  ( 0.001714  0.011273  0.000000)
 23:    629.95   0.000212    1.07  0.000105  ( 0.000000  0.000000 -0.010258)
 24:    660.70   0.000919    4.64  0.000434  (-0.011375  0.017451 -0.000001)
 25:    662.03   0.000702    3.55  0.000331  ( 0.000001 -0.000000 -0.018196)
 26:    692.05   0.000540    2.73  0.000243  (-0.000000  0.000000 -0.015598)
 27:    724.07   0.004727   23.89  0.002037  (-0.000036  0.000007  0.045138)
 28:    724.49   0.017444   88.15  0.007514  ( 0.084324 -0.020077  0.000019)
 29:    726.60   0.013760   69.54  0.005910  (-0.038306 -0.066652 -0.000001)
 30:    747.17   0.017583   88.86  0.007344  (-0.085295  0.008267 -0.000000)
 31:    802.75   0.003154   15.94  0.001226  ( 0.000009 -0.000003 -0.035015)
 32:    803.94   0.015583   78.75  0.006049  (-0.073550  0.025281 -0.000004)
 33:    871.74   0.000066    0.33  0.000024  ( 0.000000 -0.000000  0.004868)
 34:    871.81   0.000012    0.06  0.000004  (-0.002067  0.000333  0.000001)
 35:    889.64   0.000041    0.21  0.000014  (-0.000000  0.000000 -0.003788)
 36:    962.67   0.000401    2.02  0.000130  (-0.000001  0.000000  0.011394)
 37:    962.92   0.003744   18.92  0.001213  ( 0.025315 -0.023927  0.000000)
 38:    967.65   0.005264   26.60  0.001698  (-0.008233 -0.040373 -0.000000)
 39:    976.44   0.000481    2.43  0.000154  (-0.000000 -0.000001  0.012394)
 40:   1021.39   0.000079    0.40  0.000024  (-0.001221  0.004762 -0.000000)
 41:   1022.02   0.000055    0.28  0.000017  (-0.000000  0.000000  0.004108)
 42:   1025.85   0.000029    0.14  0.000009  (-0.002882  0.000623  0.000003)
 43:   1025.92   0.000076    0.38  0.000023  (-0.000002  0.000000 -0.004801)
 44:   1050.62   0.000003    0.01  0.000001  ( 0.000003 -0.000004  0.000894)
 45:   1050.68   0.000363    1.84  0.000108  (-0.006070  0.008429  0.000000)
 46:   1058.75   0.000904    4.57  0.000266  ( 0.000000 -0.000000  0.016322)
 47:   1060.89   0.003609   18.24  0.001062  (-0.002500  0.032488  0.000000)
 48:   1089.24   0.000944    4.77  0.000270  ( 0.000000  0.000000 -0.016445)
 49:   1098.60   0.004529   22.89  0.001287  (-0.017925 -0.031069 -0.000000)
 50:   1111.59   0.009016   45.56  0.002531  (-0.000000  0.000000  0.050310)
 51:   1115.57   0.001927    9.74  0.000539  ( 0.012502 -0.019565  0.000000)
 52:   1135.29   0.000769    3.88  0.000211  ( 0.000000 -0.000000  0.014535)
 53:   1156.24   0.000014    0.07  0.000004  (-0.000000  0.000000  0.001936)
 54:   1156.52   0.000043    0.22  0.000012  ( 0.000258  0.003406 -0.000000)
 55:   1181.34   0.000266    1.34  0.000070  ( 0.000001 -0.000001  0.008381)
 56:   1181.77   0.000062    0.31  0.000016  (-0.002924  0.002799  0.000002)
 57:   1293.78   0.009387   47.44  0.002264  ( 0.001088 -0.047571  0.000000)
 58:   1304.94   0.001104    5.58  0.000264  ( 0.000000 -0.000002 -0.016247)
 59:   1307.02   0.008855   44.75  0.002114  (-0.000043 -0.045980  0.000001)
 60:   1352.18   0.000582    2.94  0.000134  ( 0.002494  0.011314  0.000001)
 61:   1352.62   0.000039    0.20  0.000009  ( 0.000000  0.000003 -0.002985)
 62:   1358.33   0.012950   65.44  0.002975  ( 0.002412  0.054492 -0.000000)
 63:   1390.79   0.003277   16.56  0.000735  (-0.000000 -0.000000 -0.027114)
 64:   1432.37   0.000072    0.36  0.000016  (-0.000000  0.000000  0.003947)
 65:   1464.67   0.034944  176.59  0.007445  ( 0.000862  0.086281  0.000000)
 66:   1506.37   0.001545    7.81  0.000320  ( 0.011088 -0.014042  0.000000)
 67:   1510.98   0.001251    6.32  0.000258  ( 0.000000 -0.000000 -0.016073)
 68:   1555.83   0.089723  453.42  0.017996  (-0.000002  0.134150 -0.000000)
 69:   1564.51   0.003685   18.62  0.000735  (-0.000000  0.000001  0.027113)
 70:   1663.45   0.002252   11.38  0.000423  ( 0.000000 -0.000000 -0.020556)
 71:   1693.92   0.001993   10.07  0.000367  ( 0.012324  0.014674  0.000000)
 72:   1699.72   0.000739    3.74  0.000136  ( 0.000000  0.000000 -0.011652)
 73:   1707.51   0.031098  157.16  0.005683  ( 0.001481 -0.075374  0.000000)
 74:   1711.29   0.002537   12.82  0.000463  ( 0.000000 -0.000001 -0.021509)
 75:   3214.46   0.000269    1.36  0.000026  ( 0.000410 -0.005096  0.000001)
 76:   3214.50   0.000049    0.25  0.000005  (-0.000000  0.000002  0.002184)
 77:   3222.09   0.001147    5.80  0.000111  ( 0.007503  0.007405  0.000007)
 78:   3222.11   0.001607    8.12  0.000156  ( 0.000004  0.000004 -0.012476)
 79:   3231.11   0.003060   15.47  0.000296  (-0.003521  0.016828 -0.000021)
 80:   3231.16   0.001697    8.57  0.000164  (-0.000006  0.000028  0.012801)
 81:   3237.74   0.001676    8.47  0.000162  (-0.002953 -0.012362 -0.000002)
 82:   3237.79   0.000047    0.24  0.000005  (-0.000003 -0.000011  0.002124)
 83:   3248.77   0.000039    0.20  0.000004  (-0.001583  0.001125 -0.000000)
 84:   3248.89   0.000000    0.00  0.000000  ( 0.000000 -0.000000  0.000106)
 85:   3299.07   0.004082   20.63  0.000386  ( 0.000245 -0.019647  0.000000)
 86:   3319.22   0.001276    6.45  0.000120  (-0.000000  0.000000 -0.010952)

* The epsilon (eps) is given for a Dirac delta lineshape.
** The dipole moment derivative (T) already includes vibrational overlap.

The first frequency considered to be a vibration is 6
The total number of vibrations considered is 81


--------------------------
THERMOCHEMISTRY AT 298.15K
--------------------------

Temperature         ... 298.15 K
Pressure            ... 1.00 atm
Total Mass          ... 220.28 AMU

Throughout the following assumptions are being made:
  (1) The electronic state is orbitally nondegenerate
  (2) There are no thermally accessible electronically excited states
  (3) Hindered rotations indicated by low frequency modes are not
      treated as such but are treated as vibrations and this may
      cause some error
  (4) All equations used are the standard statistical mechanics
      equations for an ideal gas
  (5) All vibrations are strictly harmonic

freq.      18.41  E(vib)   ...       0.57 
freq.      35.40  E(vib)   ...       0.54 
freq.      75.02  E(vib)   ...       0.49 
freq.      86.73  E(vib)   ...       0.48 
freq.     135.49  E(vib)   ...       0.42 
freq.     179.26  E(vib)   ...       0.37 
freq.     260.58  E(vib)   ...       0.30 
freq.     293.83  E(vib)   ...       0.27 
freq.     311.70  E(vib)   ...       0.25 
freq.     420.24  E(vib)   ...       0.18 
freq.     425.71  E(vib)   ...       0.18 
freq.     431.17  E(vib)   ...       0.18 
freq.     431.22  E(vib)   ...       0.18 
freq.     492.42  E(vib)   ...       0.14 
freq.     538.79  E(vib)   ...       0.12 
freq.     570.07  E(vib)   ...       0.11 
freq.     628.79  E(vib)   ...       0.09 
freq.     629.95  E(vib)   ...       0.09 
freq.     660.70  E(vib)   ...       0.08 
freq.     662.03  E(vib)   ...       0.08 
freq.     692.05  E(vib)   ...       0.07 
freq.     724.07  E(vib)   ...       0.06 
freq.     724.49  E(vib)   ...       0.06 
freq.     726.60  E(vib)   ...       0.06 
freq.     747.17  E(vib)   ...       0.06 
freq.     802.75  E(vib)   ...       0.05 
freq.     803.94  E(vib)   ...       0.05 
freq.     871.74  E(vib)   ...       0.04 
freq.     871.81  E(vib)   ...       0.04 
freq.     889.64  E(vib)   ...       0.04 
freq.     962.67  E(vib)   ...       0.03 
freq.     962.92  E(vib)   ...       0.03 
freq.     967.65  E(vib)   ...       0.03 
freq.     976.44  E(vib)   ...       0.03 
freq.    1021.39  E(vib)   ...       0.02 
freq.    1022.02  E(vib)   ...       0.02 
freq.    1025.85  E(vib)   ...       0.02 
freq.    1025.92  E(vib)   ...       0.02 
freq.    1050.62  E(vib)   ...       0.02 
freq.    1050.68  E(vib)   ...       0.02 
freq.    1058.75  E(vib)   ...       0.02 
freq.    1060.89  E(vib)   ...       0.02 
freq.    1089.24  E(vib)   ...       0.02 
freq.    1098.60  E(vib)   ...       0.02 
freq.    1111.59  E(vib)   ...       0.01 
freq.    1115.57  E(vib)   ...       0.01 
freq.    1135.29  E(vib)   ...       0.01 
freq.    1156.24  E(vib)   ...       0.01 
freq.    1156.52  E(vib)   ...       0.01 
freq.    1181.34  E(vib)   ...       0.01 
freq.    1181.77  E(vib)   ...       0.01 
freq.    1293.78  E(vib)   ...       0.01 
freq.    1304.94  E(vib)   ...       0.01 
freq.    1307.02  E(vib)   ...       0.01 
freq.    1352.18  E(vib)   ...       0.01 
freq.    1352.62  E(vib)   ...       0.01 
freq.    1358.33  E(vib)   ...       0.01 
freq.    1390.79  E(vib)   ...       0.00 
freq.    1432.37  E(vib)   ...       0.00 
freq.    1464.67  E(vib)   ...       0.00 
freq.    1506.37  E(vib)   ...       0.00 
freq.    1510.98  E(vib)   ...       0.00 
freq.    1555.83  E(vib)   ...       0.00 
freq.    1564.51  E(vib)   ...       0.00 
freq.    1663.45  E(vib)   ...       0.00 
freq.    1693.92  E(vib)   ...       0.00 
freq.    1699.72  E(vib)   ...       0.00 
freq.    1707.51  E(vib)   ...       0.00 
freq.    1711.29  E(vib)   ...       0.00 
freq.    3214.46  E(vib)   ...       0.00 
freq.    3214.50  E(vib)   ...       0.00 
freq.    3222.09  E(vib)   ...       0.00 
freq.    3222.11  E(vib)   ...       0.00 
freq.    3231.11  E(vib)   ...       0.00 
freq.    3231.16  E(vib)   ...       0.00 
freq.    3237.74  E(vib)   ...       0.00 
freq.    3237.79  E(vib)   ...       0.00 
freq.    3248.77  E(vib)   ...       0.00 
freq.    3248.89  E(vib)   ...       0.00 
freq.    3299.07  E(vib)   ...       0.00 
freq.    3319.22  E(vib)   ...       0.00 

------------
INNER ENERGY
------------

The inner energy is: U= E(el) + E(ZPE) + E(vib) + E(rot) + E(trans)
    E(el)   - is the total energy from the electronic structure calculation
              = E(kin-el) + E(nuc-el) + E(el-el) + E(nuc-nuc)
    E(ZPE)  - the the zero temperature vibrational energy from the frequency calculation
    E(vib)  - the the finite temperature correction to E(ZPE) due to population
              of excited vibrational states
    E(rot)  - is the rotational thermal energy
    E(trans)- is the translational thermal energy

Summary of contributions to the inner energy U:
Electronic energy                ...   -687.62618528 Eh
Zero point energy                ...      0.23545078 Eh     147.75 kcal/mol
Thermal vibrational correction   ...      0.00974422 Eh       6.11 kcal/mol
Thermal rotational correction    ...      0.00141627 Eh       0.89 kcal/mol
Thermal translational correction ...      0.00141627 Eh       0.89 kcal/mol
-----------------------------------------------------------------------
Total thermal energy                   -687.37815774 Eh


Summary of corrections to the electronic energy:
(perhaps to be used in another calculation)
Total thermal correction                  0.01257677 Eh       7.89 kcal/mol
Non-thermal (ZPE) correction              0.23545078 Eh     147.75 kcal/mol
-----------------------------------------------------------------------
Total correction                          0.24802755 Eh     155.64 kcal/mol


--------
ENTHALPY
--------

The enthalpy is H = U + kB*T
                kB is Boltzmann's constant
Total free energy                 ...   -687.37815774 Eh 
Thermal Enthalpy correction       ...      0.00094421 Eh       0.59 kcal/mol
-----------------------------------------------------------------------
Total Enthalpy                    ...   -687.37721353 Eh


Note: Rotational entropy computed according to Herzberg 
Infrared and Raman Spectra, Chapter V,1, Van Nostrand Reinhold, 1945 
Point Group:  C2, Symmetry Number:   2  
Rotational constants in cm-1:     0.054882     0.006881     0.006302 

Vibrational entropy computed according to the QRRHO of S. Grimme
Chem.Eur.J. 2012 18 9955


-------
ENTROPY
-------

The entropy contributions are T*S = T*(S(el)+S(vib)+S(rot)+S(trans))
     S(el)   - electronic entropy
     S(vib)  - vibrational entropy
     S(rot)  - rotational entropy
     S(trans)- translational entropy
The entropies will be listed as multiplied by the temperature to get
units of energy

Electronic entropy                ...      0.00000000 Eh      0.00 kcal/mol
Vibrational entropy               ...      0.01686921 Eh     10.59 kcal/mol
Rotational entropy                ...      0.01496916 Eh      9.39 kcal/mol
Translational entropy             ...      0.01998968 Eh     12.54 kcal/mol
-----------------------------------------------------------------------
Final entropy term                ...      0.05182805 Eh     32.52 kcal/mol

In case the symmetry of your molecule has not been determined correctly
or in case you have a reason to use a different symmetry number we print 
out the resulting rotational entropy values for sn=1,12 :
 --------------------------------------------------------
|  sn= 1 | S(rot)=       0.01562362 Eh      9.80 kcal/mol|
|  sn= 2 | S(rot)=       0.01496916 Eh      9.39 kcal/mol|
|  sn= 3 | S(rot)=       0.01458633 Eh      9.15 kcal/mol|
|  sn= 4 | S(rot)=       0.01431471 Eh      8.98 kcal/mol|
|  sn= 5 | S(rot)=       0.01410402 Eh      8.85 kcal/mol|
|  sn= 6 | S(rot)=       0.01393187 Eh      8.74 kcal/mol|
|  sn= 7 | S(rot)=       0.01378633 Eh      8.65 kcal/mol|
|  sn= 8 | S(rot)=       0.01366025 Eh      8.57 kcal/mol|
|  sn= 9 | S(rot)=       0.01354904 Eh      8.50 kcal/mol|
|  sn=10 | S(rot)=       0.01344956 Eh      8.44 kcal/mol|
|  sn=11 | S(rot)=       0.01335957 Eh      8.38 kcal/mol|
|  sn=12 | S(rot)=       0.01327742 Eh      8.33 kcal/mol|
 --------------------------------------------------------


-------------------
GIBBS FREE ENERGY
-------------------

The Gibbs free energy is G = H - T*S

Total enthalpy                    ...   -687.37721353 Eh 
Total entropy correction          ...     -0.05182805 Eh    -32.52 kcal/mol
-----------------------------------------------------------------------
Final Gibbs free energy         ...   -687.42904158 Eh

For completeness - the Gibbs free energy minus the electronic energy
G-E(el)                           ...      0.19714371 Eh    123.71 kcal/mol


Timings for individual modules:

Sum of individual times         ...     1490.162 sec (=  24.836 min)
GTO integral calculation        ...        6.130 sec (=   0.102 min)   0.4 %
SCF iterations                  ...      706.066 sec (=  11.768 min)  47.4 %
SCF Gradient evaluation         ...      192.301 sec (=   3.205 min)  12.9 %
Geometry relaxation             ...        0.659 sec (=   0.011 min)   0.0 %
Analytical frequency calculation...      585.005 sec (=   9.750 min)  39.3 %
                             ****ORCA TERMINATED NORMALLY****
TOTAL RUN TIME: 0 days 0 hours 24 minutes 53 seconds 416 msec
