
                                 *****************
                                 * O   R   C   A *
                                 *****************

                                            #,                                       
                                            ###                                      
                                            ####                                     
                                            #####                                    
                                            ######                                   
                                           ########,                                 
                                     ,,################,,,,,                         
                               ,,#################################,,                 
                          ,,##########################################,,             
                       ,#########################################, ''#####,          
                    ,#############################################,,   '####,        
                  ,##################################################,,,,####,       
                ,###########''''           ''''###############################       
              ,#####''   ,,,,##########,,,,          '''####'''          '####       
            ,##' ,,,,###########################,,,                        '##       
           ' ,,###''''                  '''############,,,                           
         ,,##''                                '''############,,,,        ,,,,,,###''
      ,#''                                            '''#######################'''  
     '                                                          ''''####''''         
             ,#######,   #######,   ,#######,      ##                                
            ,#'     '#,  ##    ##  ,#'     '#,    #''#        ######   ,####,        
            ##       ##  ##   ,#'  ##            #'  '#       #        #'  '#        
            ##       ##  #######   ##           ,######,      #####,   #    #        
            '#,     ,#'  ##    ##  '#,     ,#' ,#      #,         ##   #,  ,#        
             '#######'   ##     ##  '#######'  #'      '#     #####' # '####'        



                  #######################################################
                  #                        -***-                        #
                  #          Department of theory and spectroscopy      #
                  #    Directorship and core code : Frank Neese         #
                  #        Max Planck Institute fuer Kohlenforschung    #
                  #                Kaiser Wilhelm Platz 1               #
                  #                 D-45470 Muelheim/Ruhr               #
                  #                      Germany                        #
                  #                                                     #
                  #                  All rights reserved                #
                  #                        -***-                        #
                  #######################################################


                         Program Version 5.0.4 -  RELEASE  -


 With contributions from (in alphabetic order):
   Daniel Aravena         : Magnetic Suceptibility
   Michael Atanasov       : Ab Initio Ligand Field Theory (pilot matlab implementation)
   Alexander A. Auer      : GIAO ZORA, VPT2 properties, NMR spectrum
   Ute Becker             : Parallelization
   Giovanni Bistoni       : ED, misc. LED, open-shell LED, HFLD
   Martin Brehm           : Molecular dynamics
   Dmytro Bykov           : SCF Hessian
   Vijay G. Chilkuri      : MRCI spin determinant printing, contributions to CSF-ICE
   Dipayan Datta          : RHF DLPNO-CCSD density
   Achintya Kumar Dutta   : EOM-CC, STEOM-CC
   Dmitry Ganyushin       : Spin-Orbit,Spin-Spin,Magnetic field MRCI
   Miquel Garcia          : C-PCM and meta-GGA Hessian, CC/C-PCM, Gaussian charge scheme
   Yang Guo               : DLPNO-NEVPT2, F12-NEVPT2, CIM, IAO-localization
   Andreas Hansen         : Spin unrestricted coupled pair/coupled cluster methods
   Benjamin Helmich-Paris : MC-RPA, TRAH-SCF, COSX integrals
   Lee Huntington         : MR-EOM, pCC
   Robert Izsak           : Overlap fitted RIJCOSX, COSX-SCS-MP3, EOM
   Marcus Kettner         : VPT2
   Christian Kollmar      : KDIIS, OOCD, Brueckner-CCSD(T), CCSD density, CASPT2, CASPT2-K
   Simone Kossmann        : Meta GGA functionals, TD-DFT gradient, OOMP2, MP2 Hessian
   Martin Krupicka        : Initial AUTO-CI
   Lucas Lang             : DCDCAS
   Marvin Lechner         : AUTO-CI (C++ implementation), FIC-MRCC
   Dagmar Lenk            : GEPOL surface, SMD
   Dimitrios Liakos       : Extrapolation schemes; Compound Job, initial MDCI parallelization
   Dimitrios Manganas     : Further ROCIS development; embedding schemes
   Dimitrios Pantazis     : SARC Basis sets
   Anastasios Papadopoulos: AUTO-CI, single reference methods and gradients
   Taras Petrenko         : DFT Hessian,TD-DFT gradient, ASA, ECA, R-Raman, ABS, FL, XAS/XES, NRVS
   Peter Pinski           : DLPNO-MP2, DLPNO-MP2 Gradient
   Christoph Reimann      : Effective Core Potentials
   Marius Retegan         : Local ZFS, SOC
   Christoph Riplinger    : Optimizer, TS searches, QM/MM, DLPNO-CCSD(T), (RO)-DLPNO pert. Triples
   Tobias Risthaus        : Range-separated hybrids, TD-DFT gradient, RPA, STAB
   Michael Roemelt        : Original ROCIS implementation
   Masaaki Saitow         : Open-shell DLPNO-CCSD energy and density
   Barbara Sandhoefer     : DKH picture change effects
   Avijit Sen             : IP-ROCIS
   Kantharuban Sivalingam : CASSCF convergence, NEVPT2, FIC-MRCI
   Bernardo de Souza      : ESD, SOC TD-DFT
   Georgi Stoychev        : AutoAux, RI-MP2 NMR, DLPNO-MP2 response
   Willem Van den Heuvel  : Paramagnetic NMR
   Boris Wezisla          : Elementary symmetry handling
   Frank Wennmohs         : Technical directorship


 We gratefully acknowledge several colleagues who have allowed us to
 interface, adapt or use parts of their codes:
   Stefan Grimme, W. Hujo, H. Kruse, P. Pracht,  : VdW corrections, initial TS optimization,
                  C. Bannwarth, S. Ehlert          DFT functionals, gCP, sTDA/sTD-DF
   Ed Valeev, F. Pavosevic, A. Kumar             : LibInt (2-el integral package), F12 methods
   Garnet Chan, S. Sharma, J. Yang, R. Olivares  : DMRG
   Ulf Ekstrom                                   : XCFun DFT Library
   Mihaly Kallay                                 : mrcc  (arbitrary order and MRCC methods)
   Jiri Pittner, Ondrej Demel                    : Mk-CCSD
   Frank Weinhold                                : gennbo (NPA and NBO analysis)
   Christopher J. Cramer and Donald G. Truhlar   : smd solvation model
   Lars Goerigk                                  : TD-DFT with DH, B97 family of functionals
   V. Asgeirsson, H. Jonsson                     : NEB implementation
   FAccTs GmbH                                   : IRC, NEB, NEB-TS, DLPNO-Multilevel, CI-OPT
                                                   MM, QMMM, 2- and 3-layer-ONIOM, Crystal-QMMM,
                                                   LR-CPCM, SF, NACMEs, symmetry and pop. for TD-DFT,
                                                   nearIR, NL-DFT gradient (VV10), updates on ESD,
                                                   ML-optimized integration grids
   S Lehtola, MJT Oliveira, MAL Marques          : LibXC Library
   Liviu Ungur et al                             : ANISO software


 Your calculation uses the libint2 library for the computation of 2-el integrals
 For citations please refer to: http://libint.valeyev.net

 Your ORCA version has been built with support for libXC version: 5.1.0
 For citations please refer to: https://tddft.org/programs/libxc/

 This ORCA versions uses:
   CBLAS   interface :  Fast vector & matrix operations
   LAPACKE interface :  Fast linear algebra routines
   SCALAPACK package :  Parallel linear algebra routines
   Shared memory     :  Shared parallel matrices
   BLAS/LAPACK       :  OpenBLAS 0.3.15  USE64BITINT DYNAMIC_ARCH NO_AFFINITY SkylakeX SINGLE_THREADED
        Core in use  :  SkylakeX
   Copyright (c) 2011-2014, The OpenBLAS Project




***************************************
The coordinates will be read from file: 8+.xyz
***************************************


Your calculation utilizes the atom-pairwise dispersion correction
based on tight binding partial charges (D4)
Cite in your paper:
E.Caldeweyher, C.Bannwarth, S.Grimme, J.Chem.Phys., (2017), 147, 034112.
E.Caldeweyher, S.Ehlert, A.Hansen, H.Neugebauer, S.Grimme, J.Chem.Phys., (2018), in progress.
   

XCFun DFT library Copyright 2009-2010 Ulf Ekstrom and contributors.
See http://admol.org/xcfun for more information.
This is free software; see the source code for copying conditions.
There is ABSOLUTELY NO WARRANTY; not even for MERCHANTABILITY or FITNESS FOR A PARTICULAR PURPOSE.
For details see the documentation.
Scientific users of this library should cite U. Ekstrom, L. Visscher, R. Bast, A. J. Thorvaldsen and K. Ruud;
J.Chem.Theor.Comp. 2010, DOI: 10.1021/ct100117s
XCFun Version 0.99 

================================================================================

----- Orbital basis set information -----
Your calculation utilizes the basis: def2-SVP
   F. Weigend and R. Ahlrichs, Phys. Chem. Chem. Phys. 7, 3297 (2005).

----- AuxJ basis set information -----
Your calculation utilizes the auxiliary basis: def2/J
   F. Weigend, Phys. Chem. Chem. Phys. 8, 1057 (2006).

================================================================================
                                        WARNINGS
                       Please study these warnings very carefully!
================================================================================


INFO   : the flag for use of the SHARK integral package has been found!

================================================================================
                                       INPUT FILE
================================================================================
NAME = 8+.inp
|  1> # ORCA 5.0.4 - 8+.inp # write input file
|  2> # Basic Mode
|  3> #
|  4> ! Freq wB97X Def2-SVP D4 SlowConv TightSCF DEFGRID2 Def2/J RIJCOSX 
|  5> 
|  6> 
|  7> 
|  8> %maxcore 4500
|  9> 
| 10> %geom
| 11> Maxiter 150
| 12> END
| 13> 
| 14> * xyzfile 1 1 8+.xyz
| 15> 
| 16>                          ****END OF INPUT****
================================================================================

                       ****************************
                       * Single Point Calculation *
                       ****************************

---------------------------------
CARTESIAN COORDINATES (ANGSTROEM)
---------------------------------
  C      0.001350    0.676374   -1.837576
  C      0.012307   -0.682871   -1.841226
  C      0.016405   -0.008887    0.260344
  H     -0.009876    1.398064   -2.652136
  H      0.013469   -1.400309   -2.659592
  H      0.023652   -0.011752    1.351334
  N      0.004194    1.074419   -0.513367
  N      0.021925   -1.087879   -0.519173
  C     -0.001564    2.434963   -0.032934
  C     -1.239639    3.045087    0.208291
  C      1.231773    3.069621    0.165538
  C     -1.218673    4.362094    0.676166
  C      1.201237    4.386021    0.634458
  C     -0.011194    5.024258    0.886919
  H     -2.166634    4.870584    0.873848
  H      2.145378    4.912625    0.800373
  H     -0.015119    6.054989    1.252258
  C      0.033286   -2.451003   -0.046745
  C     -1.194075   -3.056898    0.251620
  C      1.272161   -3.091804    0.087904
  C     -1.156264   -4.377690    0.708380
  C      1.258755   -4.411319    0.548246
  C      0.056942   -5.046405    0.854715
  H     -2.095564   -4.883742    0.949093
  H      2.207579   -4.942575    0.665369
  H      0.066157   -6.079776    1.212476
  C      2.531111    2.361505   -0.113838
  H      2.632714    1.451629    0.499207
  H      2.600249    2.053086   -1.169211
  H      3.382727    3.018411    0.107110
  C      2.559150   -2.385992   -0.248069
  H      2.601833   -2.120121   -1.316443
  H      2.666701   -1.451485    0.325518
  H      3.420824   -3.027792   -0.021669
  C     -2.534120    2.312177   -0.025363
  H     -2.620506    1.974729   -1.070445
  H     -2.611004    1.417977    0.614149
  H     -3.390343    2.962984    0.195910
  C     -2.495066   -2.314151    0.098384
  H     -2.577908   -1.500029    0.837098
  H     -2.587662   -1.859794   -0.900529
  H     -3.345035   -2.992934    0.248656

----------------------------
CARTESIAN COORDINATES (A.U.)
----------------------------
  NO LB      ZA    FRAG     MASS         X           Y           Z
   0 C     6.0000    0    12.011    0.002551    1.278162   -3.472515
   1 C     6.0000    0    12.011    0.023257   -1.290439   -3.479413
   2 C     6.0000    0    12.011    0.031001   -0.016794    0.491979
   3 H     1.0000    0     1.008   -0.018663    2.641958   -5.011811
   4 H     1.0000    0     1.008    0.025453   -2.646201   -5.025901
   5 H     1.0000    0     1.008    0.044696   -0.022208    2.553651
   6 N     7.0000    0    14.007    0.007926    2.030358   -0.970123
   7 N     7.0000    0    14.007    0.041432   -2.055793   -0.981095
   8 C     6.0000    0    12.011   -0.002956    4.601413   -0.062236
   9 C     6.0000    0    12.011   -2.342578    5.754380    0.393613
  10 C     6.0000    0    12.011    2.327714    5.800743    0.312821
  11 C     6.0000    0    12.011   -2.302958    8.243163    1.277769
  12 C     6.0000    0    12.011    2.270009    8.288379    1.198952
  13 C     6.0000    0    12.011   -0.021154    9.494472    1.676034
  14 H     1.0000    0     1.008   -4.094345    9.204070    1.651333
  15 H     1.0000    0     1.008    4.054177    9.283516    1.512486
  16 H     1.0000    0     1.008   -0.028571   11.442271    2.366425
  17 C     6.0000    0    12.011    0.062901   -4.631724   -0.088335
  18 C     6.0000    0    12.011   -2.256475   -5.776700    0.475493
  19 C     6.0000    0    12.011    2.404036   -5.842663    0.166114
  20 C     6.0000    0    12.011   -2.185022   -8.272635    1.338644
  21 C     6.0000    0    12.011    2.378702   -8.336185    1.036035
  22 C     6.0000    0    12.011    0.107605   -9.536323    1.615177
  23 H     1.0000    0     1.008   -3.960042   -9.228935    1.793526
  24 H     1.0000    0     1.008    4.171720   -9.340113    1.257365
  25 H     1.0000    0     1.008    0.125019  -11.489112    2.291248
  26 C     6.0000    0    12.011    4.783107    4.462598   -0.215123
  27 H     1.0000    0     1.008    4.975108    2.743181    0.943365
  28 H     1.0000    0     1.008    4.913758    3.879770   -2.209489
  29 H     1.0000    0     1.008    6.392428    5.703970    0.202409
  30 C     6.0000    0    12.011    4.836093   -4.508871   -0.468782
  31 H     1.0000    0     1.008    4.916752   -4.006448   -2.487717
  32 H     1.0000    0     1.008    5.039335   -2.742909    0.615140
  33 H     1.0000    0     1.008    6.464421   -5.721698   -0.040948
  34 C     6.0000    0    12.011   -4.788793    4.369381   -0.047929
  35 H     1.0000    0     1.008   -4.952039    3.731697   -2.022848
  36 H     1.0000    0     1.008   -4.934082    2.679588    1.160573
  37 H     1.0000    0     1.008   -6.406820    5.599228    0.370216
  38 C     6.0000    0    12.011   -4.714991   -4.373112    0.185919
  39 H     1.0000    0     1.008   -4.871540   -2.834644    1.581886
  40 H     1.0000    0     1.008   -4.889973   -3.514501   -1.701753
  41 H     1.0000    0     1.008   -6.321200   -5.655826    0.469892

--------------------------------
INTERNAL COORDINATES (ANGSTROEM)
--------------------------------
 C      0   0   0     0.000000000000     0.00000000     0.00000000
 C      1   0   0     1.359294062510     0.00000000     0.00000000
 C      2   1   0     2.207004234423    72.06637363     0.00000000
 H      1   2   3     1.088333805767   131.38870930   180.11944152
 H      2   1   3     1.088320515310   131.39296032   179.93576129
 H      3   2   1     1.091017830896   162.06631716   180.38743831
 N      3   2   1     1.331288740160    72.24617310     0.00000000
 N      3   2   1     1.331127702271    36.37403941   180.02520612
 C      7   3   2     1.442889114932   125.01658222   180.14559210
 C      9   7   3     1.401167549448   118.12773754   270.64567419
 C      9   7   3     1.401178813470   118.08280888    90.63900000
 C     10   9   7     1.397803286171   117.04194012   179.85380534
 C     11   9   7     1.397757981088   117.05667436   180.15436701
 C     12  10   9     1.393155958730   120.76116207     0.04543341
 H     12  10   9     1.093741427736   119.04741553   179.90320364
 H     13  11   9     1.093728388551   119.04418232   180.02923444
 H     14  12  10     1.093569561074   119.69706459   179.92894180
 C      8   3   2     1.442714222180   125.03933056   180.11751472
 C     18   8   3     1.400908793809   118.13068320    86.15060923
 C     18   8   3     1.401273542327   118.06668377   266.19506429
 C     19  18   8     1.398052529981   117.03199399   180.04012661
 C     20  18   8     1.397574439171   117.06026913   179.94367322
 C     21  19  18     1.393004839147   120.75704349     0.00000000
 H     21  19  18     1.093762252536   119.06347785   180.13337055
 H     22  20  18     1.093717384721   119.04889055   179.99462883
 H     23  21  19     1.093587432713   119.69113203   180.05972346
 C     11   9   7     1.505907851456   121.34617079     0.10243186
 H     27  11   9     1.101826518564   111.38601169   300.51176594
 H     27  11   9     1.101687120617   111.31586150    60.12067896
 H     27  11   9     1.097995137966   110.52157249   180.33163417
 C     20  18   8     1.505785217816   121.32227626     0.00000000
 H     31  20  18     1.101785927940   111.25846390   296.70375810
 H     31  20  18     1.101758865278   111.39845774    56.30766091
 H     31  20  18     1.098019254055   110.53271753   176.59921128
 C     10   9   7     1.505799561421   121.39582934   359.91911544
 H     35  10   9     1.101603413404   111.32864914   301.62238363
 H     35  10   9     1.102034658076   111.39911465    61.28443304
 H     35  10   9     1.098011528859   110.52413831   181.40041754
 C     19  18   8     1.505899053651   121.46055716   359.52350582
 H     39  19  18     1.102431767342   111.15981973   292.09668686
 H     39  19  18     1.101290826364   111.61852256    51.81450582
 H     39  19  18     1.098078019102   110.48186953   172.38971684

---------------------------
INTERNAL COORDINATES (A.U.)
---------------------------
 C      0   0   0     0.000000000000     0.00000000     0.00000000
 C      1   0   0     2.568693513608     0.00000000     0.00000000
 C      2   1   0     4.170633579464    72.06637363     0.00000000
 H      1   2   3     2.056652835188   131.38870930   180.11944152
 H      2   1   3     2.056627719863   131.39296032   179.93576129
 H      3   2   1     2.061724907619   162.06631716   180.38743831
 N      3   2   1     2.515771124076    72.24617310     0.00000000
 N      3   2   1     2.515466806568    36.37403941   180.02520612
 C      7   3   2     2.726665268837   125.01658222   180.14559210
 C      9   7   3     2.647822936194   118.12773754   270.64567419
 C      9   7   3     2.647844222111   118.08280888    90.63900000
 C     10   9   7     2.641465399958   117.04194012   179.85380534
 C     11   9   7     2.641379785760   117.05667436   180.15436701
 C     12  10   9     2.632683223841   120.76116207     0.04543341
 H     12  10   9     2.066871759744   119.04741553   179.90320364
 H     13  11   9     2.066847119256   119.04418232   180.02923444
 H     14  12  10     2.066546978822   119.69706459   179.92894180
 C      8   3   2     2.726334769434   125.03933056   180.11751472
 C     18   8   3     2.647333958901   118.13068320    86.15060923
 C     18   8   3     2.648023233709   118.06668377   266.19506429
 C     19  18   8     2.641936402499   117.03199399   180.04012661
 C     20  18   8     2.641032941802   117.06026913   179.94367322
 C     21  19  18     2.632397649214   120.75704349     0.00000000
 H     21  19  18     2.066911112914   119.06347785   180.13337055
 H     22  20  18     2.066826325031   119.04889055   179.99462883
 H     23  21  19     2.066580751325   119.69113203   180.05972346
 C     11   9   7     2.845753422173   121.34617079     0.10243186
 H     27  11   9     2.082150367177   111.38601169   300.51176594
 H     27  11   9     2.081886943235   111.31586150    60.12067896
 H     27  11   9     2.074910107132   110.52157249   180.33163417
 C     20  18   8     2.845521678180   121.32227626     0.00000000
 H     31  20  18     2.082073662014   111.25846390   296.70375810
 H     31  20  18     2.082022520996   111.39845774    56.30766091
 H     31  20  18     2.074955679937   110.53271753   176.59921128
 C     10   9   7     2.845548783665   121.39582934   359.91911544
 H     35  10   9     2.081728759527   111.32864914   301.62238363
 H     35  10   9     2.082543693853   111.39911465    61.28443304
 H     35  10   9     2.074941081431   110.52413831   181.40041754
 C     19  18   8     2.845736796731   121.46055716   359.52350582
 H     39  19  18     2.083294121610   111.15981973   292.09668686
 H     39  19  18     2.081138055628   111.61852256    51.81450582
 H     39  19  18     2.075066729781   110.48186953   172.38971684

---------------------
BASIS SET INFORMATION
---------------------
There are 3 groups of distinct atoms

 Group   1 Type C   : 7s4p1d contracted to 3s2p1d pattern {511/31/1}
 Group   2 Type H   : 4s1p contracted to 2s1p pattern {31/1}
 Group   3 Type N   : 7s4p1d contracted to 3s2p1d pattern {511/31/1}

Atom   0C    basis set group =>   1
Atom   1C    basis set group =>   1
Atom   2C    basis set group =>   1
Atom   3H    basis set group =>   2
Atom   4H    basis set group =>   2
Atom   5H    basis set group =>   2
Atom   6N    basis set group =>   3
Atom   7N    basis set group =>   3
Atom   8C    basis set group =>   1
Atom   9C    basis set group =>   1
Atom  10C    basis set group =>   1
Atom  11C    basis set group =>   1
Atom  12C    basis set group =>   1
Atom  13C    basis set group =>   1
Atom  14H    basis set group =>   2
Atom  15H    basis set group =>   2
Atom  16H    basis set group =>   2
Atom  17C    basis set group =>   1
Atom  18C    basis set group =>   1
Atom  19C    basis set group =>   1
Atom  20C    basis set group =>   1
Atom  21C    basis set group =>   1
Atom  22C    basis set group =>   1
Atom  23H    basis set group =>   2
Atom  24H    basis set group =>   2
Atom  25H    basis set group =>   2
Atom  26C    basis set group =>   1
Atom  27H    basis set group =>   2
Atom  28H    basis set group =>   2
Atom  29H    basis set group =>   2
Atom  30C    basis set group =>   1
Atom  31H    basis set group =>   2
Atom  32H    basis set group =>   2
Atom  33H    basis set group =>   2
Atom  34C    basis set group =>   1
Atom  35H    basis set group =>   2
Atom  36H    basis set group =>   2
Atom  37H    basis set group =>   2
Atom  38C    basis set group =>   1
Atom  39H    basis set group =>   2
Atom  40H    basis set group =>   2
Atom  41H    basis set group =>   2
---------------------------------
AUXILIARY/J BASIS SET INFORMATION
---------------------------------
There are 3 groups of distinct atoms

 Group   1 Type C   : 12s5p4d2f1g contracted to 6s4p3d1f1g pattern {711111/2111/211/2/1}
 Group   2 Type H   : 5s2p1d contracted to 3s1p1d pattern {311/2/1}
 Group   3 Type N   : 12s5p4d2f1g contracted to 6s4p3d1f1g pattern {711111/2111/211/2/1}

Atom   0C    basis set group =>   1
Atom   1C    basis set group =>   1
Atom   2C    basis set group =>   1
Atom   3H    basis set group =>   2
Atom   4H    basis set group =>   2
Atom   5H    basis set group =>   2
Atom   6N    basis set group =>   3
Atom   7N    basis set group =>   3
Atom   8C    basis set group =>   1
Atom   9C    basis set group =>   1
Atom  10C    basis set group =>   1
Atom  11C    basis set group =>   1
Atom  12C    basis set group =>   1
Atom  13C    basis set group =>   1
Atom  14H    basis set group =>   2
Atom  15H    basis set group =>   2
Atom  16H    basis set group =>   2
Atom  17C    basis set group =>   1
Atom  18C    basis set group =>   1
Atom  19C    basis set group =>   1
Atom  20C    basis set group =>   1
Atom  21C    basis set group =>   1
Atom  22C    basis set group =>   1
Atom  23H    basis set group =>   2
Atom  24H    basis set group =>   2
Atom  25H    basis set group =>   2
Atom  26C    basis set group =>   1
Atom  27H    basis set group =>   2
Atom  28H    basis set group =>   2
Atom  29H    basis set group =>   2
Atom  30C    basis set group =>   1
Atom  31H    basis set group =>   2
Atom  32H    basis set group =>   2
Atom  33H    basis set group =>   2
Atom  34C    basis set group =>   1
Atom  35H    basis set group =>   2
Atom  36H    basis set group =>   2
Atom  37H    basis set group =>   2
Atom  38C    basis set group =>   1
Atom  39H    basis set group =>   2
Atom  40H    basis set group =>   2
Atom  41H    basis set group =>   2
------------------------------------------------------------------------------
                           ORCA GTO INTEGRAL CALCULATION
                           -- RI-GTO INTEGRALS CHOSEN --
------------------------------------------------------------------------------
------------------------------------------------------------------------------
                   ___                                                        
                  /   \      - P O W E R E D   B Y -                         
                 /     \                                                     
                 |  |  |   _    _      __       _____    __    __             
                 |  |  |  | |  | |    /  \     |  _  \  |  |  /  |          
                  \  \/   | |  | |   /    \    | | | |  |  | /  /          
                 / \  \   | |__| |  /  /\  \   | |_| |  |  |/  /          
                |  |  |   |  __  | /  /__\  \  |    /   |      \           
                |  |  |   | |  | | |   __   |  |    \   |  |\   \          
                \     /   | |  | | |  |  |  |  | |\  \  |  | \   \       
                 \___/    |_|  |_| |__|  |__|  |_| \__\ |__|  \__/        
                                                                              
                      - O R C A' S   B I G   F R I E N D -                    
                                      &                                       
                       - I N T E G R A L  F E E D E R -                       
                                                                              
 v1 FN, 2020, v2 2021                                                         
------------------------------------------------------------------------------


Reading SHARK input file 8+.SHARKINP.tmp ... ok
----------------------
SHARK INTEGRAL PACKAGE
----------------------

Number of atoms                             ...     42
Number of basis functions                   ...    399
Number of shells                            ...    189
Maximum angular momentum                    ...      2
Integral batch strategy                     ... SHARK/LIBINT Hybrid
RI-J (if used) integral strategy            ... SPLIT-RIJ (Revised 2003 algorithm where possible)
Printlevel                                  ...      1
Contraction scheme used                     ... SEGMENTED contraction
Coulomb Range Separation                    ... NOT USED
Exchange Range Separation                   ... Long Range
   Mu parameter                             ...  0.300000
   Scaling (regular/separated)              ...  0.157706  0.842294
Finite Nucleus Model                        ... NOT USED
Auxiliary Coulomb fitting basis             ... AVAILABLE
   # of basis functions in Aux-J            ...   1260
   # of shells in Aux-J                     ...    420
   Maximum angular momentum in Aux-J        ...      4
Auxiliary J/K fitting basis                 ... NOT available
Auxiliary Correlation fitting basis         ... NOT available
Auxiliary 'external' fitting basis          ... NOT available
Integral threshold                          ...     2.500000e-11
Primitive cut-off                           ...     2.500000e-12
Primitive pair pre-selection threshold      ...     2.500000e-12

Calculating pre-screening integrals         ... done (  0.1 sec) Dimension = 189
Organizing shell pair data                  ... done (  0.1 sec)
Shell pair information
Total number of shell pairs                 ...     17955
Shell pairs after pre-screening             ...     13683
Total number of primitive shell pairs       ...     64239
Primitive shell pairs kept                  ...     31392
          la=0 lb=0:   4357 shell pairs
          la=1 lb=0:   5119 shell pairs
          la=1 lb=1:   1543 shell pairs
          la=2 lb=0:   1579 shell pairs
          la=2 lb=1:    934 shell pairs
          la=2 lb=2:    151 shell pairs

Calculating one electron integrals          ... done (  0.1 sec)
Calculating RI/J V-Matrix + Cholesky decomp.... done (  0.1 sec)
Calculating Nuclear repulsion               ... done (  0.0 sec) ENN=   1614.543092107580 Eh

SHARK setup successfully completed in   0.6 seconds

Maximum memory used throughout the entire GTOINT-calculation: 81.2 MB
-------------------------------------------------------------------------------
                                 ORCA SCF
-------------------------------------------------------------------------------

------------
SCF SETTINGS
------------
Hamiltonian:
 Density Functional     Method          .... DFT(GTOs)
 Exchange Functional    Exchange        .... WB97X
 Correlation Functional Correlation     .... WB97X
 Gradients option       PostSCFGGA      .... off
 Hybrid DFT is turned on
   Fraction HF Exchange ScalHFX         ....  0.157706
   Scaling of DF-GGA-X  ScalDFX         ....  0.000000
   Scaling of DF-GGA-C  ScalDFC         ....  1.000000
   Scaling of DF-LDA-C  ScalLDAC        ....  1.000000
   Perturbative correction              ....  0.000000
   Density functional embedding theory  .... OFF
 Long-range corrected/Screened/Range-Separated Hybrid DFT is turned on
   Amount of maximum screened exact exchange              ....  0.842294
   Range separation parameter mu (erf(mu*r12)/r12)        ....  0.300000
 RI-approximation to the Coulomb term is turned on
   Number of AuxJ basis functions       .... 1260
   RIJ-COSX (HFX calculated with COS-X)).... on


General Settings:
 Integral files         IntName         .... 8+
 Hartree-Fock type      HFTyp           .... RHF
 Total Charge           Charge          ....    1
 Multiplicity           Mult            ....    1
 Number of Electrons    NEL             ....  148
 Basis Dimension        Dim             ....  399
 Nuclear Repulsion      ENuc            ....   1614.5430921076 Eh

Convergence Acceleration:
 DIIS                   CNVDIIS         .... on
   Start iteration      DIISMaxIt       ....     0
   Startup error        DIISStart       ....  0.200000
   # of expansion vecs  DIISMaxEq       ....     5
   Bias factor          DIISBfac        ....   1.050
   Max. coefficient     DIISMaxC        ....  10.000
 Trust-Rad. Augm. Hess. CNVTRAH         .... auto
   Auto Start mean grad. ratio tolernc. ....  1.125000
   Auto Start start iteration           ....    20
   Auto Start num. interpolation iter.  ....    10
   Max. Number of Micro iterations      ....    16
   Max. Number of Macro iterations      .... Maxiter - #DIIS iter
   Number of Davidson start vectors     ....     2
   Converg. threshold I  (grad. norm)   ....   1.000e-05
   Converg. threshold II (energy diff.) ....   1.000e-08
   Grad. Scal. Fac. for Micro threshold ....   0.100
   Minimum threshold for Micro iter.    ....   0.010
   NR start threshold (gradient norm)   ....   0.001
   Initial trust radius                 ....   0.400
   Minimum AH scaling param. (alpha)    ....   1.000
   Maximum AH scaling param. (alpha)    .... 1000.000
   Orbital update algorithm             .... Taylor
   White noise on init. David. guess    .... on
   Maximum white noise                  ....   0.010
   Quad. conv. algorithm                .... NR
 SOSCF                  CNVSOSCF        .... on
   Start iteration      SOSCFMaxIt      ....   150
   Startup grad/error   SOSCFStart      ....  0.001000
 Level Shifting         CNVShift        .... on
   Level shift para.    LevelShift      ....    0.2500
   Turn off err/grad.   ShiftErr        ....    0.0000
 Zerner damping         CNVZerner       .... off
 Static damping         CNVDamp         .... on
   Fraction old density DampFac         ....    0.8500
   Max. Damping (<1)    DampMax         ....    0.9800
   Min. Damping (>=0)   DampMin         ....    0.0000
   Turn off err/grad.   DampErr         ....    0.0300
 Fernandez-Rico         CNVRico         .... off

SCF Procedure:
 Maximum # iterations   MaxIter         ....   125
 SCF integral mode      SCFMode         .... Direct
   Integral package                     .... SHARK and LIBINT hybrid scheme
 Reset frequency        DirectResetFreq ....    20
 Integral Threshold     Thresh          ....  2.500e-11 Eh
 Primitive CutOff       TCut            ....  2.500e-12 Eh

Convergence Tolerance:
 Convergence Check Mode ConvCheckMode   .... Total+1el-Energy
 Convergence forced     ConvForced      .... 0
 Energy Change          TolE            ....  1.000e-08 Eh
 1-El. energy change                    ....  1.000e-05 Eh
 Orbital Gradient       TolG            ....  1.000e-05
 Orbital Rotation angle TolX            ....  1.000e-05
 DIIS Error             TolErr          ....  5.000e-07


Diagonalization of the overlap matrix:
Smallest eigenvalue                        ... 2.059e-04
Time for diagonalization                   ...    0.028 sec
Threshold for overlap eigenvalues          ... 1.000e-08
Number of eigenvalues below threshold      ... 0
Time for construction of square roots      ...    0.012 sec
Total time needed                          ...    0.040 sec

Time for model grid setup =    1.339 sec

------------------------------
INITIAL GUESS: MODEL POTENTIAL
------------------------------
Loading Hartree-Fock densities                     ... done
Calculating cut-offs                               ... done
Initializing the effective Hamiltonian             ... done
Setting up the integral package (SHARK)            ... done
Starting the Coulomb interaction                   ... done (   1.7 sec)
Reading the grid                                   ... done
Mapping shells                                     ... done
Starting the XC term evaluation                    ... done (   1.2 sec)
  promolecular density results
     # of electrons  =    149.009216950
     EX              =   -116.530097056
     EC              =     -4.968032671
     EX+EC           =   -121.498129727
Transforming the Hamiltonian                       ... done (   0.0 sec)
Diagonalizing the Hamiltonian                      ... done (   0.0 sec)
Back transforming the eigenvectors                 ... done (   0.0 sec)
Now organizing SCF variables                       ... done
                      ------------------
                      INITIAL GUESS DONE (   4.3 sec)
                      ------------------
-------------------
DFT GRID GENERATION
-------------------

General Integration Accuracy     IntAcc      ... 4.388
Radial Grid Type                 RadialGrid  ... OptM3 with GC (2021)
Angular Grid (max. ang.)         AngularGrid ... 4 (Lebedev-302)
Angular grid pruning method      GridPruning ... 4 (adaptive)
Weight generation scheme         WeightScheme... Becke
Basis function cutoff            BFCut       ... 1.0000e-11
Integration weight cutoff        WCut        ... 1.0000e-14
Angular grids for H and He will be reduced by one unit
Partially contracted basis set               ... off
Rotationally invariant grid construction     ... off

Total number of grid points                  ...   191730
Total number of batches                      ...     3020
Average number of points per batch           ...       63
Average number of grid points per atom       ...     4565
Time for grid setup =    4.392 sec

--------------------
COSX GRID GENERATION
--------------------

GRIDX 1
-------
General Integration Accuracy     IntAcc      ... 3.816
Radial Grid Type                 RadialGrid  ... OptM3 with GC (2021)
Angular Grid (max. ang.)         AngularGrid ... 1 (Lebedev-50)
Angular grid pruning method      GridPruning ... 4 (adaptive)
Weight generation scheme         WeightScheme... Becke
Basis function cutoff            BFCut       ... 1.0000e-11
Integration weight cutoff        WCut        ... 1.0000e-14
Angular grids for H and He will be reduced by one unit
Partially contracted basis set               ... on
Rotationally invariant grid construction     ... off

Total number of grid points                  ...    24423
Total number of batches                      ...      400
Average number of points per batch           ...       61
Average number of grid points per atom       ...      582
UseSFitting                                  ... on

GRIDX 2
-------
General Integration Accuracy     IntAcc      ... 4.020
Radial Grid Type                 RadialGrid  ... OptM3 with GC (2021)
Angular Grid (max. ang.)         AngularGrid ... 2 (Lebedev-110)
Angular grid pruning method      GridPruning ... 4 (adaptive)
Weight generation scheme         WeightScheme... Becke
Basis function cutoff            BFCut       ... 1.0000e-11
Integration weight cutoff        WCut        ... 1.0000e-14
Angular grids for H and He will be reduced by one unit
Partially contracted basis set               ... on
Rotationally invariant grid construction     ... off

Total number of grid points                  ...    52113
Total number of batches                      ...      836
Average number of points per batch           ...       62
Average number of grid points per atom       ...     1241
UseSFitting                                  ... on

GRIDX 3
-------
General Integration Accuracy     IntAcc      ... 4.338
Radial Grid Type                 RadialGrid  ... OptM3 with GC (2021)
Angular Grid (max. ang.)         AngularGrid ... 3 (Lebedev-194)
Angular grid pruning method      GridPruning ... 4 (adaptive)
Weight generation scheme         WeightScheme... Becke
Basis function cutoff            BFCut       ... 1.0000e-11
Integration weight cutoff        WCut        ... 1.0000e-14
Angular grids for H and He will be reduced by one unit
Partially contracted basis set               ... on
Rotationally invariant grid construction     ... off

Total number of grid points                  ...   113414
Total number of batches                      ...     1793
Average number of points per batch           ...       63
Average number of grid points per atom       ...     2700
UseSFitting                                  ... on

Time for X-Grid setup             =    5.822 sec

--------------
SCF ITERATIONS
--------------
ITER       Energy         Delta-E        Max-DP      RMS-DP      [F,P]     Damp
               ***  Starting incremental Fock matrix formation  ***
  0   -844.7984559748   0.000000000000 0.03116055  0.00066909  0.1474702 0.8500
  1   -844.8731729907  -0.074717015914 0.02809419  0.00062379  0.1196555 0.8500
                               ***Turning on DIIS***
  2   -844.9303899853  -0.057216994656 0.02208961  0.00051488  0.0927568 0.8500
  3   -844.9729519945  -0.042562009178 0.01406219  0.00038828  0.0710847 0.8500
  4   -845.0058434386  -0.032891444086 0.00953775  0.00031008  0.0568415 0.8500
  5   -845.0317922907  -0.025948852113 0.00723038  0.00025906  0.0470048 0.8500
  6   -845.0529065214  -0.021114230692 0.00590423  0.00022018  0.0395089 0.8500
  7   -845.0703939931  -0.017487471735 0.00502942  0.00018934  0.0334485 0.8500
  8   -845.0850299748  -0.014635981684 0.02905664  0.00108460  0.0283117 0.0000
  9   -845.1638752036  -0.078845228739 0.00160711  0.00003561  0.0011900 0.0000
                      *** Initiating the SOSCF procedure ***
                           *** Shutting down DIIS ***
                      *** Re-Reading the Fockian *** 
                      *** Removing any level shift *** 
ITER      Energy       Delta-E        Grad      Rot      Max-DP    RMS-DP
 10   -845.16391342  -0.0000382182  0.000652  0.000652  0.000869  0.000015
               *** Restarting incremental Fock matrix formation ***
 11   -845.16384588   0.0000675415  0.000279  0.000675  0.000536  0.000015
 12   -845.16384877  -0.0000028935  0.000218  0.000951  0.000536  0.000011
 13   -845.16384955  -0.0000007734  0.000091  0.000213  0.000176  0.000005
 14   -845.16384974  -0.0000001972  0.000009  0.000026  0.000033  0.000001
 15   -845.16384976  -0.0000000114  0.000005  0.000017  0.000016  0.000000
                  ***Gradient check signals convergence***
              ***Rediagonalizing the Fockian in SOSCF/NRSCF***

               *****************************************************
               *                     SUCCESS                       *
               *           SCF CONVERGED AFTER  16 CYCLES          *
               *****************************************************

Old exchange energy                            =    -38.184957234 Eh
New exchange energy                            =    -38.184985334 Eh
Exchange energy change after final integration =     -0.000028100 Eh
Total energy after final integration           =   -845.163877856 Eh
Final COS-X integration done in                =   195.011 sec

----------------
TOTAL SCF ENERGY
----------------

Total Energy       :         -845.16387786 Eh          -22998.07832 eV

Components:
Nuclear Repulsion  :         1614.54309211 Eh           43933.95110 eV
Electronic Energy  :        -2459.70696996 Eh          -66932.02941 eV
One Electron Energy:        -4327.27739702 Eh         -117751.20433 eV
Two Electron Energy:         1867.57042705 Eh           50819.17492 eV
Max COSX asymmetry :            0.00000298 Eh               0.00008 eV

Virial components:
Potential Energy   :        -1680.33692253 Eh          -45724.29224 eV
Kinetic Energy     :          835.17304468 Eh           22726.21392 eV
Virial Ratio       :            2.01196259


DFT components:
N(Alpha)           :       73.999955396448 electrons
N(Beta)            :       73.999955396448 electrons
N(Total)           :      147.999910792896 electrons
E(XC)              :      -85.950276262819 Eh       
DFET-embed. en.    :        0.000000000000 Eh       

---------------
SCF CONVERGENCE
---------------

  Last Energy change         ...   -2.6944e-10  Tolerance :   1.0000e-08
  Last MAX-Density change    ...    3.9968e-15  Tolerance :   1.0000e-07
  Last RMS-Density change    ...    3.4805e-17  Tolerance :   5.0000e-09
  Last Orbital Gradient      ...    1.0391e-06  Tolerance :   1.0000e-05
  Last Orbital Rotation      ...    3.5906e-06  Tolerance :   1.0000e-05

             **** THE GBW FILE WAS UPDATED (8+.gbw) ****
             **** DENSITY 8+.scfp WAS UPDATED ****
             **** ENERGY FILE WAS UPDATED (8+.en.tmp) ****
             **** THE GBW FILE WAS UPDATED (8+.gbw) ****
             **** DENSITY 8+.scfp WAS UPDATED ****
----------------
ORBITAL ENERGIES
----------------

  NO   OCC          E(Eh)            E(eV) 
   0   2.0000     -14.652450      -398.7134 
   1   2.0000     -14.652423      -398.7127 
   2   2.0000     -10.527923      -286.4793 
   3   2.0000     -10.476414      -285.0777 
   4   2.0000     -10.475827      -285.0617 
   5   2.0000     -10.446313      -284.2586 
   6   2.0000     -10.446265      -284.2573 
   7   2.0000     -10.415699      -283.4256 
   8   2.0000     -10.415588      -283.4226 
   9   2.0000     -10.415564      -283.4219 
  10   2.0000     -10.415450      -283.4188 
  11   2.0000     -10.395404      -282.8733 
  12   2.0000     -10.395102      -282.8651 
  13   2.0000     -10.395065      -282.8641 
  14   2.0000     -10.394853      -282.8583 
  15   2.0000     -10.394634      -282.8524 
  16   2.0000     -10.394632      -282.8523 
  17   2.0000     -10.391322      -282.7623 
  18   2.0000     -10.391304      -282.7618 
  19   2.0000     -10.391293      -282.7614 
  20   2.0000     -10.391287      -282.7613 
  21   2.0000      -1.357468       -36.9386 
  22   2.0000      -1.238159       -33.6920 
  23   2.0000      -1.129552       -30.7367 
  24   2.0000      -1.108195       -30.1555 
  25   2.0000      -1.068239       -29.0683 
  26   2.0000      -1.038355       -28.2551 
  27   2.0000      -1.037805       -28.2401 
  28   2.0000      -1.029640       -28.0179 
  29   2.0000      -1.001760       -27.2593 
  30   2.0000      -0.967063       -26.3151 
  31   2.0000      -0.946228       -25.7482 
  32   2.0000      -0.923066       -25.1179 
  33   2.0000      -0.921860       -25.0851 
  34   2.0000      -0.913278       -24.8516 
  35   2.0000      -0.901622       -24.5344 
  36   2.0000      -0.868535       -23.6340 
  37   2.0000      -0.842751       -22.9324 
  38   2.0000      -0.829683       -22.5768 
  39   2.0000      -0.824658       -22.4401 
  40   2.0000      -0.796915       -21.6851 
  41   2.0000      -0.764803       -20.8114 
  42   2.0000      -0.762444       -20.7471 
  43   2.0000      -0.737956       -20.0808 
  44   2.0000      -0.724449       -19.7133 
  45   2.0000      -0.722366       -19.6566 
  46   2.0000      -0.720314       -19.6007 
  47   2.0000      -0.694523       -18.8989 
  48   2.0000      -0.694473       -18.8976 
  49   2.0000      -0.692250       -18.8371 
  50   2.0000      -0.662932       -18.0393 
  51   2.0000      -0.661025       -17.9874 
  52   2.0000      -0.651944       -17.7403 
  53   2.0000      -0.650075       -17.6895 
  54   2.0000      -0.649435       -17.6720 
  55   2.0000      -0.645020       -17.5519 
  56   2.0000      -0.635902       -17.3038 
  57   2.0000      -0.635598       -17.2955 
  58   2.0000      -0.631956       -17.1964 
  59   2.0000      -0.629478       -17.1290 
  60   2.0000      -0.602865       -16.4048 
  61   2.0000      -0.600053       -16.3283 
  62   2.0000      -0.595937       -16.2163 
  63   2.0000      -0.583680       -15.8827 
  64   2.0000      -0.580949       -15.8084 
  65   2.0000      -0.572234       -15.5713 
  66   2.0000      -0.569411       -15.4945 
  67   2.0000      -0.568561       -15.4713 
  68   2.0000      -0.550925       -14.9914 
  69   2.0000      -0.516579       -14.0568 
  70   2.0000      -0.474828       -12.9207 
  71   2.0000      -0.470855       -12.8126 
  72   2.0000      -0.456854       -12.4316 
  73   2.0000      -0.455916       -12.4061 
  74   0.0000      -0.086752        -2.3606 
  75   0.0000      -0.065375        -1.7790 
  76   0.0000      -0.057913        -1.5759 
  77   0.0000      -0.049474        -1.3462 
  78   0.0000      -0.046525        -1.2660 
  79   0.0000      -0.041185        -1.1207 
  80   0.0000       0.000325         0.0088 
  81   0.0000       0.031006         0.8437 
  82   0.0000       0.036861         1.0030 
  83   0.0000       0.043007         1.1703 
  84   0.0000       0.056431         1.5356 
  85   0.0000       0.059839         1.6283 
  86   0.0000       0.062397         1.6979 
  87   0.0000       0.081459         2.2166 
  88   0.0000       0.083148         2.2626 
  89   0.0000       0.088823         2.4170 
  90   0.0000       0.091118         2.4795 
  91   0.0000       0.097489         2.6528 
  92   0.0000       0.105117         2.8604 
  93   0.0000       0.106307         2.8928 
  94   0.0000       0.111421         3.0319 
  95   0.0000       0.114493         3.1155 
  96   0.0000       0.120056         3.2669 
  97   0.0000       0.132137         3.5956 
  98   0.0000       0.142877         3.8879 
  99   0.0000       0.147170         4.0047 
 100   0.0000       0.148439         4.0392 
 101   0.0000       0.149880         4.0784 
 102   0.0000       0.154315         4.1991 
 103   0.0000       0.163435         4.4473 
 104   0.0000       0.174017         4.7352 
 105   0.0000       0.185890         5.0583 
 106   0.0000       0.193086         5.2541 
 107   0.0000       0.207531         5.6472 
 108   0.0000       0.209676         5.7056 
 109   0.0000       0.218694         5.9510 
 110   0.0000       0.230108         6.2616 
 111   0.0000       0.235394         6.4054 
 112   0.0000       0.258093         7.0231 
 113   0.0000       0.269856         7.3431 
 114   0.0000       0.277887         7.5617 
 115   0.0000       0.281813         7.6685 
 116   0.0000       0.288184         7.8419 
 117   0.0000       0.307326         8.3628 
 118   0.0000       0.308027         8.3819 
 119   0.0000       0.311662         8.4807 
 120   0.0000       0.316293         8.6068 
 121   0.0000       0.323644         8.8068 
 122   0.0000       0.332051         9.0356 
 123   0.0000       0.337563         9.1856 
 124   0.0000       0.350785         9.5453 
 125   0.0000       0.361440         9.8353 
 126   0.0000       0.365999         9.9593 
 127   0.0000       0.377525        10.2730 
 128   0.0000       0.384913        10.4740 
 129   0.0000       0.387081        10.5330 
 130   0.0000       0.391554        10.6547 
 131   0.0000       0.402441        10.9510 
 132   0.0000       0.409235        11.1359 
 133   0.0000       0.418230        11.3806 
 134   0.0000       0.428207        11.6521 
 135   0.0000       0.430072        11.7029 
 136   0.0000       0.431054        11.7296 
 137   0.0000       0.432749        11.7757 
 138   0.0000       0.446146        12.1402 
 139   0.0000       0.453333        12.3358 
 140   0.0000       0.465496        12.6668 
 141   0.0000       0.469460        12.7747 
 142   0.0000       0.476868        12.9762 
 143   0.0000       0.480088        13.0639 
 144   0.0000       0.480773        13.0825 
 145   0.0000       0.486805        13.2466 
 146   0.0000       0.488102        13.2819 
 147   0.0000       0.490237        13.3400 
 148   0.0000       0.517900        14.0928 
 149   0.0000       0.522274        14.2118 
 150   0.0000       0.535133        14.5617 
 151   0.0000       0.551677        15.0119 
 152   0.0000       0.566341        15.4109 
 153   0.0000       0.569554        15.4983 
 154   0.0000       0.582439        15.8490 
 155   0.0000       0.586326        15.9547 
 156   0.0000       0.587519        15.9872 
 157   0.0000       0.589754        16.0480 
 158   0.0000       0.597211        16.2509 
 159   0.0000       0.598815        16.2946 
 160   0.0000       0.602582        16.3971 
 161   0.0000       0.619192        16.8491 
 162   0.0000       0.624818        17.0022 
 163   0.0000       0.626500        17.0479 
 164   0.0000       0.629168        17.1205 
 165   0.0000       0.633657        17.2427 
 166   0.0000       0.642413        17.4810 
 167   0.0000       0.643910        17.5217 
 168   0.0000       0.645027        17.5521 
 169   0.0000       0.647273        17.6132 
 170   0.0000       0.651125        17.7180 
 171   0.0000       0.655269        17.8308 
 172   0.0000       0.663176        18.0459 
 173   0.0000       0.664825        18.0908 
 174   0.0000       0.665635        18.1128 
 175   0.0000       0.668064        18.1789 
 176   0.0000       0.670471        18.2444 
 177   0.0000       0.672814        18.3082 
 178   0.0000       0.678547        18.4642 
 179   0.0000       0.683358        18.5951 
 180   0.0000       0.692012        18.8306 
 181   0.0000       0.695339        18.9211 
 182   0.0000       0.698755        19.0141 
 183   0.0000       0.701696        19.0941 
 184   0.0000       0.718237        19.5442 
 185   0.0000       0.723213        19.6796 
 186   0.0000       0.731748        19.9119 
 187   0.0000       0.736756        20.0482 
 188   0.0000       0.740405        20.1474 
 189   0.0000       0.746101        20.3025 
 190   0.0000       0.761112        20.7109 
 191   0.0000       0.764717        20.8090 
 192   0.0000       0.768020        20.8989 
 193   0.0000       0.771089        20.9824 
 194   0.0000       0.775022        21.0894 
 195   0.0000       0.781659        21.2700 
 196   0.0000       0.787856        21.4387 
 197   0.0000       0.791668        21.5424 
 198   0.0000       0.800953        21.7950 
 199   0.0000       0.810471        22.0540 
 200   0.0000       0.816156        22.2087 
 201   0.0000       0.817838        22.2545 
 202   0.0000       0.830268        22.5927 
 203   0.0000       0.841941        22.9104 
 204   0.0000       0.876208        23.8428 
 205   0.0000       0.879889        23.9430 
 206   0.0000       0.904797        24.6208 
 207   0.0000       0.912581        24.8326 
 208   0.0000       0.921412        25.0729 
 209   0.0000       0.938701        25.5433 
 210   0.0000       0.960539        26.1376 
 211   0.0000       0.999451        27.1965 
 212   0.0000       1.012846        27.5609 
 213   0.0000       1.072120        29.1739 
 214   0.0000       1.111705        30.2510 
 215   0.0000       1.117190        30.4003 
 216   0.0000       1.123398        30.5692 
 217   0.0000       1.127047        30.6685 
 218   0.0000       1.132342        30.8126 
 219   0.0000       1.140496        31.0345 
 220   0.0000       1.144968        31.1562 
 221   0.0000       1.146155        31.1885 
 222   0.0000       1.154133        31.4056 
 223   0.0000       1.171666        31.8826 
 224   0.0000       1.184951        32.2442 
 225   0.0000       1.190613        32.3982 
 226   0.0000       1.197361        32.5819 
 227   0.0000       1.201872        32.7046 
 228   0.0000       1.202323        32.7169 
 229   0.0000       1.217224        33.1223 
 230   0.0000       1.219733        33.1906 
 231   0.0000       1.236813        33.6554 
 232   0.0000       1.238582        33.7035 
 233   0.0000       1.269965        34.5575 
 234   0.0000       1.277203        34.7545 
 235   0.0000       1.285005        34.9668 
 236   0.0000       1.310951        35.6728 
 237   0.0000       1.330065        36.1929 
 238   0.0000       1.341364        36.5004 
 239   0.0000       1.356557        36.9138 
 240   0.0000       1.396958        38.0132 
 241   0.0000       1.467256        39.9261 
 242   0.0000       1.487408        40.4744 
 243   0.0000       1.490479        40.5580 
 244   0.0000       1.493718        40.6461 
 245   0.0000       1.509169        41.0666 
 246   0.0000       1.513848        41.1939 
 247   0.0000       1.520128        41.3648 
 248   0.0000       1.520559        41.3765 
 249   0.0000       1.529624        41.6232 
 250   0.0000       1.531872        41.6843 
 251   0.0000       1.537061        41.8256 
 252   0.0000       1.544222        42.0204 
 253   0.0000       1.544874        42.0382 
 254   0.0000       1.571790        42.7706 
 255   0.0000       1.578744        42.9598 
 256   0.0000       1.582884        43.0725 
 257   0.0000       1.601391        43.5761 
 258   0.0000       1.622785        44.1582 
 259   0.0000       1.625848        44.2416 
 260   0.0000       1.657816        45.1115 
 261   0.0000       1.668706        45.4078 
 262   0.0000       1.673677        45.5431 
 263   0.0000       1.682610        45.7862 
 264   0.0000       1.684343        45.8333 
 265   0.0000       1.696880        46.1744 
 266   0.0000       1.698039        46.2060 
 267   0.0000       1.708940        46.5026 
 268   0.0000       1.711548        46.5736 
 269   0.0000       1.717121        46.7252 
 270   0.0000       1.724782        46.9337 
 271   0.0000       1.736203        47.2445 
 272   0.0000       1.738226        47.2995 
 273   0.0000       1.748588        47.5815 
 274   0.0000       1.750598        47.6362 
 275   0.0000       1.752111        47.6774 
 276   0.0000       1.760908        47.9167 
 277   0.0000       1.779653        48.4268 
 278   0.0000       1.786305        48.6078 
 279   0.0000       1.793318        48.7987 
 280   0.0000       1.793558        48.8052 
 281   0.0000       1.800324        48.9893 
 282   0.0000       1.805485        49.1298 
 283   0.0000       1.808563        49.2135 
 284   0.0000       1.810794        49.2742 
 285   0.0000       1.810879        49.2765 
 286   0.0000       1.816681        49.4344 
 287   0.0000       1.825045        49.6620 
 288   0.0000       1.838551        50.0295 
 289   0.0000       1.868145        50.8348 
 290   0.0000       1.873356        50.9766 
 291   0.0000       1.880580        51.1732 
 292   0.0000       1.887337        51.3571 
 293   0.0000       1.896007        51.5930 
 294   0.0000       1.896594        51.6089 
 295   0.0000       1.899253        51.6813 
 296   0.0000       1.905293        51.8457 
 297   0.0000       1.924354        52.3643 
 298   0.0000       1.938024        52.7363 
 299   0.0000       1.940046        52.7913 
 300   0.0000       1.956249        53.2323 
 301   0.0000       1.958948        53.3057 
 302   0.0000       1.963636        53.4333 
 303   0.0000       1.964749        53.4635 
 304   0.0000       1.998035        54.3693 
 305   0.0000       2.001380        54.4603 
 306   0.0000       2.008932        54.6658 
 307   0.0000       2.016775        54.8792 
 308   0.0000       2.019308        54.9482 
 309   0.0000       2.033548        55.3357 
 310   0.0000       2.036812        55.4245 
 311   0.0000       2.047979        55.7284 
 312   0.0000       2.071241        56.3613 
 313   0.0000       2.090021        56.8723 
 314   0.0000       2.091931        56.9243 
 315   0.0000       2.096655        57.0529 
 316   0.0000       2.099983        57.1434 
 317   0.0000       2.116504        57.5930 
 318   0.0000       2.129216        57.9389 
 319   0.0000       2.140478        58.2454 
 320   0.0000       2.144441        58.3532 
 321   0.0000       2.184033        59.4306 
 322   0.0000       2.187069        59.5132 
 323   0.0000       2.221839        60.4593 
 324   0.0000       2.231660        60.7266 
 325   0.0000       2.237667        60.8900 
 326   0.0000       2.238675        60.9175 
 327   0.0000       2.257953        61.4420 
 328   0.0000       2.263924        61.6045 
 329   0.0000       2.269729        61.7625 
 330   0.0000       2.272216        61.8301 
 331   0.0000       2.273256        61.8584 
 332   0.0000       2.277678        61.9788 
 333   0.0000       2.287465        62.2451 
 334   0.0000       2.293651        62.4134 
 335   0.0000       2.298589        62.5478 
 336   0.0000       2.346353        63.8475 
 337   0.0000       2.357125        64.1406 
 338   0.0000       2.404506        65.4299 
 339   0.0000       2.417193        65.7752 
 340   0.0000       2.418912        65.8219 
 341   0.0000       2.420223        65.8576 
 342   0.0000       2.424260        65.9675 
 343   0.0000       2.425664        66.0057 
 344   0.0000       2.430655        66.1415 
 345   0.0000       2.442391        66.4608 
 346   0.0000       2.452131        66.7259 
 347   0.0000       2.457652        66.8761 
 348   0.0000       2.516529        68.4782 
 349   0.0000       2.523624        68.6713 
 350   0.0000       2.533723        68.9461 
 351   0.0000       2.537584        69.0512 
 352   0.0000       2.553620        69.4875 
 353   0.0000       2.554445        69.5100 
 354   0.0000       2.563881        69.7667 
 355   0.0000       2.572775        70.0088 
 356   0.0000       2.601459        70.7893 
 357   0.0000       2.609076        70.9966 
 358   0.0000       2.615508        71.1716 
 359   0.0000       2.637109        71.7594 
 360   0.0000       2.659070        72.3570 
 361   0.0000       2.668039        72.6010 
 362   0.0000       2.670377        72.6647 
 363   0.0000       2.705986        73.6336 
 364   0.0000       2.706841        73.6569 
 365   0.0000       2.715481        73.8920 
 366   0.0000       2.729758        74.2805 
 367   0.0000       2.739291        74.5399 
 368   0.0000       2.740416        74.5705 
 369   0.0000       2.753649        74.9306 
 370   0.0000       2.813214        76.5514 
 371   0.0000       2.820543        76.7509 
 372   0.0000       2.841561        77.3228 
 373   0.0000       2.843461        77.3745 
 374   0.0000       2.870527        78.1110 
 375   0.0000       2.880760        78.3895 
 376   0.0000       2.893270        78.7299 
 377   0.0000       2.914967        79.3203 
 378   0.0000       2.924961        79.5922 
 379   0.0000       2.936938        79.9181 
 380   0.0000       2.940937        80.0270 
 381   0.0000       2.945231        80.1438 
 382   0.0000       2.947598        80.2082 
 383   0.0000       2.954549        80.3974 
 384   0.0000       2.960867        80.5693 
 385   0.0000       2.998410        81.5909 
 386   0.0000       3.003892        81.7401 
 387   0.0000       3.038125        82.6716 
 388   0.0000       3.055195        83.1361 
 389   0.0000       3.060034        83.2677 
 390   0.0000       3.062120        83.3245 
 391   0.0000       3.066526        83.4444 
 392   0.0000       3.245446        88.3131 
 393   0.0000       3.253991        88.5456 
 394   0.0000       3.280004        89.2534 
 395   0.0000       3.399502        92.5051 
 396   0.0000       3.428786        93.3020 
 397   0.0000       3.581853        97.4672 
 398   0.0000       3.597384        97.8898 

                    ********************************
                    * MULLIKEN POPULATION ANALYSIS *
                    ********************************

-----------------------
MULLIKEN ATOMIC CHARGES
-----------------------
   0 C :    0.084568
   1 C :    0.085334
   2 C :    0.226379
   3 H :    0.101161
   4 H :    0.101262
   5 H :    0.122042
   6 N :   -0.175099
   7 N :   -0.175407
   8 C :   -0.020134
   9 C :   -0.075276
  10 C :   -0.075508
  11 C :   -0.060274
  12 C :   -0.060139
  13 C :    0.043525
  14 H :    0.032967
  15 H :    0.032957
  16 H :    0.050821
  17 C :   -0.019421
  18 C :   -0.075459
  19 C :   -0.075741
  20 C :   -0.059715
  21 C :   -0.060512
  22 C :    0.043153
  23 H :    0.032950
  24 H :    0.033000
  25 H :    0.050893
  26 C :    0.064643
  27 H :    0.041746
  28 H :    0.055157
  29 H :    0.061915
  30 C :    0.067270
  31 H :    0.057345
  32 H :    0.037397
  33 H :    0.061922
  34 C :    0.065426
  35 H :    0.053809
  36 H :    0.041086
  37 H :    0.061980
  38 C :    0.062036
  39 H :    0.049429
  40 H :    0.047438
  41 H :    0.063075
Sum of atomic charges:    1.0000000

--------------------------------
MULLIKEN REDUCED ORBITAL CHARGES
--------------------------------
  0 C s       :     3.159456  s :     3.159456
      pz      :     0.787996  p :     2.708997
      px      :     1.025191
      py      :     0.895810
      dz2     :     0.014758  d :     0.046978
      dxz     :     0.007478
      dyz     :     0.012253
      dx2y2   :     0.005002
      dxy     :     0.007488
  1 C s       :     3.159082  s :     3.159082
      pz      :     0.788374  p :     2.708613
      px      :     1.025166
      py      :     0.895073
      dz2     :     0.014697  d :     0.046970
      dxz     :     0.007450
      dyz     :     0.012321
      dx2y2   :     0.004995
      dxy     :     0.007506
  2 C s       :     3.116369  s :     3.116369
      pz      :     0.896278  p :     2.589909
      px      :     0.929714
      py      :     0.763917
      dz2     :     0.012575  d :     0.067343
      dxz     :     0.006434
      dyz     :     0.022585
      dx2y2   :     0.009167
      dxy     :     0.016583
  3 H s       :     0.874710  s :     0.874710
      pz      :     0.010691  p :     0.024129
      px      :     0.004579
      py      :     0.008859
  4 H s       :     0.874608  s :     0.874608
      pz      :     0.010770  p :     0.024130
      px      :     0.004579
      py      :     0.008781
  5 H s       :     0.854342  s :     0.854342
      pz      :     0.018245  p :     0.023615
      px      :     0.004058
      py      :     0.001313
  6 N s       :     3.359620  s :     3.359620
      pz      :     1.144546  p :     3.781751
      px      :     1.471213
      py      :     1.165992
      dz2     :     0.006691  d :     0.033728
      dxz     :     0.006366
      dyz     :     0.011331
      dx2y2   :     0.004380
      dxy     :     0.004960
  7 N s       :     3.359732  s :     3.359732
      pz      :     1.144223  p :     3.781928
      px      :     1.471397
      py      :     1.166307
      dz2     :     0.006654  d :     0.033748
      dxz     :     0.006381
      dyz     :     0.011372
      dx2y2   :     0.004382
      dxy     :     0.004960
  8 C s       :     3.077138  s :     3.077138
      pz      :     1.105513  p :     2.890901
      px      :     0.976761
      py      :     0.808627
      dz2     :     0.003993  d :     0.052095
      dxz     :     0.008596
      dyz     :     0.007060
      dx2y2   :     0.018674
      dxy     :     0.013772
  9 C s       :     3.066964  s :     3.066964
      pz      :     0.958409  p :     2.964704
      px      :     1.048053
      py      :     0.958241
      dz2     :     0.004577  d :     0.043608
      dxz     :     0.007867
      dyz     :     0.006594
      dx2y2   :     0.011705
      dxy     :     0.012865
 10 C s       :     3.066995  s :     3.066995
      pz      :     0.958234  p :     2.964910
      px      :     1.048592
      py      :     0.958084
      dz2     :     0.004582  d :     0.043603
      dxz     :     0.007834
      dyz     :     0.006613
      dx2y2   :     0.011632
      dxy     :     0.012942
 11 C s       :     3.223605  s :     3.223605
      pz      :     0.981101  p :     2.802963
      px      :     0.875166
      py      :     0.946696
      dz2     :     0.003309  d :     0.033706
      dxz     :     0.004380
      dyz     :     0.005176
      dx2y2   :     0.010661
      dxy     :     0.010179
 12 C s       :     3.223737  s :     3.223737
      pz      :     0.981600  p :     2.802697
      px      :     0.875023
      py      :     0.946075
      dz2     :     0.003379  d :     0.033705
      dxz     :     0.004375
      dyz     :     0.005143
      dx2y2   :     0.010584
      dxy     :     0.010224
 13 C s       :     3.148903  s :     3.148903
      pz      :     0.922390  p :     2.772428
      px      :     0.958231
      py      :     0.891807
      dz2     :     0.002793  d :     0.035145
      dxz     :     0.007407
      dyz     :     0.003394
      dx2y2   :     0.011390
      dxy     :     0.010161
 14 H s       :     0.943784  s :     0.943784
      pz      :     0.004494  p :     0.023248
      px      :     0.012781
      py      :     0.005973
 15 H s       :     0.943793  s :     0.943793
      pz      :     0.004361  p :     0.023250
      px      :     0.012700
      py      :     0.006189
 16 H s       :     0.926104  s :     0.926104
      pz      :     0.005219  p :     0.023075
      px      :     0.002931
      py      :     0.014925
 17 C s       :     3.076787  s :     3.076787
      pz      :     1.107025  p :     2.890516
      px      :     0.976576
      py      :     0.806916
      dz2     :     0.004059  d :     0.052118
      dxz     :     0.008554
      dyz     :     0.007015
      dx2y2   :     0.018726
      dxy     :     0.013764
 18 C s       :     3.066843  s :     3.066843
      pz      :     0.959998  p :     2.965013
      px      :     1.047063
      py      :     0.957953
      dz2     :     0.004538  d :     0.043603
      dxz     :     0.007803
      dyz     :     0.006685
      dx2y2   :     0.011625
      dxy     :     0.012953
 19 C s       :     3.067045  s :     3.067045
      pz      :     0.958300  p :     2.965091
      px      :     1.048174
      py      :     0.958617
      dz2     :     0.004578  d :     0.043606
      dxz     :     0.007738
      dyz     :     0.006692
      dx2y2   :     0.011701
      dxy     :     0.012897
 20 C s       :     3.223405  s :     3.223405
      pz      :     0.978969  p :     2.802614
      px      :     0.876168
      py      :     0.947477
      dz2     :     0.003195  d :     0.033697
      dxz     :     0.004431
      dyz     :     0.005188
      dx2y2   :     0.010690
      dxy     :     0.010194
 21 C s       :     3.224164  s :     3.224164
      pz      :     0.982222  p :     2.802641
      px      :     0.875083
      py      :     0.945336
      dz2     :     0.003458  d :     0.033707
      dxz     :     0.004285
      dyz     :     0.005178
      dx2y2   :     0.010562
      dxy     :     0.010225
 22 C s       :     3.148880  s :     3.148880
      pz      :     0.923067  p :     2.772821
      px      :     0.957960
      py      :     0.891793
      dz2     :     0.002823  d :     0.035146
      dxz     :     0.007366
      dyz     :     0.003407
      dx2y2   :     0.011404
      dxy     :     0.010145
 23 H s       :     0.943802  s :     0.943802
      pz      :     0.004713  p :     0.023249
      px      :     0.012603
      py      :     0.005932
 24 H s       :     0.943752  s :     0.943752
      pz      :     0.004204  p :     0.023248
      px      :     0.012805
      py      :     0.006239
 25 H s       :     0.926034  s :     0.926034
      pz      :     0.005157  p :     0.023073
      px      :     0.002936
      py      :     0.014981
 26 C s       :     2.934241  s :     2.934241
      pz      :     1.017720  p :     2.974711
      px      :     0.955593
      py      :     1.001398
      dz2     :     0.006336  d :     0.026405
      dxz     :     0.002753
      dyz     :     0.005397
      dx2y2   :     0.004952
      dxy     :     0.006967
 27 H s       :     0.934110  s :     0.934110
      pz      :     0.008228  p :     0.024144
      px      :     0.004393
      py      :     0.011523
 28 H s       :     0.920671  s :     0.920671
      pz      :     0.014417  p :     0.024172
      px      :     0.004228
      py      :     0.005527
 29 H s       :     0.914319  s :     0.914319
      pz      :     0.004976  p :     0.023766
      px      :     0.010631
      py      :     0.008159
 30 C s       :     2.932617  s :     2.932617
      pz      :     1.018534  p :     2.973711
      px      :     0.957073
      py      :     0.998105
      dz2     :     0.006670  d :     0.026401
      dxz     :     0.002865
      dyz     :     0.004914
      dx2y2   :     0.005103
      dxy     :     0.006849
 31 H s       :     0.918491  s :     0.918491
      pz      :     0.014613  p :     0.024164
      px      :     0.004210
      py      :     0.005341
 32 H s       :     0.938437  s :     0.938437
      pz      :     0.007815  p :     0.024165
      px      :     0.004411
      py      :     0.011940
 33 H s       :     0.914312  s :     0.914312
      pz      :     0.004985  p :     0.023766
      px      :     0.010804
      py      :     0.007978
 34 C s       :     2.933829  s :     2.933829
      pz      :     1.017761  p :     2.974345
      px      :     0.956342
      py      :     1.000243
      dz2     :     0.006110  d :     0.026399
      dxz     :     0.002651
      dyz     :     0.005752
      dx2y2   :     0.004832
      dxy     :     0.007054
 35 H s       :     0.922017  s :     0.922017
      pz      :     0.014244  p :     0.024174
      px      :     0.004266
      py      :     0.005665
 36 H s       :     0.934755  s :     0.934755
      pz      :     0.008522  p :     0.024159
      px      :     0.004342
      py      :     0.011295
 37 H s       :     0.914249  s :     0.914249
      pz      :     0.004988  p :     0.023772
      px      :     0.010710
      py      :     0.008074
 38 C s       :     2.936100  s :     2.936100
      pz      :     1.014179  p :     2.975464
      px      :     0.956681
      py      :     1.004604
      dz2     :     0.005444  d :     0.026399
      dxz     :     0.002360
      dyz     :     0.006874
      dx2y2   :     0.004368
      dxy     :     0.007354
 39 H s       :     0.926429  s :     0.926429
      pz      :     0.009666  p :     0.024142
      px      :     0.004357
      py      :     0.010120
 40 H s       :     0.928383  s :     0.928383
      pz      :     0.013527  p :     0.024179
      px      :     0.004251
      py      :     0.006401
 41 H s       :     0.913141  s :     0.913141
      pz      :     0.004777  p :     0.023784
      px      :     0.010616
      py      :     0.008392


                     *******************************
                     * LOEWDIN POPULATION ANALYSIS *
                     *******************************

----------------------
LOEWDIN ATOMIC CHARGES
----------------------
   0 C :    0.027875
   1 C :    0.027776
   2 C :    0.124114
   3 H :    0.061372
   4 H :    0.061390
   5 H :    0.065088
   6 N :    0.117604
   7 N :    0.117559
   8 C :   -0.027230
   9 C :   -0.017817
  10 C :   -0.017707
  11 C :   -0.019924
  12 C :   -0.019864
  13 C :    0.013320
  14 H :    0.043602
  15 H :    0.043620
  16 H :    0.049520
  17 C :   -0.027185
  18 C :   -0.017966
  19 C :   -0.017708
  20 C :   -0.019814
  21 C :   -0.019748
  22 C :    0.013260
  23 H :    0.043619
  24 H :    0.043647
  25 H :    0.049514
  26 C :   -0.049290
  27 H :    0.034480
  28 H :    0.040796
  29 H :    0.049640
  30 C :   -0.049016
  31 H :    0.041745
  32 H :    0.033548
  33 H :    0.049540
  34 C :   -0.049327
  35 H :    0.040190
  36 H :    0.034954
  37 H :    0.049649
  38 C :   -0.049920
  39 H :    0.037597
  40 H :    0.037426
  41 H :    0.050070

-------------------------------
LOEWDIN REDUCED ORBITAL CHARGES
-------------------------------
  0 C s       :     2.861273  s :     2.861273
      pz      :     0.923055  p :     2.995630
      px      :     1.020435
      py      :     1.052140
      dz2     :     0.038162  d :     0.115223
      dxz     :     0.014598
      dyz     :     0.033981
      dx2y2   :     0.014069
      dxy     :     0.014412
  1 C s       :     2.861269  s :     2.861269
      pz      :     0.923703  p :     2.995743
      px      :     1.020582
      py      :     1.051459
      dz2     :     0.037985  d :     0.115212
      dxz     :     0.014526
      dyz     :     0.034175
      dx2y2   :     0.014058
      dxy     :     0.014469
  2 C s       :     2.845530  s :     2.845530
      pz      :     1.024519  p :     2.872679
      px      :     0.948227
      py      :     0.899934
      dz2     :     0.029471  d :     0.157677
      dxz     :     0.010379
      dyz     :     0.060003
      dx2y2   :     0.023481
      dxy     :     0.034342
  3 H s       :     0.866866  s :     0.866866
      pz      :     0.031455  p :     0.071762
      px      :     0.014764
      py      :     0.025544
  4 H s       :     0.866841  s :     0.866841
      pz      :     0.031674  p :     0.071769
      px      :     0.014760
      py      :     0.025334
  5 H s       :     0.862414  s :     0.862414
      pz      :     0.052350  p :     0.072498
      px      :     0.013551
      py      :     0.006597
  6 N s       :     3.038867  s :     3.038867
      pz      :     1.195506  p :     3.765460
      px      :     1.378964
      py      :     1.190990
      dz2     :     0.017785  d :     0.078069
      dxz     :     0.012169
      dyz     :     0.029188
      dx2y2   :     0.010061
      dxy     :     0.008866
  7 N s       :     3.038805  s :     3.038805
      pz      :     1.195546  p :     3.765521
      px      :     1.378928
      py      :     1.191047
      dz2     :     0.017697  d :     0.078115
      dxz     :     0.012202
      dyz     :     0.029300
      dx2y2   :     0.010054
      dxy     :     0.008861
  8 C s       :     2.833740  s :     2.833740
      pz      :     1.079723  p :     3.062078
      px      :     1.096406
      py      :     0.885949
      dz2     :     0.008780  d :     0.131413
      dxz     :     0.018415
      dyz     :     0.016208
      dx2y2   :     0.050022
      dxy     :     0.037989
  9 C s       :     2.852723  s :     2.852723
      pz      :     0.951956  p :     3.057158
      px      :     1.042321
      py      :     1.062881
      dz2     :     0.009705  d :     0.107937
      dxz     :     0.016475
      dyz     :     0.014209
      dx2y2   :     0.032120
      dxy     :     0.035427
 10 C s       :     2.852725  s :     2.852725
      pz      :     0.951777  p :     3.057057
      px      :     1.042252
      py      :     1.063028
      dz2     :     0.009676  d :     0.107926
      dxz     :     0.016358
      dyz     :     0.014289
      dx2y2   :     0.031973
      dxy     :     0.035630
 11 C s       :     2.856229  s :     2.856229
      pz      :     0.982413  p :     3.074902
      px      :     1.054907
      py      :     1.037582
      dz2     :     0.007318  d :     0.088793
      dxz     :     0.009191
      dyz     :     0.012030
      dx2y2   :     0.030488
      dxy     :     0.029766
 12 C s       :     2.856234  s :     2.856234
      pz      :     0.982642  p :     3.074839
      px      :     1.055001
      py      :     1.037196
      dz2     :     0.007451  d :     0.088790
      dxz     :     0.009221
      dyz     :     0.011986
      dx2y2   :     0.030284
      dxy     :     0.029847
 13 C s       :     2.859530  s :     2.859530
      pz      :     0.929951  p :     3.036908
      px      :     1.069389
      py      :     1.037569
      dz2     :     0.006252  d :     0.090241
      dxz     :     0.016192
      dyz     :     0.006920
      dx2y2   :     0.032124
      dxy     :     0.028753
 14 H s       :     0.888846  s :     0.888846
      pz      :     0.014334  p :     0.067553
      px      :     0.035305
      py      :     0.017913
 15 H s       :     0.888825  s :     0.888825
      pz      :     0.014004  p :     0.067556
      px      :     0.035103
      py      :     0.018448
 16 H s       :     0.883419  s :     0.883419
      pz      :     0.015756  p :     0.067061
      px      :     0.010508
      py      :     0.040797
 17 C s       :     2.833686  s :     2.833686
      pz      :     1.080780  p :     3.062034
      px      :     1.096367
      py      :     0.884887
      dz2     :     0.008910  d :     0.131465
      dxz     :     0.018355
      dyz     :     0.016108
      dx2y2   :     0.050118
      dxy     :     0.037973
 18 C s       :     2.852685  s :     2.852685
      pz      :     0.952328  p :     3.057347
      px      :     1.041581
      py      :     1.063438
      dz2     :     0.009703  d :     0.107934
      dxz     :     0.016346
      dyz     :     0.014353
      dx2y2   :     0.031965
      dxy     :     0.035568
 19 C s       :     2.852676  s :     2.852676
      pz      :     0.951350  p :     3.057095
      px      :     1.041928
      py      :     1.063817
      dz2     :     0.009631  d :     0.107937
      dxz     :     0.016139
      dyz     :     0.014434
      dx2y2   :     0.032128
      dxy     :     0.035605
 20 C s       :     2.856217  s :     2.856217
      pz      :     0.981866  p :     3.074823
      px      :     1.054830
      py      :     1.038126
      dz2     :     0.007101  d :     0.088774
      dxz     :     0.009271
      dyz     :     0.011965
      dx2y2   :     0.030561
      dxy     :     0.029877
 21 C s       :     2.856242  s :     2.856242
      pz      :     0.982903  p :     3.074716
      px      :     1.054428
      py      :     1.037385
      dz2     :     0.007595  d :     0.088790
      dxz     :     0.009058
      dyz     :     0.012106
      dx2y2   :     0.030235
      dxy     :     0.029797
 22 C s       :     2.859534  s :     2.859534
      pz      :     0.930015  p :     3.036966
      px      :     1.068713
      py      :     1.038238
      dz2     :     0.006317  d :     0.090241
[...]
 12:    111.78   0.000057    0.29  0.000160  ( 0.001701  0.000013  0.012554)
 13:    116.77   0.000154    0.78  0.000411  ( 0.002209 -0.007514 -0.018696)
 14:    118.94   0.000193    0.98  0.000507  (-0.000027  0.007678 -0.021168)
 15:    131.17   0.000027    0.14  0.000065  (-0.005148 -0.002163  0.005833)
 16:    137.27   0.000007    0.04  0.000016  (-0.000155  0.000403  0.004032)
 17:    192.82   0.000063    0.32  0.000103  ( 0.001204  0.010056  0.000398)
 18:    210.50   0.000053    0.27  0.000079  ( 0.000817  0.000123  0.008825)
 19:    231.13   0.000001    0.00  0.000001  (-0.000407 -0.000378 -0.000978)
 20:    232.30   0.000000    0.00  0.000001  (-0.000226 -0.000206 -0.000708)
 21:    281.80   0.000000    0.00  0.000000  (-0.000062 -0.000043  0.000128)
 22:    301.88   0.000005    0.02  0.000005  (-0.002148 -0.000133 -0.000195)
 23:    330.95   0.002268   11.46  0.002139  ( 0.001832 -0.000240  0.046209)
 24:    355.64   0.000883    4.46  0.000775  (-0.001093  0.000017 -0.027814)
 25:    357.73   0.000045    0.23  0.000039  (-0.000384 -0.000258 -0.006242)
 26:    392.10   0.000041    0.21  0.000033  ( 0.001036  0.005566  0.000752)
 27:    426.08   0.000913    4.62  0.000669  ( 0.000163  0.025863 -0.000101)
 28:    481.80   0.000054    0.27  0.000035  ( 0.005923 -0.000071  0.000386)
 29:    493.14   0.000000    0.00  0.000000  (-0.000084  0.000122  0.000310)
 30:    532.35   0.000002    0.01  0.000001  (-0.001017 -0.000016 -0.000072)
 31:    532.97   0.000000    0.00  0.000000  (-0.000265  0.000049  0.000020)
 32:    541.85   0.000435    2.20  0.000250  (-0.015817  0.000153  0.000352)
 33:    546.04   0.000001    0.01  0.000001  ( 0.000755 -0.000024 -0.000370)
 34:    563.14   0.000448    2.26  0.000248  (-0.000128 -0.000145 -0.015758)
 35:    590.49   0.000307    1.55  0.000162  ( 0.000071 -0.012735  0.000118)
 36:    594.29   0.000011    0.05  0.000006  ( 0.000098  0.001015  0.002144)
 37:    619.73   0.000305    1.54  0.000153  ( 0.000020 -0.012387  0.000070)
 38:    697.22   0.000004    0.02  0.000002  (-0.001206  0.000277 -0.000632)
 39:    702.74   0.005801   29.32  0.002576  (-0.050753  0.000111  0.000593)
 40:    766.17   0.000013    0.06  0.000005  (-0.000214 -0.000219 -0.002242)
 41:    768.94   0.000001    0.01  0.000000  (-0.000265 -0.000384 -0.000485)
 42:    772.79   0.000007    0.04  0.000003  (-0.000002 -0.001534  0.000796)
 43:    777.17   0.000019    0.09  0.000008  ( 0.000057  0.002541  0.001037)
 44:    787.50   0.004438   22.43  0.001759  (-0.041931 -0.000479 -0.000664)
 45:    816.47   0.006909   34.92  0.002641  ( 0.004413  0.015489  0.048799)
 46:    818.59   0.005768   29.15  0.002199  (-0.000885  0.017931 -0.043318)
 47:    902.39   0.002127   10.75  0.000736  ( 0.027116  0.000588 -0.000029)
 48:    923.00   0.000001    0.00  0.000000  ( 0.000195 -0.000243  0.000349)
 49:    944.39   0.000031    0.16  0.000010  (-0.003209 -0.000014 -0.000295)
 50:    945.76   0.000253    1.28  0.000083  (-0.009112  0.000543  0.000313)
 51:    947.77   0.000018    0.09  0.000006  ( 0.002106 -0.000099 -0.001236)
 52:    949.96   0.000002    0.01  0.000001  ( 0.000512  0.000242 -0.000520)
 53:    971.65   0.001920    9.70  0.000617  ( 0.000052  0.024829  0.000150)
 54:    981.28   0.000009    0.04  0.000003  ( 0.000119  0.000076 -0.001641)
 55:   1008.65   0.000971    4.91  0.000300  (-0.000197 -0.017327  0.000430)
 56:   1009.42   0.000140    0.71  0.000043  (-0.000156  0.001073  0.006493)
 57:   1044.63   0.000087    0.44  0.000026  (-0.000587  0.000889 -0.004987)
 58:   1045.88   0.000610    3.09  0.000182  (-0.001734  0.000271  0.013382)
 59:   1058.58   0.000007    0.03  0.000002  (-0.000398 -0.000689  0.001154)
 60:   1060.55   0.000219    1.11  0.000064  ( 0.001620  0.000116  0.007857)
 61:   1063.00   0.000314    1.59  0.000092  ( 0.001081 -0.003606  0.008834)
 62:   1064.44   0.001480    7.48  0.000434  ( 0.003803 -0.002216 -0.020358)
 63:   1065.63   0.000083    0.42  0.000024  (-0.000374  0.001067 -0.004797)
 64:   1066.60   0.000110    0.55  0.000032  (-0.003058  0.000519 -0.004740)
 65:   1078.97   0.006276   31.72  0.001815  ( 0.000314 -0.042600 -0.000487)
 66:   1099.75   0.002426   12.26  0.000688  ( 0.000363  0.000181  0.026235)
 67:   1113.95   0.000569    2.88  0.000159  (-0.000339  0.000599 -0.012607)
 68:   1125.59   0.004877   24.65  0.001352  (-0.000066  0.036772 -0.000209)
 69:   1148.87   0.000209    1.06  0.000057  (-0.000054 -0.000291  0.007526)
 70:   1188.52   0.000961    4.86  0.000252  (-0.015884 -0.000033  0.000125)
 71:   1189.52   0.001001    5.06  0.000263  ( 0.016188 -0.000378 -0.000653)
 72:   1245.89   0.008006   40.46  0.002005  (-0.000228  0.044781  0.000048)
 73:   1264.01   0.004886   24.69  0.001206  (-0.000158  0.034730  0.000012)
 74:   1284.39   0.000000    0.00  0.000000  (-0.000058  0.000101 -0.000050)
 75:   1285.26   0.000001    0.00  0.000000  ( 0.000350  0.000210 -0.000202)
 76:   1303.32   0.000061    0.31  0.000015  (-0.000101  0.000035  0.003833)
 77:   1311.19   0.000157    0.79  0.000037  (-0.000076  0.006097  0.000299)
 78:   1336.21   0.000064    0.32  0.000015  ( 0.003816  0.000563  0.000312)
 79:   1337.11   0.004327   21.87  0.001010  (-0.031764  0.000271  0.000884)
 80:   1384.11   0.000290    1.47  0.000065  ( 0.000997 -0.000066 -0.008030)
 81:   1404.17   0.000012    0.06  0.000003  ( 0.001170 -0.000884  0.000781)
 82:   1406.97   0.000232    1.17  0.000051  (-0.007064 -0.000864  0.000891)
 83:   1410.94   0.000294    1.48  0.000065  (-0.000869  0.007997  0.000509)
 84:   1416.31   0.000029    0.14  0.000006  (-0.001486  0.000574  0.001940)
 85:   1426.18   0.000095    0.48  0.000021  (-0.000575 -0.004497  0.000464)
 86:   1446.90   0.000882    4.46  0.000190  (-0.000107 -0.002526  0.013558)
 87:   1449.48   0.002302   11.63  0.000496  (-0.000281 -0.022115 -0.002538)
 88:   1457.40   0.000035    0.18  0.000008  ( 0.000198 -0.002670 -0.000629)
 89:   1462.81   0.002713   13.71  0.000579  ( 0.021829 -0.009946  0.001826)
 90:   1463.91   0.002852   14.41  0.000608  ( 0.014923  0.016263 -0.010988)
 91:   1464.53   0.005933   29.99  0.001264  (-0.005847 -0.006811  0.034405)
 92:   1464.65   0.003921   19.82  0.000835  ( 0.010698 -0.013529 -0.023194)
 93:   1466.17   0.005506   27.82  0.001172  ( 0.025239  0.004102  0.022759)
 94:   1479.55   0.000143    0.72  0.000030  (-0.001025  0.000547  0.005366)
 95:   1530.13   0.008068   40.77  0.001645  ( 0.000230  0.040562 -0.000214)
 96:   1539.05   0.000057    0.29  0.000011  ( 0.002700  0.001760  0.001042)
 97:   1539.66   0.007225   36.51  0.001464  ( 0.038211 -0.000735 -0.001957)
 98:   1550.04   0.001718    8.68  0.000346  (-0.000228  0.000095 -0.018596)
 99:   1646.71   0.025151  127.10  0.004766  ( 0.000451 -0.068655  0.007254)
100:   1647.06   0.007929   40.07  0.001502  ( 0.000553 -0.036169 -0.013923)
101:   1694.27   0.002107   10.65  0.000388  ( 0.000022 -0.019532  0.002561)
102:   1694.52   0.000625    3.16  0.000115  ( 0.000107 -0.008728 -0.006239)
103:   1710.06   0.000009    0.05  0.000002  (-0.001274 -0.000153 -0.000281)
104:   1711.34   0.001652    8.35  0.000301  (-0.017349 -0.000023  0.000556)
105:   3067.09   0.002141   10.82  0.000218  ( 0.012828 -0.007296  0.000242)
106:   3067.46   0.002251   11.38  0.000229  ( 0.009078  0.012068  0.000990)
107:   3068.00   0.001887    9.54  0.000192  (-0.006536 -0.011793  0.003183)
108:   3069.13   0.003410   17.23  0.000347  (-0.005322  0.017760  0.001726)
109:   3152.64   0.001426    7.20  0.000141  ( 0.000639 -0.003050  0.011463)
110:   3152.97   0.001749    8.84  0.000173  ( 0.001112  0.003440  0.012652)
111:   3153.21   0.000619    3.13  0.000061  ( 0.001090  0.006033  0.004868)
112:   3154.39   0.001000    5.06  0.000099  ( 0.000266 -0.007409  0.006633)
113:   3196.09   0.000675    3.41  0.000066  ( 0.003441  0.007079 -0.001977)
114:   3196.62   0.001016    5.13  0.000099  (-0.005388  0.008330  0.000857)
115:   3196.72   0.000289    1.46  0.000028  (-0.001603  0.004731 -0.001811)
116:   3197.12   0.000842    4.26  0.000082  ( 0.002777  0.008506  0.001467)
117:   3217.21   0.000001    0.01  0.000000  ( 0.000097 -0.000183  0.000272)
118:   3217.38   0.000001    0.01  0.000000  (-0.000049 -0.000154 -0.000297)
119:   3224.17   0.000231    1.17  0.000022  ( 0.004719 -0.000025 -0.000290)
120:   3224.33   0.000243    1.23  0.000024  (-0.004849 -0.000044  0.000084)
121:   3236.43   0.000133    0.67  0.000013  (-0.000086  0.003487 -0.000828)
122:   3236.58   0.000118    0.60  0.000011  (-0.000004  0.003247  0.000927)
123:   3291.80   0.006826   34.50  0.000647  (-0.000390  0.000089 -0.025436)
124:   3300.18   0.004361   22.04  0.000412  (-0.000046  0.020308  0.000013)
125:   3319.18   0.003638   18.39  0.000342  (-0.000266 -0.000022 -0.018493)

* The epsilon (eps) is given for a Dirac delta lineshape.
** The dipole moment derivative (T) already includes vibrational overlap.

The first frequency considered to be a vibration is 7
The total number of vibrations considered is 119


--------------------------
THERMOCHEMISTRY AT 298.15K
--------------------------

Temperature         ... 298.15 K
Pressure            ... 1.00 atm
Total Mass          ... 277.39 AMU

Throughout the following assumptions are being made:
  (1) The electronic state is orbitally nondegenerate
  (2) There are no thermally accessible electronically excited states
  (3) Hindered rotations indicated by low frequency modes are not
      treated as such but are treated as vibrations and this may
      cause some error
  (4) All equations used are the standard statistical mechanics
      equations for an ideal gas
  (5) All vibrations are strictly harmonic

freq.      19.12  E(vib)   ...       0.57 
freq.      55.36  E(vib)   ...       0.52 
freq.      74.10  E(vib)   ...       0.49 
freq.      83.77  E(vib)   ...       0.48 
freq.      87.34  E(vib)   ...       0.48 
freq.     111.78  E(vib)   ...       0.45 
freq.     116.77  E(vib)   ...       0.44 
freq.     118.94  E(vib)   ...       0.44 
freq.     131.17  E(vib)   ...       0.42 
freq.     137.27  E(vib)   ...       0.42 
freq.     192.82  E(vib)   ...       0.36 
freq.     210.50  E(vib)   ...       0.34 
freq.     231.13  E(vib)   ...       0.32 
freq.     232.30  E(vib)   ...       0.32 
freq.     281.80  E(vib)   ...       0.28 
freq.     301.88  E(vib)   ...       0.26 
freq.     330.95  E(vib)   ...       0.24 
freq.     355.64  E(vib)   ...       0.22 
freq.     357.73  E(vib)   ...       0.22 
freq.     392.10  E(vib)   ...       0.20 
freq.     426.08  E(vib)   ...       0.18 
freq.     481.80  E(vib)   ...       0.15 
freq.     493.14  E(vib)   ...       0.14 
freq.     532.35  E(vib)   ...       0.13 
freq.     532.97  E(vib)   ...       0.13 
freq.     541.85  E(vib)   ...       0.12 
freq.     546.04  E(vib)   ...       0.12 
freq.     563.14  E(vib)   ...       0.11 
freq.     590.49  E(vib)   ...       0.10 
freq.     594.29  E(vib)   ...       0.10 
freq.     619.73  E(vib)   ...       0.09 
freq.     697.22  E(vib)   ...       0.07 
freq.     702.74  E(vib)   ...       0.07 
freq.     766.17  E(vib)   ...       0.06 
freq.     768.94  E(vib)   ...       0.06 
freq.     772.79  E(vib)   ...       0.05 
freq.     777.17  E(vib)   ...       0.05 
freq.     787.50  E(vib)   ...       0.05 
freq.     816.47  E(vib)   ...       0.05 
freq.     818.59  E(vib)   ...       0.05 
freq.     902.39  E(vib)   ...       0.03 
freq.     923.00  E(vib)   ...       0.03 
freq.     944.39  E(vib)   ...       0.03 
freq.     945.76  E(vib)   ...       0.03 
freq.     947.77  E(vib)   ...       0.03 
freq.     949.96  E(vib)   ...       0.03 
freq.     971.65  E(vib)   ...       0.03 
freq.     981.28  E(vib)   ...       0.02 
freq.    1008.65  E(vib)   ...       0.02 
freq.    1009.42  E(vib)   ...       0.02 
freq.    1044.63  E(vib)   ...       0.02 
freq.    1045.88  E(vib)   ...       0.02 
freq.    1058.58  E(vib)   ...       0.02 
freq.    1060.55  E(vib)   ...       0.02 
freq.    1063.00  E(vib)   ...       0.02 
freq.    1064.44  E(vib)   ...       0.02 
freq.    1065.63  E(vib)   ...       0.02 
freq.    1066.60  E(vib)   ...       0.02 
freq.    1078.97  E(vib)   ...       0.02 
freq.    1099.75  E(vib)   ...       0.02 
freq.    1113.95  E(vib)   ...       0.01 
freq.    1125.59  E(vib)   ...       0.01 
freq.    1148.87  E(vib)   ...       0.01 
freq.    1188.52  E(vib)   ...       0.01 
freq.    1189.52  E(vib)   ...       0.01 
freq.    1245.89  E(vib)   ...       0.01 
freq.    1264.01  E(vib)   ...       0.01 
freq.    1284.39  E(vib)   ...       0.01 
freq.    1285.26  E(vib)   ...       0.01 
freq.    1303.32  E(vib)   ...       0.01 
freq.    1311.19  E(vib)   ...       0.01 
freq.    1336.21  E(vib)   ...       0.01 
freq.    1337.11  E(vib)   ...       0.01 
freq.    1384.11  E(vib)   ...       0.00 
freq.    1404.17  E(vib)   ...       0.00 
freq.    1406.97  E(vib)   ...       0.00 
freq.    1410.94  E(vib)   ...       0.00 
freq.    1416.31  E(vib)   ...       0.00 
freq.    1426.18  E(vib)   ...       0.00 
freq.    1446.90  E(vib)   ...       0.00 
freq.    1449.48  E(vib)   ...       0.00 
freq.    1457.40  E(vib)   ...       0.00 
freq.    1462.81  E(vib)   ...       0.00 
freq.    1463.91  E(vib)   ...       0.00 
freq.    1464.53  E(vib)   ...       0.00 
freq.    1464.65  E(vib)   ...       0.00 
freq.    1466.17  E(vib)   ...       0.00 
freq.    1479.55  E(vib)   ...       0.00 
freq.    1530.13  E(vib)   ...       0.00 
freq.    1539.05  E(vib)   ...       0.00 
freq.    1539.66  E(vib)   ...       0.00 
freq.    1550.04  E(vib)   ...       0.00 
freq.    1646.71  E(vib)   ...       0.00 
freq.    1647.06  E(vib)   ...       0.00 
freq.    1694.27  E(vib)   ...       0.00 
freq.    1694.52  E(vib)   ...       0.00 
freq.    1710.06  E(vib)   ...       0.00 
freq.    1711.34  E(vib)   ...       0.00 
freq.    3067.09  E(vib)   ...       0.00 
freq.    3067.46  E(vib)   ...       0.00 
freq.    3068.00  E(vib)   ...       0.00 
freq.    3069.13  E(vib)   ...       0.00 
freq.    3152.64  E(vib)   ...       0.00 
freq.    3152.97  E(vib)   ...       0.00 
freq.    3153.21  E(vib)   ...       0.00 
freq.    3154.39  E(vib)   ...       0.00 
freq.    3196.09  E(vib)   ...       0.00 
freq.    3196.62  E(vib)   ...       0.00 
freq.    3196.72  E(vib)   ...       0.00 
freq.    3197.12  E(vib)   ...       0.00 
freq.    3217.21  E(vib)   ...       0.00 
freq.    3217.38  E(vib)   ...       0.00 
freq.    3224.17  E(vib)   ...       0.00 
freq.    3224.33  E(vib)   ...       0.00 
freq.    3236.43  E(vib)   ...       0.00 
freq.    3236.58  E(vib)   ...       0.00 
freq.    3291.80  E(vib)   ...       0.00 
freq.    3300.18  E(vib)   ...       0.00 
freq.    3319.18  E(vib)   ...       0.00 

------------
INNER ENERGY
------------

The inner energy is: U= E(el) + E(ZPE) + E(vib) + E(rot) + E(trans)
    E(el)   - is the total energy from the electronic structure calculation
              = E(kin-el) + E(nuc-el) + E(el-el) + E(nuc-nuc)
    E(ZPE)  - the the zero temperature vibrational energy from the frequency calculation
    E(vib)  - the the finite temperature correction to E(ZPE) due to population
              of excited vibrational states
    E(rot)  - is the rotational thermal energy
    E(trans)- is the translational thermal energy

Summary of contributions to the inner energy U:
Electronic energy                ...   -845.17338670 Eh
Zero point energy                ...      0.35954888 Eh     225.62 kcal/mol
Thermal vibrational correction   ...      0.01594883 Eh      10.01 kcal/mol
Thermal rotational correction    ...      0.00141627 Eh       0.89 kcal/mol
Thermal translational correction ...      0.00141627 Eh       0.89 kcal/mol
-----------------------------------------------------------------------
Total thermal energy                   -844.79505646 Eh


Summary of corrections to the electronic energy:
(perhaps to be used in another calculation)
Total thermal correction                  0.01878137 Eh      11.79 kcal/mol
Non-thermal (ZPE) correction              0.35954888 Eh     225.62 kcal/mol
-----------------------------------------------------------------------
Total correction                          0.37833024 Eh     237.41 kcal/mol


--------
ENTHALPY
--------

The enthalpy is H = U + kB*T
                kB is Boltzmann's constant
Total free energy                 ...   -844.79505646 Eh 
Thermal Enthalpy correction       ...      0.00094421 Eh       0.59 kcal/mol
-----------------------------------------------------------------------
Total Enthalpy                    ...   -844.79411225 Eh


Note: Only C1 symmetry has been detected, increase convergence thresholds 
      if your molecule has a higher symmetry. Symmetry factor of 1.0 is   
      used for the rotational entropy correction. 
 

Note: Rotational entropy computed according to Herzberg 
Infrared and Raman Spectra, Chapter V,1, Van Nostrand Reinhold, 1945 
Point Group:  C1, Symmetry Number:   1  
Rotational constants in cm-1:     0.023099     0.005958     0.005197 

Vibrational entropy computed according to the QRRHO of S. Grimme
Chem.Eur.J. 2012 18 9955


-------
ENTROPY
-------

The entropy contributions are T*S = T*(S(el)+S(vib)+S(rot)+S(trans))
     S(el)   - electronic entropy
     S(vib)  - vibrational entropy
     S(rot)  - rotational entropy
     S(trans)- translational entropy
The entropies will be listed as multiplied by the temperature to get
units of energy

Electronic entropy                ...      0.00000000 Eh      0.00 kcal/mol
Vibrational entropy               ...      0.02812457 Eh     17.65 kcal/mol
Rotational entropy                ...      0.01619118 Eh     10.16 kcal/mol
Translational entropy             ...      0.02031620 Eh     12.75 kcal/mol
-----------------------------------------------------------------------
Final entropy term                ...      0.06463195 Eh     40.56 kcal/mol

In case the symmetry of your molecule has not been determined correctly
or in case you have a reason to use a different symmetry number we print 
out the resulting rotational entropy values for sn=1,12 :
 --------------------------------------------------------
|  sn= 1 | S(rot)=       0.01619118 Eh     10.16 kcal/mol|
|  sn= 2 | S(rot)=       0.01553672 Eh      9.75 kcal/mol|
|  sn= 3 | S(rot)=       0.01515389 Eh      9.51 kcal/mol|
|  sn= 4 | S(rot)=       0.01488227 Eh      9.34 kcal/mol|
|  sn= 5 | S(rot)=       0.01467158 Eh      9.21 kcal/mol|
|  sn= 6 | S(rot)=       0.01449943 Eh      9.10 kcal/mol|
|  sn= 7 | S(rot)=       0.01435389 Eh      9.01 kcal/mol|
|  sn= 8 | S(rot)=       0.01422781 Eh      8.93 kcal/mol|
|  sn= 9 | S(rot)=       0.01411660 Eh      8.86 kcal/mol|
|  sn=10 | S(rot)=       0.01401712 Eh      8.80 kcal/mol|
|  sn=11 | S(rot)=       0.01392713 Eh      8.74 kcal/mol|
|  sn=12 | S(rot)=       0.01384498 Eh      8.69 kcal/mol|
 --------------------------------------------------------


-------------------
GIBBS FREE ENERGY
-------------------

The Gibbs free energy is G = H - T*S

Total enthalpy                    ...   -844.79411225 Eh 
Total entropy correction          ...     -0.06463195 Eh    -40.56 kcal/mol
-----------------------------------------------------------------------
Final Gibbs free energy         ...   -844.85874420 Eh

For completeness - the Gibbs free energy minus the electronic energy
G-E(el)                           ...      0.31464250 Eh    197.44 kcal/mol


Timings for individual modules:

Sum of individual times         ...     6778.934 sec (= 112.982 min)
GTO integral calculation        ...        0.688 sec (=   0.011 min)   0.0 %
SCF iterations                  ...     1200.833 sec (=  20.014 min)  17.7 %
Analytical frequency calculation...     5577.413 sec (=  92.957 min)  82.3 %
                             ****ORCA TERMINATED NORMALLY****
TOTAL RUN TIME: 0 days 1 hours 52 minutes 59 seconds 671 msec
