
                                 *****************
                                 * O   R   C   A *
                                 *****************

                                            #,                                       
                                            ###                                      
                                            ####                                     
                                            #####                                    
                                            ######                                   
                                           ########,                                 
                                     ,,################,,,,,                         
                               ,,#################################,,                 
                          ,,##########################################,,             
                       ,#########################################, ''#####,          
                    ,#############################################,,   '####,        
                  ,##################################################,,,,####,       
                ,###########''''           ''''###############################       
              ,#####''   ,,,,##########,,,,          '''####'''          '####       
            ,##' ,,,,###########################,,,                        '##       
           ' ,,###''''                  '''############,,,                           
         ,,##''                                '''############,,,,        ,,,,,,###''
      ,#''                                            '''#######################'''  
     '                                                          ''''####''''         
             ,#######,   #######,   ,#######,      ##                                
            ,#'     '#,  ##    ##  ,#'     '#,    #''#        ######   ,####,        
            ##       ##  ##   ,#'  ##            #'  '#       #        #'  '#        
            ##       ##  #######   ##           ,######,      #####,   #    #        
            '#,     ,#'  ##    ##  '#,     ,#' ,#      #,         ##   #,  ,#        
             '#######'   ##     ##  '#######'  #'      '#     #####' # '####'        



                  #######################################################
                  #                        -***-                        #
                  #          Department of theory and spectroscopy      #
                  #    Directorship and core code : Frank Neese         #
                  #        Max Planck Institute fuer Kohlenforschung    #
                  #                Kaiser Wilhelm Platz 1               #
                  #                 D-45470 Muelheim/Ruhr               #
                  #                      Germany                        #
                  #                                                     #
                  #                  All rights reserved                #
                  #                        -***-                        #
                  #######################################################


                         Program Version 5.0.4 -  RELEASE  -


 With contributions from (in alphabetic order):
   Daniel Aravena         : Magnetic Suceptibility
   Michael Atanasov       : Ab Initio Ligand Field Theory (pilot matlab implementation)
   Alexander A. Auer      : GIAO ZORA, VPT2 properties, NMR spectrum
   Ute Becker             : Parallelization
   Giovanni Bistoni       : ED, misc. LED, open-shell LED, HFLD
   Martin Brehm           : Molecular dynamics
   Dmytro Bykov           : SCF Hessian
   Vijay G. Chilkuri      : MRCI spin determinant printing, contributions to CSF-ICE
   Dipayan Datta          : RHF DLPNO-CCSD density
   Achintya Kumar Dutta   : EOM-CC, STEOM-CC
   Dmitry Ganyushin       : Spin-Orbit,Spin-Spin,Magnetic field MRCI
   Miquel Garcia          : C-PCM and meta-GGA Hessian, CC/C-PCM, Gaussian charge scheme
   Yang Guo               : DLPNO-NEVPT2, F12-NEVPT2, CIM, IAO-localization
   Andreas Hansen         : Spin unrestricted coupled pair/coupled cluster methods
   Benjamin Helmich-Paris : MC-RPA, TRAH-SCF, COSX integrals
   Lee Huntington         : MR-EOM, pCC
   Robert Izsak           : Overlap fitted RIJCOSX, COSX-SCS-MP3, EOM
   Marcus Kettner         : VPT2
   Christian Kollmar      : KDIIS, OOCD, Brueckner-CCSD(T), CCSD density, CASPT2, CASPT2-K
   Simone Kossmann        : Meta GGA functionals, TD-DFT gradient, OOMP2, MP2 Hessian
   Martin Krupicka        : Initial AUTO-CI
   Lucas Lang             : DCDCAS
   Marvin Lechner         : AUTO-CI (C++ implementation), FIC-MRCC
   Dagmar Lenk            : GEPOL surface, SMD
   Dimitrios Liakos       : Extrapolation schemes; Compound Job, initial MDCI parallelization
   Dimitrios Manganas     : Further ROCIS development; embedding schemes
   Dimitrios Pantazis     : SARC Basis sets
   Anastasios Papadopoulos: AUTO-CI, single reference methods and gradients
   Taras Petrenko         : DFT Hessian,TD-DFT gradient, ASA, ECA, R-Raman, ABS, FL, XAS/XES, NRVS
   Peter Pinski           : DLPNO-MP2, DLPNO-MP2 Gradient
   Christoph Reimann      : Effective Core Potentials
   Marius Retegan         : Local ZFS, SOC
   Christoph Riplinger    : Optimizer, TS searches, QM/MM, DLPNO-CCSD(T), (RO)-DLPNO pert. Triples
   Tobias Risthaus        : Range-separated hybrids, TD-DFT gradient, RPA, STAB
   Michael Roemelt        : Original ROCIS implementation
   Masaaki Saitow         : Open-shell DLPNO-CCSD energy and density
   Barbara Sandhoefer     : DKH picture change effects
   Avijit Sen             : IP-ROCIS
   Kantharuban Sivalingam : CASSCF convergence, NEVPT2, FIC-MRCI
   Bernardo de Souza      : ESD, SOC TD-DFT
   Georgi Stoychev        : AutoAux, RI-MP2 NMR, DLPNO-MP2 response
   Willem Van den Heuvel  : Paramagnetic NMR
   Boris Wezisla          : Elementary symmetry handling
   Frank Wennmohs         : Technical directorship


 We gratefully acknowledge several colleagues who have allowed us to
 interface, adapt or use parts of their codes:
   Stefan Grimme, W. Hujo, H. Kruse, P. Pracht,  : VdW corrections, initial TS optimization,
                  C. Bannwarth, S. Ehlert          DFT functionals, gCP, sTDA/sTD-DF
   Ed Valeev, F. Pavosevic, A. Kumar             : LibInt (2-el integral package), F12 methods
   Garnet Chan, S. Sharma, J. Yang, R. Olivares  : DMRG
   Ulf Ekstrom                                   : XCFun DFT Library
   Mihaly Kallay                                 : mrcc  (arbitrary order and MRCC methods)
   Jiri Pittner, Ondrej Demel                    : Mk-CCSD
   Frank Weinhold                                : gennbo (NPA and NBO analysis)
   Christopher J. Cramer and Donald G. Truhlar   : smd solvation model
   Lars Goerigk                                  : TD-DFT with DH, B97 family of functionals
   V. Asgeirsson, H. Jonsson                     : NEB implementation
   FAccTs GmbH                                   : IRC, NEB, NEB-TS, DLPNO-Multilevel, CI-OPT
                                                   MM, QMMM, 2- and 3-layer-ONIOM, Crystal-QMMM,
                                                   LR-CPCM, SF, NACMEs, symmetry and pop. for TD-DFT,
                                                   nearIR, NL-DFT gradient (VV10), updates on ESD,
                                                   ML-optimized integration grids
   S Lehtola, MJT Oliveira, MAL Marques          : LibXC Library
   Liviu Ungur et al                             : ANISO software


 Your calculation uses the libint2 library for the computation of 2-el integrals
 For citations please refer to: http://libint.valeyev.net

 Your ORCA version has been built with support for libXC version: 5.1.0
 For citations please refer to: https://tddft.org/programs/libxc/

 This ORCA versions uses:
   CBLAS   interface :  Fast vector & matrix operations
   LAPACKE interface :  Fast linear algebra routines
   SCALAPACK package :  Parallel linear algebra routines
   Shared memory     :  Shared parallel matrices
   BLAS/LAPACK       :  OpenBLAS 0.3.15  USE64BITINT DYNAMIC_ARCH NO_AFFINITY SkylakeX SINGLE_THREADED
        Core in use  :  SkylakeX
   Copyright (c) 2011-2014, The OpenBLAS Project


Your calculation utilizes the atom-pairwise dispersion correction
based on tight binding partial charges (D4)
Cite in your paper:
E.Caldeweyher, C.Bannwarth, S.Grimme, J.Chem.Phys., (2017), 147, 034112.
E.Caldeweyher, S.Ehlert, A.Hansen, H.Neugebauer, S.Grimme, J.Chem.Phys., (2018), in progress.
   

XCFun DFT library Copyright 2009-2010 Ulf Ekstrom and contributors.
See http://admol.org/xcfun for more information.
This is free software; see the source code for copying conditions.
There is ABSOLUTELY NO WARRANTY; not even for MERCHANTABILITY or FITNESS FOR A PARTICULAR PURPOSE.
For details see the documentation.
Scientific users of this library should cite U. Ekstrom, L. Visscher, R. Bast, A. J. Thorvaldsen and K. Ruud;
J.Chem.Theor.Comp. 2010, DOI: 10.1021/ct100117s
XCFun Version 0.99 

================================================================================

----- Orbital basis set information -----
Your calculation utilizes the basis: def2-SVP
   F. Weigend and R. Ahlrichs, Phys. Chem. Chem. Phys. 7, 3297 (2005).

----- AuxJ basis set information -----
Your calculation utilizes the auxiliary basis: def2/J
   F. Weigend, Phys. Chem. Chem. Phys. 8, 1057 (2006).

================================================================================
                                        WARNINGS
                       Please study these warnings very carefully!
================================================================================


INFO   : the flag for use of the SHARK integral package has been found!

================================================================================
                                       INPUT FILE
================================================================================
NAME = DFT_water_outs/8-gasSP.inp
|  1> ! SP wB97X D4 def2-SVP def2/J defgrid2 
|  2> %maxcore 3000
|  3> %PAL NPROCS 4 END
|  4> * xyz 0 1
|  5> C 0.3072 0.7601 -1.7246
|  6> C 0.2166 -0.5876 -1.7958
|  7> C -0.072 -0.0062 0.4077
|  8> H 0.4774 1.5117 -2.4932
|  9> H 0.2944 -1.2706 -2.6396
| 10> N 0.1296 1.0842 -0.3837
| 11> N -0.014 -1.0241 -0.496
| 12> C 0.1573 2.4248 0.1181
| 13> C -1.0566 3.0739 0.3812
| 14> C 1.3985 3.0399 0.3306
| 15> C -1.0061 4.3859 0.8591
| 16> C 1.4063 4.3538 0.8065
| 17> C 0.214 5.0232 1.0663
| 18> H -1.9415 4.9128 1.0702
| 19> H 2.3645 4.8527 0.9798
| 20> H 0.2359 6.051 1.4392
| 21> C -0.1697 -2.4023 -0.141
| 22> C -1.3996 -3.0285 -0.3849
| 23> C 0.9138 -3.0766 0.4381
| 24> C -1.525 -4.3798 -0.0511
| 25> C 0.7469 -4.4256 0.7616
| 26> C -0.4599 -5.0742 0.5152
| 27> H -2.4773 -4.8879 -0.2304
| 28> H 1.579 -4.9702 1.2179
| 29> H -0.5742 -6.1305 0.7739
| 30> C 2.6792 2.2888 0.079
| 31> H 2.6944 1.3482 0.6522
| 32> H 2.7933 2.0185 -0.9827
| 33> H 3.5508 2.8903 0.372
| 34> C 2.2027 -2.3537 0.7229
| 35> H 2.592 -1.8545 -0.1787
| 36> H 2.0394 -1.5689 1.4783
| 37> H 2.9692 -3.0489 1.0926
| 38> C -2.3668 2.3616 0.1774
| 39> H -3.2143 3.0406 0.3457
| 40> H -2.4464 1.952 -0.8422
| 41> H -2.4514 1.5104 0.8712
| 42> C -2.5535 -2.2526 -0.964
| 43> H -2.7443 -1.3427 -0.3735
| 44> H -2.3494 -1.9274 -1.9967
| 45> H -3.4691 -2.8602 -0.9743
| 46> **                         ****END OF INPUT****
================================================================================

                       ****************************
                       * Single Point Calculation *
                       ****************************

---------------------------------
CARTESIAN COORDINATES (ANGSTROEM)
---------------------------------
  C      0.307200    0.760100   -1.724600
  C      0.216600   -0.587600   -1.795800
  C     -0.072000   -0.006200    0.407700
  H      0.477400    1.511700   -2.493200
  H      0.294400   -1.270600   -2.639600
  N      0.129600    1.084200   -0.383700
  N     -0.014000   -1.024100   -0.496000
  C      0.157300    2.424800    0.118100
  C     -1.056600    3.073900    0.381200
  C      1.398500    3.039900    0.330600
  C     -1.006100    4.385900    0.859100
  C      1.406300    4.353800    0.806500
  C      0.214000    5.023200    1.066300
  H     -1.941500    4.912800    1.070200
  H      2.364500    4.852700    0.979800
  H      0.235900    6.051000    1.439200
  C     -0.169700   -2.402300   -0.141000
  C     -1.399600   -3.028500   -0.384900
  C      0.913800   -3.076600    0.438100
  C     -1.525000   -4.379800   -0.051100
  C      0.746900   -4.425600    0.761600
  C     -0.459900   -5.074200    0.515200
  H     -2.477300   -4.887900   -0.230400
  H      1.579000   -4.970200    1.217900
  H     -0.574200   -6.130500    0.773900
  C      2.679200    2.288800    0.079000
  H      2.694400    1.348200    0.652200
  H      2.793300    2.018500   -0.982700
  H      3.550800    2.890300    0.372000
  C      2.202700   -2.353700    0.722900
  H      2.592000   -1.854500   -0.178700
  H      2.039400   -1.568900    1.478300
  H      2.969200   -3.048900    1.092600
  C     -2.366800    2.361600    0.177400
  H     -3.214300    3.040600    0.345700
  H     -2.446400    1.952000   -0.842200
  H     -2.451400    1.510400    0.871200
  C     -2.553500   -2.252600   -0.964000
  H     -2.744300   -1.342700   -0.373500
  H     -2.349400   -1.927400   -1.996700
  H     -3.469100   -2.860200   -0.974300

----------------------------
CARTESIAN COORDINATES (A.U.)
----------------------------
  NO LB      ZA    FRAG     MASS         X           Y           Z
   0 C     6.0000    0    12.011    0.580524    1.436381   -3.259022
   1 C     6.0000    0    12.011    0.409315   -1.110403   -3.393570
   2 C     6.0000    0    12.011   -0.136060   -0.011716    0.770441
   3 H     1.0000    0     1.008    0.902155    2.856699   -4.711465
   4 H     1.0000    0     1.008    0.556335   -2.401086   -4.988121
   5 N     7.0000    0    14.007    0.244909    2.048841   -0.725088
   6 N     7.0000    0    14.007   -0.026456   -1.935269   -0.937304
   7 C     6.0000    0    12.011    0.297254    4.582208    0.223177
   8 C     6.0000    0    12.011   -1.996685    5.808829    0.720364
   9 C     6.0000    0    12.011    2.642782    5.744578    0.624743
  10 C     6.0000    0    12.011   -1.901253    8.288150    1.623464
  11 C     6.0000    0    12.011    2.657522    8.227490    1.524064
  12 C     6.0000    0    12.011    0.404401    9.492472    2.015015
  13 H     1.0000    0     1.008   -3.668903    9.283847    2.022385
  14 H     1.0000    0     1.008    4.468257    9.170274    1.851554
  15 H     1.0000    0     1.008    0.445786   11.434733    2.719694
  16 C     6.0000    0    12.011   -0.320687   -4.539689   -0.266451
  17 C     6.0000    0    12.011   -2.644861   -5.723036   -0.727356
  18 C     6.0000    0    12.011    1.726832   -5.813931    0.827889
  19 C     6.0000    0    12.011   -2.881832   -8.276623   -0.096565
  20 C     6.0000    0    12.011    1.411436   -8.363172    1.439215
  21 C     6.0000    0    12.011   -0.869085   -9.588848    0.973587
  22 H     1.0000    0     1.008   -4.681419   -9.236792   -0.435393
  23 H     1.0000    0     1.008    2.983878   -9.392317    2.301497
  24 H     1.0000    0     1.008   -1.085081  -11.584966    1.462459
  25 C     6.0000    0    12.011    5.062954    4.325205    0.149288
  26 H     1.0000    0     1.008    5.091678    2.547729    1.232479
  27 H     1.0000    0     1.008    5.278572    3.814412   -1.857034
  28 H     1.0000    0     1.008    6.710040    5.461875    0.702978
  29 C     6.0000    0    12.011    4.162500   -4.447848    1.366083
  30 H     1.0000    0     1.008    4.898170   -3.504497   -0.337694
  31 H     1.0000    0     1.008    3.853907   -2.964791    2.793582
  32 H     1.0000    0     1.008    5.610975   -5.761586    2.064715
  33 C     6.0000    0    12.011   -4.472604    4.462777    0.335237
  34 H     1.0000    0     1.008   -6.074147    5.745901    0.653278
  35 H     1.0000    0     1.008   -4.623026    3.688745   -1.591527
  36 H     1.0000    0     1.008   -4.632475    2.854242    1.646329
  37 C     6.0000    0    12.011   -4.825416   -4.256797   -1.821696
  38 H     1.0000    0     1.008   -5.185975   -2.537335   -0.705813
  39 H     1.0000    0     1.008   -4.439723   -3.642258   -3.773216
  40 H     1.0000    0     1.008   -6.555649   -5.404995   -1.841160

--------------------------------
INTERNAL COORDINATES (ANGSTROEM)
--------------------------------
 C      0   0   0     0.000000000000     0.00000000     0.00000000
 C      1   0   0     1.352617126167     0.00000000     0.00000000
 C      2   1   0     2.297113007669    72.88692090     0.00000000
 H      1   2   3     1.088400918779   131.40262477   180.15435877
 H      2   1   3     1.088365875981   131.39812146   180.13153005
 N      3   2   1     1.362324733681    68.08342427     0.00000000
 N      3   2   1     1.362408932736    33.82652400   179.86956700
 C      6   3   2     1.431704889284   123.27927099   180.11028778
 C      8   6   3     1.401465529366   118.86357718   280.33941072
 C      8   6   3     1.401456991848   118.76713042   100.23387825
 C      9   8   6     1.397241088717   117.89203760   180.55654312
 C     10   8   6     1.397452990265   117.98488890   179.29633521
 C     12  10   8     1.391823153278   120.72925402     0.33283238
 H     11   9   8     1.094148061279   119.16160248   179.92153985
 H     12  10   8     1.094112124053   119.17979245   179.96952853
 H     13  12  10     1.093575264899   119.90205998   179.95138514
 C      7   3   2     1.431678291377   123.37522493   179.77434267
 C     17   7   3     1.401523335517   118.84192323   101.55440908
 C     17   7   3     1.401431250544   118.78728732   281.55575274
 C     18  17   7     1.397554753847   117.98155230   178.99566280
 C     19  17   7     1.397250464305   117.89524627   180.79748008
 C     20  18  17     1.391878248986   120.72359557     0.46267022
 H     20  18  17     1.094161500876   119.20655535   179.83110856
 H     21  19  17     1.094161441470   119.09497668   180.21619188
 H     22  20  18     1.093508056669   119.88012524   179.80917125
 C     10   8   6     1.505870598690   120.59529003   358.00214772
 H     26  10   8     1.101597766882   110.52905501   304.97863130
 H     26  10   8     1.101493436204   111.81055292    63.92955199
 H     26  10   8     1.098789247308   110.91785576   184.55901238
 C     19  17   7     1.504977959972   120.61162543     1.96928676
 H     30  19  17     1.101652254570   111.43388408   305.84073633
 H     30  19  17     1.101456803511   110.18536550    64.34222751
 H     30  19  17     1.098864586744   110.92636300   184.97513858
 C      9   8   6     1.505167688332   120.62163170     1.72189136
 H     34   9   8     1.098918623011   110.98821308   184.93125561
 H     34   9   8     1.101677121483   111.35556889   305.80255756
 H     34   9   8     1.101388687067   110.32266877    64.29140115
 C     18  17   7     1.506274486938   120.59775993   357.79993974
 H     38  18  17     1.101368648546   110.61861637   307.42963755
 H     38  18  17     1.101762742155   111.74580087    66.41356867
 H     38  18  17     1.098911829948   110.92014186   186.96769345

---------------------------
INTERNAL COORDINATES (A.U.)
---------------------------
 C      0   0   0     0.000000000000     0.00000000     0.00000000
 C      1   0   0     2.556075932507     0.00000000     0.00000000
 C      2   1   0     4.340914483162    72.88692090     0.00000000
 H      1   2   3     2.056779660401   131.40262477   180.15435877
 H      2   1   3     2.056713439109   131.39812146   180.13153005
 N      3   2   1     2.574420652125    68.08342427     0.00000000
 N      3   2   1     2.574579765280    33.82652400   179.86956700
 C      6   3   2     2.705530145343   123.27927099   180.11028778
 C      8   6   3     2.648386036632   118.86357718   280.33941072
 C      8   6   3     2.648369903062   118.76713042   100.23387825
 C      9   8   6     2.640403000738   117.89203760   180.55654312
 C     10   8   6     2.640803436630   117.98488890   179.29633521
 C     12  10   8     2.630164586546   120.72925402     0.33283238
 H     11   9   8     2.067640185778   119.16160248   179.92153985
 H     12  10   8     2.067572274263   119.17979245   179.96952853
 H     13  12  10     2.066557757490   119.90205998   179.95138514
 C      7   3   2     2.705479882583   123.37522493   179.77434267
 C     17   7   3     2.648495274428   118.84192323   101.55440908
 C     17   7   3     2.648321259046   118.78728732   281.55575274
 C     18  17   7     2.640995741930   117.98155230   178.99566280
 C     19  17   7     2.640420718030   117.89524627   180.79748008
 C     20  18  17     2.630268702345   120.72359557     0.46267022
 H     20  18  17     2.067665582937   119.20655535   179.83110856
 H     21  19  17     2.067665470675   119.09497668   180.21619188
 H     22  20  18     2.066430752341   119.88012524   179.80917125
 C     10   8   6     2.845683024649   120.59529003   358.00214772
 H     26  10   8     2.081718089147   110.52905501   304.97863130
 H     26  10   8     2.081520932737   111.81055292    63.92955199
 H     26  10   8     2.076410756310   110.91785576   184.55901238
 C     19  17   7     2.843996181934   120.61162543     1.96928676
 H     30  19  17     2.081821055955   111.43388408   305.84073633
 H     30  19  17     2.081451706980   110.18536550    64.34222751
 H     30  19  17     2.076553127211   110.92636300   184.97513858
 C      9   8   6     2.844354716576   120.62163170     1.72189136
 H     34   9   8     2.076655240956   110.98821308   184.93125561
 H     34   9   8     2.081868047610   111.35556889   305.80255756
 H     34   9   8     2.081322985556   110.32266877    64.29140115
 C     18  17   7     2.846446262825   120.59775993   357.79993974
 H     38  18  17     2.081285118239   110.61861637   307.42963755
 H     38  18  17     2.082029847230   111.74580087    66.41356867
 H     38  18  17     2.076642403928   110.92014186   186.96769345

---------------------
BASIS SET INFORMATION
---------------------
There are 3 groups of distinct atoms

 Group   1 Type C   : 7s4p1d contracted to 3s2p1d pattern {511/31/1}
 Group   2 Type H   : 4s1p contracted to 2s1p pattern {31/1}
 Group   3 Type N   : 7s4p1d contracted to 3s2p1d pattern {511/31/1}

Atom   0C    basis set group =>   1
Atom   1C    basis set group =>   1
Atom   2C    basis set group =>   1
Atom   3H    basis set group =>   2
Atom   4H    basis set group =>   2
Atom   5N    basis set group =>   3
Atom   6N    basis set group =>   3
Atom   7C    basis set group =>   1
Atom   8C    basis set group =>   1
Atom   9C    basis set group =>   1
Atom  10C    basis set group =>   1
Atom  11C    basis set group =>   1
Atom  12C    basis set group =>   1
Atom  13H    basis set group =>   2
Atom  14H    basis set group =>   2
Atom  15H    basis set group =>   2
Atom  16C    basis set group =>   1
Atom  17C    basis set group =>   1
Atom  18C    basis set group =>   1
Atom  19C    basis set group =>   1
Atom  20C    basis set group =>   1
Atom  21C    basis set group =>   1
Atom  22H    basis set group =>   2
Atom  23H    basis set group =>   2
Atom  24H    basis set group =>   2
Atom  25C    basis set group =>   1
Atom  26H    basis set group =>   2
Atom  27H    basis set group =>   2
Atom  28H    basis set group =>   2
Atom  29C    basis set group =>   1
Atom  30H    basis set group =>   2
Atom  31H    basis set group =>   2
Atom  32H    basis set group =>   2
Atom  33C    basis set group =>   1
Atom  34H    basis set group =>   2
Atom  35H    basis set group =>   2
Atom  36H    basis set group =>   2
Atom  37C    basis set group =>   1
Atom  38H    basis set group =>   2
Atom  39H    basis set group =>   2
Atom  40H    basis set group =>   2
---------------------------------
AUXILIARY/J BASIS SET INFORMATION
---------------------------------
There are 3 groups of distinct atoms

 Group   1 Type C   : 12s5p4d2f1g contracted to 6s4p3d1f1g pattern {711111/2111/211/2/1}
 Group   2 Type H   : 5s2p1d contracted to 3s1p1d pattern {311/2/1}
 Group   3 Type N   : 12s5p4d2f1g contracted to 6s4p3d1f1g pattern {711111/2111/211/2/1}

Atom   0C    basis set group =>   1
Atom   1C    basis set group =>   1
Atom   2C    basis set group =>   1
Atom   3H    basis set group =>   2
Atom   4H    basis set group =>   2
Atom   5N    basis set group =>   3
Atom   6N    basis set group =>   3
Atom   7C    basis set group =>   1
Atom   8C    basis set group =>   1
Atom   9C    basis set group =>   1
Atom  10C    basis set group =>   1
Atom  11C    basis set group =>   1
Atom  12C    basis set group =>   1
Atom  13H    basis set group =>   2
Atom  14H    basis set group =>   2
Atom  15H    basis set group =>   2
Atom  16C    basis set group =>   1
Atom  17C    basis set group =>   1
Atom  18C    basis set group =>   1
Atom  19C    basis set group =>   1
Atom  20C    basis set group =>   1
Atom  21C    basis set group =>   1
Atom  22H    basis set group =>   2
Atom  23H    basis set group =>   2
Atom  24H    basis set group =>   2
Atom  25C    basis set group =>   1
Atom  26H    basis set group =>   2
Atom  27H    basis set group =>   2
Atom  28H    basis set group =>   2
Atom  29C    basis set group =>   1
Atom  30H    basis set group =>   2
Atom  31H    basis set group =>   2
Atom  32H    basis set group =>   2
Atom  33C    basis set group =>   1
Atom  34H    basis set group =>   2
Atom  35H    basis set group =>   2
Atom  36H    basis set group =>   2
Atom  37C    basis set group =>   1
Atom  38H    basis set group =>   2
Atom  39H    basis set group =>   2
Atom  40H    basis set group =>   2


           ************************************************************
           *        Program running with 4 parallel MPI-processes     *
           *              working on a common directory               *
           ************************************************************
------------------------------------------------------------------------------
                           ORCA GTO INTEGRAL CALCULATION
                           -- RI-GTO INTEGRALS CHOSEN --
------------------------------------------------------------------------------
------------------------------------------------------------------------------
                   ___                                                        
                  /   \      - P O W E R E D   B Y -                         
                 /     \                                                     
                 |  |  |   _    _      __       _____    __    __             
                 |  |  |  | |  | |    /  \     |  _  \  |  |  /  |          
                  \  \/   | |  | |   /    \    | | | |  |  | /  /          
                 / \  \   | |__| |  /  /\  \   | |_| |  |  |/  /          
                |  |  |   |  __  | /  /__\  \  |    /   |      \           
                |  |  |   | |  | | |   __   |  |    \   |  |\   \          
                \     /   | |  | | |  |  |  |  | |\  \  |  | \   \       
                 \___/    |_|  |_| |__|  |__|  |_| \__\ |__|  \__/        
                                                                              
                      - O R C A' S   B I G   F R I E N D -                    
                                      &                                       
                       - I N T E G R A L  F E E D E R -                       
                                                                              
 v1 FN, 2020, v2 2021                                                         
------------------------------------------------------------------------------


Reading SHARK input file DFT_water_outs/8-gasSP.SHARKINP.tmp ... ok
----------------------
SHARK INTEGRAL PACKAGE
----------------------

Number of atoms                             ...     41
Number of basis functions                   ...    394
Number of shells                            ...    186
Maximum angular momentum                    ...      2
Integral batch strategy                     ... SHARK/LIBINT Hybrid
RI-J (if used) integral strategy            ... SPLIT-RIJ (Revised 2003 algorithm where possible)
Printlevel                                  ...      1
Contraction scheme used                     ... SEGMENTED contraction
Coulomb Range Separation                    ... NOT USED
Exchange Range Separation                   ... Long Range
   Mu parameter                             ...  0.300000
   Scaling (regular/separated)              ...  0.157706  0.842294
Finite Nucleus Model                        ... NOT USED
Auxiliary Coulomb fitting basis             ... AVAILABLE
   # of basis functions in Aux-J            ...   1249
   # of shells in Aux-J                     ...    415
   Maximum angular momentum in Aux-J        ...      4
Auxiliary J/K fitting basis                 ... NOT available
Auxiliary Correlation fitting basis         ... NOT available
Auxiliary 'external' fitting basis          ... NOT available
Integral threshold                          ...     1.000000e-10
Primitive cut-off                           ...     1.000000e-11
Primitive pair pre-selection threshold      ...     1.000000e-11

Calculating pre-screening integrals         ... done (  0.0 sec) Dimension = 186
Organizing shell pair data                  ... done (  0.1 sec)
Shell pair information
Total number of shell pairs                 ...     17391
Shell pairs after pre-screening             ...     12938
Total number of primitive shell pairs       ...     62461
Primitive shell pairs kept                  ...     29542
          la=0 lb=0:   4104 shell pairs
          la=1 lb=0:   4822 shell pairs
          la=1 lb=1:   1469 shell pairs
          la=2 lb=0:   1505 shell pairs
          la=2 lb=1:    888 shell pairs
          la=2 lb=2:    150 shell pairs

Calculating one electron integrals          ... done (  0.0 sec)
Calculating RI/J V-Matrix + Cholesky decomp.... done (  0.1 sec)
Calculating Nuclear repulsion               ... done (  0.0 sec) ENN=   1592.972855131569 Eh

SHARK setup successfully completed in   0.5 seconds

Maximum memory used throughout the entire GTOINT-calculation: 26.6 MB


           ************************************************************
           *        Program running with 4 parallel MPI-processes     *
           *              working on a common directory               *
           ************************************************************
-------------------------------------------------------------------------------
                                 ORCA SCF
-------------------------------------------------------------------------------

------------
SCF SETTINGS
------------
Hamiltonian:
 Density Functional     Method          .... DFT(GTOs)
 Exchange Functional    Exchange        .... WB97X
 Correlation Functional Correlation     .... WB97X
 Gradients option       PostSCFGGA      .... off
 Hybrid DFT is turned on
   Fraction HF Exchange ScalHFX         ....  0.157706
   Scaling of DF-GGA-X  ScalDFX         ....  0.000000
   Scaling of DF-GGA-C  ScalDFC         ....  1.000000
   Scaling of DF-LDA-C  ScalLDAC        ....  1.000000
   Perturbative correction              ....  0.000000
   Density functional embedding theory  .... OFF
 Long-range corrected/Screened/Range-Separated Hybrid DFT is turned on
   Amount of maximum screened exact exchange              ....  0.842294
   Range separation parameter mu (erf(mu*r12)/r12)        ....  0.300000
 RI-approximation to the Coulomb term is turned on
   Number of AuxJ basis functions       .... 1249
   RIJ-COSX (HFX calculated with COS-X)).... on


General Settings:
 Integral files         IntName         .... DFT_water_outs/8-gasSP
 Hartree-Fock type      HFTyp           .... RHF
 Total Charge           Charge          ....    0
 Multiplicity           Mult            ....    1
 Number of Electrons    NEL             ....  148
 Basis Dimension        Dim             ....  394
 Nuclear Repulsion      ENuc            ....   1592.9728551316 Eh

Convergence Acceleration:
 DIIS                   CNVDIIS         .... on
   Start iteration      DIISMaxIt       ....    12
   Startup error        DIISStart       ....  0.200000
   # of expansion vecs  DIISMaxEq       ....     5
   Bias factor          DIISBfac        ....   1.050
   Max. coefficient     DIISMaxC        ....  10.000
 Trust-Rad. Augm. Hess. CNVTRAH         .... auto
   Auto Start mean grad. ratio tolernc. ....  1.125000
   Auto Start start iteration           ....    20
   Auto Start num. interpolation iter.  ....    10
   Max. Number of Micro iterations      ....    16
   Max. Number of Macro iterations      .... Maxiter - #DIIS iter
   Number of Davidson start vectors     ....     2
   Converg. threshold I  (grad. norm)   ....   5.000e-05
   Converg. threshold II (energy diff.) ....   1.000e-06
   Grad. Scal. Fac. for Micro threshold ....   0.100
   Minimum threshold for Micro iter.    ....   0.010
   NR start threshold (gradient norm)   ....   0.001
   Initial trust radius                 ....   0.400
   Minimum AH scaling param. (alpha)    ....   1.000
   Maximum AH scaling param. (alpha)    .... 1000.000
   Orbital update algorithm             .... Taylor
   White noise on init. David. guess    .... on
   Maximum white noise                  ....   0.010
   Quad. conv. algorithm                .... NR
 SOSCF                  CNVSOSCF        .... on
   Start iteration      SOSCFMaxIt      ....   150
   Startup grad/error   SOSCFStart      ....  0.003300
 Level Shifting         CNVShift        .... on
   Level shift para.    LevelShift      ....    0.2500
   Turn off err/grad.   ShiftErr        ....    0.0010
 Zerner damping         CNVZerner       .... off
 Static damping         CNVDamp         .... on
   Fraction old density DampFac         ....    0.7000
   Max. Damping (<1)    DampMax         ....    0.9800
   Min. Damping (>=0)   DampMin         ....    0.0000
   Turn off err/grad.   DampErr         ....    0.1000
 Fernandez-Rico         CNVRico         .... off

SCF Procedure:
 Maximum # iterations   MaxIter         ....   125
 SCF integral mode      SCFMode         .... Direct
   Integral package                     .... SHARK and LIBINT hybrid scheme
 Reset frequency        DirectResetFreq ....    20
 Integral Threshold     Thresh          ....  1.000e-10 Eh
 Primitive CutOff       TCut            ....  1.000e-11 Eh

Convergence Tolerance:
 Convergence Check Mode ConvCheckMode   .... Total+1el-Energy
 Convergence forced     ConvForced      .... 0
 Energy Change          TolE            ....  1.000e-06 Eh
 1-El. energy change                    ....  1.000e-03 Eh
 Orbital Gradient       TolG            ....  5.000e-05
 Orbital Rotation angle TolX            ....  5.000e-05
 DIIS Error             TolErr          ....  1.000e-06


Diagonalization of the overlap matrix:
Smallest eigenvalue                        ... 2.034e-04
Time for diagonalization                   ...    0.027 sec
Threshold for overlap eigenvalues          ... 1.000e-08
Number of eigenvalues below threshold      ... 0
Time for construction of square roots      ...    0.012 sec
Total time needed                          ...    0.040 sec

Time for model grid setup =    0.419 sec

------------------------------
INITIAL GUESS: MODEL POTENTIAL
------------------------------
Loading Hartree-Fock densities                     ... done
Calculating cut-offs                               ... done
Initializing the effective Hamiltonian             ... done
Setting up the integral package (SHARK)            ... done
Starting the Coulomb interaction                   ... done (   0.4 sec)
Reading the grid                                   ... done
Mapping shells                                     ... done
Starting the XC term evaluation                    ... done (   0.3 sec)
  promolecular density results
     # of electrons  =    147.989431055
     EX              =   -116.175171019
     EC              =     -4.930932456
     EX+EC           =   -121.106103474
Transforming the Hamiltonian                       ... done (   0.0 sec)
Diagonalizing the Hamiltonian                      ... done (   0.0 sec)
Back transforming the eigenvectors                 ... done (   0.0 sec)
Now organizing SCF variables                       ... done
                      ------------------
                      INITIAL GUESS DONE (   1.1 sec)
                      ------------------
-------------------
DFT GRID GENERATION
-------------------

General Integration Accuracy     IntAcc      ... 4.388
Radial Grid Type                 RadialGrid  ... OptM3 with GC (2021)
Angular Grid (max. ang.)         AngularGrid ... 4 (Lebedev-302)
Angular grid pruning method      GridPruning ... 4 (adaptive)
Weight generation scheme         WeightScheme... Becke
Basis function cutoff            BFCut       ... 1.0000e-10
Integration weight cutoff        WCut        ... 1.0000e-14
Angular grids for H and He will be reduced by one unit
Partially contracted basis set               ... off
Rotationally invariant grid construction     ... off

Total number of grid points                  ...   188762
Total number of batches                      ...     2972
Average number of points per batch           ...       63
Average number of grid points per atom       ...     4604
Time for grid setup =    1.778 sec

--------------------
COSX GRID GENERATION
--------------------

GRIDX 1
-------
General Integration Accuracy     IntAcc      ... 3.816
Radial Grid Type                 RadialGrid  ... OptM3 with GC (2021)
Angular Grid (max. ang.)         AngularGrid ... 1 (Lebedev-50)
Angular grid pruning method      GridPruning ... 4 (adaptive)
Weight generation scheme         WeightScheme... Becke
Basis function cutoff            BFCut       ... 1.0000e-10
Integration weight cutoff        WCut        ... 1.0000e-14
Angular grids for H and He will be reduced by one unit
Partially contracted basis set               ... on
Rotationally invariant grid construction     ... off

Total number of grid points                  ...    24067
Total number of batches                      ...      394
Average number of points per batch           ...       61
Average number of grid points per atom       ...      587
UseSFitting                                  ... on

GRIDX 2
-------
General Integration Accuracy     IntAcc      ... 4.020
Radial Grid Type                 RadialGrid  ... OptM3 with GC (2021)
Angular Grid (max. ang.)         AngularGrid ... 2 (Lebedev-110)
Angular grid pruning method      GridPruning ... 4 (adaptive)
Weight generation scheme         WeightScheme... Becke
Basis function cutoff            BFCut       ... 1.0000e-10
Integration weight cutoff        WCut        ... 1.0000e-14
Angular grids for H and He will be reduced by one unit
Partially contracted basis set               ... on
Rotationally invariant grid construction     ... off

Total number of grid points                  ...    51436
Total number of batches                      ...      822
Average number of points per batch           ...       62
Average number of grid points per atom       ...     1255
UseSFitting                                  ... on

GRIDX 3
-------
General Integration Accuracy     IntAcc      ... 4.338
Radial Grid Type                 RadialGrid  ... OptM3 with GC (2021)
Angular Grid (max. ang.)         AngularGrid ... 3 (Lebedev-194)
Angular grid pruning method      GridPruning ... 4 (adaptive)
Weight generation scheme         WeightScheme... Becke
Basis function cutoff            BFCut       ... 1.0000e-10
Integration weight cutoff        WCut        ... 1.0000e-14
Angular grids for H and He will be reduced by one unit
Partially contracted basis set               ... on
Rotationally invariant grid construction     ... off

Total number of grid points                  ...   112084
Total number of batches                      ...     1775
Average number of points per batch           ...       63
Average number of grid points per atom       ...     2734
UseSFitting                                  ... on

Time for X-Grid setup             =    2.155 sec

--------------
SCF ITERATIONS
--------------
ITER       Energy         Delta-E        Max-DP      RMS-DP      [F,P]     Damp
               ***  Starting incremental Fock matrix formation  ***
  0   -844.3324880280   0.000000000000 0.06638345  0.00136566  0.1492427 0.7000
  1   -844.4805113851  -0.148023357085 0.05729539  0.00102489  0.0927101 0.7000
                               ***Turning on DIIS***
  2   -844.5641726103  -0.083661225196 0.13494643  0.00221037  0.0505614 0.0000
  3   -844.7072235495  -0.143050939290 0.03069304  0.00049126  0.0307549 0.0000
  4   -844.7227880051  -0.015564455551 0.00468273  0.00013000  0.0041912 0.0000
                      *** Initiating the SOSCF procedure ***
                           *** Shutting down DIIS ***
                      *** Re-Reading the Fockian *** 
                      *** Removing any level shift *** 
ITER      Energy       Delta-E        Grad      Rot      Max-DP    RMS-DP
  5   -844.72322379  -0.0004357842  0.001004  0.001004  0.003517  0.000051
               *** Restarting incremental Fock matrix formation ***
  6   -844.72320796   0.0000158266  0.000665  0.001491  0.002114  0.000031
  7   -844.72322026  -0.0000123001  0.000262  0.001231  0.001457  0.000022
  8   -844.72322325  -0.0000029913  0.000112  0.000135  0.000459  0.000007
  9   -844.72322376  -0.0000005030  0.000036  0.000056  0.000215  0.000003
                 **** Energy Check signals convergence ****
              ***Rediagonalizing the Fockian in SOSCF/NRSCF***

               *****************************************************
               *                     SUCCESS                       *
               *           SCF CONVERGED AFTER  10 CYCLES          *
               *****************************************************

Old exchange energy                            =    -38.151202455 Eh
New exchange energy                            =    -38.151275170 Eh
Exchange energy change after final integration =     -0.000072715 Eh
Total energy after final integration           =   -844.723296629 Eh
Final COS-X integration done in                =    44.601 sec

----------------
TOTAL SCF ENERGY
----------------

Total Energy       :         -844.72329663 Eh          -22986.08949 eV

Components:
Nuclear Repulsion  :         1592.97285513 Eh           43346.99511 eV
Electronic Energy  :        -2437.69615176 Eh          -66333.08460 eV
One Electron Energy:        -4304.71983808 Eh         -117137.38194 eV
Two Electron Energy:         1867.02368632 Eh           50804.29735 eV
Max COSX asymmetry :            0.00000291 Eh               0.00008 eV

Virial components:
Potential Energy   :        -1679.54596708 Eh          -45702.76925 eV
Kinetic Energy     :          834.82267045 Eh           22716.67976 eV
Virial Ratio       :            2.01185956


DFT components:
N(Alpha)           :       73.999876249902 electrons
N(Beta)            :       73.999876249902 electrons
N(Total)           :      147.999752499803 electrons
E(XC)              :      -85.856863031373 Eh       
DFET-embed. en.    :        0.000000000000 Eh       

---------------
SCF CONVERGENCE
---------------

  Last Energy change         ...   -1.5652e-07  Tolerance :   1.0000e-06
  Last MAX-Density change    ...    3.5527e-15  Tolerance :   1.0000e-05
  Last RMS-Density change    ...    3.8648e-17  Tolerance :   1.0000e-06
  Last Orbital Gradient      ...    1.6390e-05  Tolerance :   5.0000e-05
  Last Orbital Rotation      ...    3.5526e-05  Tolerance :   5.0000e-05

             **** THE GBW FILE WAS UPDATED (DFT_water_outs/8-gasSP.gbw) ****
             **** DENSITY DFT_water_outs/8-gasSP.scfp WAS UPDATED ****
             **** ENERGY FILE WAS UPDATED (DFT_water_outs/8-gasSP.en.tmp) ****
             **** THE GBW FILE WAS UPDATED (DFT_water_outs/8-gasSP.gbw) ****
             **** DENSITY DFT_water_outs/8-gasSP.scfp WAS UPDATED ****
----------------
ORBITAL ENERGIES
----------------

  NO   OCC          E(Eh)            E(eV) 
   0   2.0000     -14.453039      -393.2872 
   1   2.0000     -14.453026      -393.2868 
   2   2.0000     -10.305668      -280.4315 
   3   2.0000     -10.305605      -280.4298 
   4   2.0000     -10.304376      -280.3963 
   5   2.0000     -10.303773      -280.3799 
   6   2.0000     -10.285010      -279.8694 
   7   2.0000     -10.284916      -279.8668 
   8   2.0000     -10.283924      -279.8398 
   9   2.0000     -10.283754      -279.8352 
  10   2.0000     -10.277393      -279.6621 
  11   2.0000     -10.275563      -279.6123 
  12   2.0000     -10.275555      -279.6121 
  13   2.0000     -10.272019      -279.5158 
  14   2.0000     -10.271874      -279.5119 
  15   2.0000     -10.271806      -279.5100 
  16   2.0000     -10.271773      -279.5091 
  17   2.0000     -10.271235      -279.4945 
  18   2.0000     -10.271203      -279.4936 
  19   2.0000     -10.267162      -279.3837 
  20   2.0000     -10.266759      -279.3727 
  21   2.0000      -1.154464       -31.4146 
  22   2.0000      -1.055210       -28.7137 
  23   2.0000      -0.993951       -27.0468 
  24   2.0000      -0.972994       -26.4765 
  25   2.0000      -0.910710       -24.7817 
  26   2.0000      -0.910539       -24.7770 
  27   2.0000      -0.904130       -24.6026 
  28   2.0000      -0.870811       -23.6960 
  29   2.0000      -0.867405       -23.6033 
  30   2.0000      -0.827434       -22.5156 
  31   2.0000      -0.809491       -22.0274 
  32   2.0000      -0.799803       -21.7637 
  33   2.0000      -0.799089       -21.7443 
  34   2.0000      -0.758656       -20.6441 
  35   2.0000      -0.735059       -20.0020 
  36   2.0000      -0.697031       -18.9672 
  37   2.0000      -0.694967       -18.9110 
  38   2.0000      -0.692141       -18.8341 
  39   2.0000      -0.676810       -18.4169 
  40   2.0000      -0.649550       -17.6751 
  41   2.0000      -0.615685       -16.7536 
  42   2.0000      -0.609122       -16.5750 
  43   2.0000      -0.596038       -16.2190 
  44   2.0000      -0.591746       -16.1022 
  45   2.0000      -0.560921       -15.2634 
  46   2.0000      -0.556205       -15.1351 
  47   2.0000      -0.551382       -15.0039 
  48   2.0000      -0.534189       -14.5360 
  49   2.0000      -0.532987       -14.5033 
  50   2.0000      -0.529195       -14.4001 
  51   2.0000      -0.523548       -14.2465 
  52   2.0000      -0.522826       -14.2268 
  53   2.0000      -0.518966       -14.1218 
  54   2.0000      -0.518281       -14.1031 
  55   2.0000      -0.512349       -13.9417 
  56   2.0000      -0.512229       -13.9385 
  57   2.0000      -0.510540       -13.8925 
  58   2.0000      -0.507992       -13.8232 
  59   2.0000      -0.479304       -13.0425 
  60   2.0000      -0.477063       -12.9815 
  61   2.0000      -0.458527       -12.4772 
  62   2.0000      -0.456127       -12.4118 
  63   2.0000      -0.454236       -12.3604 
  64   2.0000      -0.450838       -12.2679 
  65   2.0000      -0.444616       -12.0986 
  66   2.0000      -0.443260       -12.0617 
  67   2.0000      -0.388619       -10.5749 
  68   2.0000      -0.341027        -9.2798 
  69   2.0000      -0.340357        -9.2616 
  70   2.0000      -0.334326        -9.0975 
  71   2.0000      -0.333068        -9.0633 
  72   2.0000      -0.327937        -8.9236 
  73   2.0000      -0.313204        -8.5227 
  74   0.0000       0.066582         1.8118 
  75   0.0000       0.071179         1.9369 
  76   0.0000       0.077462         2.1078 
  77   0.0000       0.078029         2.1233 
  78   0.0000       0.114153         3.1063 
  79   0.0000       0.118029         3.2117 
  80   0.0000       0.139618         3.7992 
  81   0.0000       0.157617         4.2890 
  82   0.0000       0.159233         4.3329 
  83   0.0000       0.170859         4.6493 
  84   0.0000       0.179824         4.8933 
  85   0.0000       0.181488         4.9385 
  86   0.0000       0.186714         5.0807 
  87   0.0000       0.197091         5.3631 
  88   0.0000       0.205374         5.5885 
  89   0.0000       0.208976         5.6865 
  90   0.0000       0.217839         5.9277 
  91   0.0000       0.231578         6.3016 
  92   0.0000       0.234832         6.3901 
  93   0.0000       0.241623         6.5749 
  94   0.0000       0.242472         6.5980 
  95   0.0000       0.244990         6.6665 
  96   0.0000       0.252991         6.8842 
  97   0.0000       0.253552         6.8995 
  98   0.0000       0.256280         6.9737 
  99   0.0000       0.258728         7.0404 
 100   0.0000       0.275523         7.4974 
 101   0.0000       0.286287         7.7903 
 102   0.0000       0.288331         7.8459 
 103   0.0000       0.305209         8.3052 
 104   0.0000       0.309398         8.4192 
 105   0.0000       0.314536         8.5590 
 106   0.0000       0.337016         9.1707 
 107   0.0000       0.337968         9.1966 
 108   0.0000       0.359729         9.7887 
 109   0.0000       0.366701         9.9785 
 110   0.0000       0.374253        10.1839 
 111   0.0000       0.399361        10.8672 
 112   0.0000       0.407158        11.0793 
 113   0.0000       0.408585        11.1182 
 114   0.0000       0.410251        11.1635 
 115   0.0000       0.431361        11.7379 
 116   0.0000       0.433212        11.7883 
 117   0.0000       0.436740        11.8843 
 118   0.0000       0.443871        12.0783 
 119   0.0000       0.444784        12.1032 
 120   0.0000       0.452013        12.2999 
 121   0.0000       0.464154        12.6303 
 122   0.0000       0.466144        12.6844 
 123   0.0000       0.490717        13.3531 
 124   0.0000       0.497381        13.5344 
 125   0.0000       0.500992        13.6327 
 126   0.0000       0.514554        14.0017 
 127   0.0000       0.515995        14.0409 
 128   0.0000       0.525198        14.2914 
 129   0.0000       0.527123        14.3438 
 130   0.0000       0.528153        14.3718 
 131   0.0000       0.537488        14.6258 
 132   0.0000       0.539126        14.6704 
 133   0.0000       0.550236        14.9727 
 134   0.0000       0.553220        15.0539 
 135   0.0000       0.554931        15.1004 
 136   0.0000       0.570308        15.5189 
 137   0.0000       0.578932        15.7535 
 138   0.0000       0.591109        16.0849 
 139   0.0000       0.593158        16.1407 
 140   0.0000       0.594369        16.1736 
 141   0.0000       0.600220        16.3328 
 142   0.0000       0.601149        16.3581 
 143   0.0000       0.606218        16.4960 
 144   0.0000       0.610517        16.6130 
 145   0.0000       0.641832        17.4651 
 146   0.0000       0.645494        17.5648 
 147   0.0000       0.651827        17.7371 
 148   0.0000       0.670458        18.2441 
 149   0.0000       0.675295        18.3757 
 150   0.0000       0.691745        18.8233 
 151   0.0000       0.692233        18.8366 
 152   0.0000       0.696027        18.9399 
 153   0.0000       0.706413        19.2225 
 154   0.0000       0.707310        19.2469 
 155   0.0000       0.716738        19.5034 
 156   0.0000       0.722467        19.6593 
 157   0.0000       0.728057        19.8114 
 158   0.0000       0.731342        19.9008 
 159   0.0000       0.746646        20.3173 
 160   0.0000       0.748256        20.3611 
 161   0.0000       0.748601        20.3705 
 162   0.0000       0.750204        20.4141 
 163   0.0000       0.753349        20.4997 
 164   0.0000       0.758153        20.6304 
 165   0.0000       0.763875        20.7861 
 166   0.0000       0.770005        20.9529 
 167   0.0000       0.770855        20.9760 
 168   0.0000       0.772084        21.0095 
 169   0.0000       0.780915        21.2498 
 170   0.0000       0.782298        21.2874 
 171   0.0000       0.792499        21.5650 
 172   0.0000       0.797396        21.6982 
 173   0.0000       0.797665        21.7056 
 174   0.0000       0.797823        21.7099 
 175   0.0000       0.800824        21.7915 
 176   0.0000       0.805307        21.9135 
 177   0.0000       0.815368        22.1873 
 178   0.0000       0.818348        22.2684 
 179   0.0000       0.822572        22.3833 
 180   0.0000       0.825394        22.4601 
 181   0.0000       0.825994        22.4764 
 182   0.0000       0.832742        22.6601 
 183   0.0000       0.847473        23.0609 
 184   0.0000       0.853283        23.2190 
 185   0.0000       0.862048        23.4575 
 186   0.0000       0.863849        23.5065 
 187   0.0000       0.875447        23.8221 
 188   0.0000       0.877469        23.8771 
 189   0.0000       0.883317        24.0363 
 190   0.0000       0.884133        24.0585 
 191   0.0000       0.902230        24.5509 
 192   0.0000       0.903249        24.5787 
 193   0.0000       0.907788        24.7022 
 194   0.0000       0.908221        24.7139 
 195   0.0000       0.925950        25.1964 
 196   0.0000       0.941397        25.6167 
 197   0.0000       0.945739        25.7349 
 198   0.0000       0.952588        25.9212 
 199   0.0000       0.953488        25.9457 
 200   0.0000       0.963115        26.2077 
 201   0.0000       0.972042        26.4506 
 202   0.0000       0.980400        26.6780 
 203   0.0000       1.021371        27.7929 
 204   0.0000       1.028981        28.0000 
 205   0.0000       1.034387        28.1471 
 206   0.0000       1.041383        28.3375 
 207   0.0000       1.073153        29.2020 
 208   0.0000       1.093560        29.7573 
 209   0.0000       1.131353        30.7857 
 210   0.0000       1.160446        31.5774 
 211   0.0000       1.164425        31.6856 
 212   0.0000       1.216422        33.1005 
 213   0.0000       1.246447        33.9176 
 214   0.0000       1.254614        34.1398 
 215   0.0000       1.256065        34.1793 
 216   0.0000       1.265284        34.4301 
 217   0.0000       1.277466        34.7616 
 218   0.0000       1.280708        34.8498 
 219   0.0000       1.285073        34.9686 
 220   0.0000       1.292344        35.1665 
 221   0.0000       1.317946        35.8631 
 222   0.0000       1.323415        36.0120 
 223   0.0000       1.337711        36.4010 
 224   0.0000       1.343086        36.5472 
 225   0.0000       1.349609        36.7247 
 226   0.0000       1.351093        36.7651 
 227   0.0000       1.356414        36.9099 
 228   0.0000       1.362815        37.0841 
 229   0.0000       1.365346        37.1529 
 230   0.0000       1.366834        37.1934 
 231   0.0000       1.398875        38.0653 
 232   0.0000       1.399859        38.0921 
 233   0.0000       1.453196        39.5435 
 234   0.0000       1.462477        39.7960 
 235   0.0000       1.473462        40.0949 
 236   0.0000       1.508103        41.0376 
 237   0.0000       1.536696        41.8156 
 238   0.0000       1.568072        42.6694 
 239   0.0000       1.600222        43.5442 
 240   0.0000       1.604388        43.6576 
 241   0.0000       1.619566        44.0706 
 242   0.0000       1.622917        44.1618 
 243   0.0000       1.631225        44.3879 
 244   0.0000       1.637171        44.5497 
 245   0.0000       1.648236        44.8508 
 246   0.0000       1.650050        44.9001 
 247   0.0000       1.659413        45.1549 
 248   0.0000       1.661370        45.2082 
 249   0.0000       1.672644        45.5150 
 250   0.0000       1.675508        45.5929 
 251   0.0000       1.693943        46.0945 
 252   0.0000       1.696146        46.1545 
 253   0.0000       1.729066        47.0503 
 254   0.0000       1.737402        47.2771 
 255   0.0000       1.761841        47.9421 
 256   0.0000       1.773773        48.2668 
 257   0.0000       1.775455        48.3126 
 258   0.0000       1.794063        48.8189 
 259   0.0000       1.808441        49.2102 
 260   0.0000       1.815304        49.3969 
 261   0.0000       1.817028        49.4438 
 262   0.0000       1.818464        49.4829 
 263   0.0000       1.819096        49.5001 
 264   0.0000       1.828247        49.7491 
 265   0.0000       1.849160        50.3182 
 266   0.0000       1.858327        50.5677 
 267   0.0000       1.864489        50.7353 
 268   0.0000       1.867887        50.8278 
 269   0.0000       1.870595        50.9015 
 270   0.0000       1.874985        51.0209 
 271   0.0000       1.883470        51.2518 
 272   0.0000       1.903918        51.8083 
 273   0.0000       1.904850        51.8336 
 274   0.0000       1.907413        51.9034 
 275   0.0000       1.918854        52.2147 
 276   0.0000       1.920115        52.2490 
 277   0.0000       1.920624        52.2628 
 278   0.0000       1.927927        52.4616 
 279   0.0000       1.932863        52.5959 
 280   0.0000       1.934035        52.6278 
 281   0.0000       1.938213        52.7415 
 282   0.0000       1.940294        52.7981 
 283   0.0000       1.957095        53.2553 
 284   0.0000       1.962463        53.4013 
 285   0.0000       1.991400        54.1888 
 286   0.0000       2.002035        54.4781 
 287   0.0000       2.007506        54.6270 
 288   0.0000       2.017531        54.8998 
 289   0.0000       2.019525        54.9541 
 290   0.0000       2.028732        55.2046 
 291   0.0000       2.037378        55.4399 
 292   0.0000       2.049812        55.7782 
 293   0.0000       2.051701        55.8296 
 294   0.0000       2.063964        56.1633 
 295   0.0000       2.064183        56.1693 
 296   0.0000       2.081702        56.6460 
 297   0.0000       2.086242        56.7695 
 298   0.0000       2.103558        57.2407 
 299   0.0000       2.110468        57.4287 
 300   0.0000       2.129763        57.9538 
 301   0.0000       2.139193        58.2104 
 302   0.0000       2.143928        58.3392 
 303   0.0000       2.152339        58.5681 
 304   0.0000       2.160291        58.7845 
 305   0.0000       2.165747        58.9330 
 306   0.0000       2.180022        59.3214 
 307   0.0000       2.182335        59.3844 
 308   0.0000       2.205677        60.0195 
 309   0.0000       2.209308        60.1183 
 310   0.0000       2.217440        60.3396 
 311   0.0000       2.218734        60.3748 
 312   0.0000       2.236022        60.8453 
 313   0.0000       2.244091        61.0648 
 314   0.0000       2.253492        61.3206 
 315   0.0000       2.259096        61.4731 
 316   0.0000       2.269657        61.7605 
 317   0.0000       2.318334        63.0851 
 318   0.0000       2.321955        63.1836 
 319   0.0000       2.342105        63.7319 
 320   0.0000       2.356789        64.1315 
 321   0.0000       2.358504        64.1781 
 322   0.0000       2.359712        64.2110 
 323   0.0000       2.370476        64.5039 
 324   0.0000       2.386354        64.9360 
 325   0.0000       2.395862        65.1947 
 326   0.0000       2.398609        65.2695 
 327   0.0000       2.403871        65.4127 
 328   0.0000       2.404960        65.4423 
 329   0.0000       2.414857        65.7116 
 330   0.0000       2.426367        66.0248 
 331   0.0000       2.445144        66.5357 
 332   0.0000       2.485254        67.6272 
 333   0.0000       2.518292        68.5262 
 334   0.0000       2.532251        68.9060 
 335   0.0000       2.540362        69.1268 
 336   0.0000       2.540849        69.1400 
 337   0.0000       2.543551        69.2136 
 338   0.0000       2.554839        69.5207 
 339   0.0000       2.557318        69.5882 
 340   0.0000       2.557994        69.6066 
 341   0.0000       2.571030        69.9613 
 342   0.0000       2.586407        70.3797 
 343   0.0000       2.616222        71.1910 
 344   0.0000       2.642551        71.9075 
 345   0.0000       2.646136        72.0050 
 346   0.0000       2.667674        72.5911 
 347   0.0000       2.670563        72.6697 
 348   0.0000       2.691159        73.2302 
 349   0.0000       2.694796        73.3291 
 350   0.0000       2.706953        73.6599 
 351   0.0000       2.710881        73.7668 
 352   0.0000       2.727948        74.2312 
 353   0.0000       2.733800        74.3905 
 354   0.0000       2.743145        74.6448 
 355   0.0000       2.768201        75.3266 
 356   0.0000       2.793622        76.0183 
 357   0.0000       2.804548        76.3156 
 358   0.0000       2.826514        76.9134 
 359   0.0000       2.838493        77.2393 
 360   0.0000       2.845605        77.4328 
 361   0.0000       2.862802        77.9008 
 362   0.0000       2.865535        77.9752 
 363   0.0000       2.867164        78.0195 
 364   0.0000       2.901017        78.9407 
 365   0.0000       2.947504        80.2057 
 366   0.0000       2.959585        80.5344 
 367   0.0000       2.966397        80.7198 
 368   0.0000       2.975416        80.9652 
 369   0.0000       3.004966        81.7693 
 370   0.0000       3.008580        81.8676 
 371   0.0000       3.047989        82.9400 
 372   0.0000       3.052906        83.0738 
 373   0.0000       3.053572        83.0919 
 374   0.0000       3.061601        83.3104 
 375   0.0000       3.063181        83.3534 
 376   0.0000       3.064517        83.3897 
 377   0.0000       3.079128        83.7873 
 378   0.0000       3.086437        83.9862 
 379   0.0000       3.089871        84.0797 
 380   0.0000       3.120207        84.9051 
 381   0.0000       3.143682        85.5439 
 382   0.0000       3.157448        85.9185 
 383   0.0000       3.172021        86.3151 
 384   0.0000       3.178578        86.4935 
 385   0.0000       3.197053        86.9962 
 386   0.0000       3.221714        87.6673 
 387   0.0000       3.365719        91.5859 
 388   0.0000       3.379373        91.9574 
 389   0.0000       3.418212        93.0143 
 390   0.0000       3.429255        93.3148 
 391   0.0000       3.613413        98.3260 
 392   0.0000       3.710543       100.9690 
 393   0.0000       3.725871       101.3861 

                    ********************************
                    * MULLIKEN POPULATION ANALYSIS *
                    ********************************

-----------------------
MULLIKEN ATOMIC CHARGES
-----------------------
   0 C :    0.049568
   1 C :    0.049575
   2 C :   -0.065830
   3 H :    0.041083
   4 H :    0.041020
   5 N :   -0.221703
   6 N :   -0.221969
   7 C :    0.064316
   8 C :   -0.085056
   9 C :   -0.092480
  10 C :   -0.071136
  11 C :   -0.071724
  12 C :    0.026294
  13 H :   -0.003309
  14 H :   -0.003825
  15 H :    0.010861
  16 C :    0.064847
  17 C :   -0.092835
  18 C :   -0.086410
  19 C :   -0.071771
  20 C :   -0.070475
  21 C :    0.025965
  22 H :   -0.003719
  23 H :   -0.003300
  24 H :    0.010946
  25 C :    0.086143
  26 H :    0.048705
  27 H :    0.036636
  28 H :    0.021827
  29 C :    0.082687
  30 H :    0.030781
  31 H :    0.066406
  32 H :    0.018231
  33 C :    0.081405
  34 H :    0.018755
  35 H :    0.031095
  36 H :    0.065648
  37 C :    0.085597
  38 H :    0.047159
  39 H :    0.037365
  40 H :    0.022628
Sum of atomic charges:   -0.0000000

--------------------------------
MULLIKEN REDUCED ORBITAL CHARGES
--------------------------------
  0 C s       :     3.145310  s :     3.145310
      pz      :     0.798360  p :     2.757918
      px      :     1.068067
      py      :     0.891491
      dz2     :     0.014409  d :     0.047203
      dxz     :     0.008060
      dyz     :     0.011826
      dx2y2   :     0.005074
      dxy     :     0.007835
  1 C s       :     3.145202  s :     3.145202
      pz      :     0.801437  p :     2.757989
      px      :     1.067989
      py      :     0.888563
      dz2     :     0.013381  d :     0.047233
      dxz     :     0.007462
      dyz     :     0.012880
      dx2y2   :     0.005288
      dxy     :     0.008223
  2 C s       :     3.619188  s :     3.619188
      pz      :     1.106840  p :     2.380432
      px      :     0.648671
      py      :     0.624920
      dz2     :     0.009062  d :     0.066210
      dxz     :     0.010086
      dyz     :     0.028164
      dx2y2   :     0.007220
      dxy     :     0.011678
  3 H s       :     0.935053  s :     0.935053
      pz      :     0.009228  p :     0.023863
      px      :     0.005591
      py      :     0.009045
  4 H s       :     0.935118  s :     0.935118
      pz      :     0.010686  p :     0.023862
      px      :     0.005301
      py      :     0.007875
  5 N s       :     3.362812  s :     3.362812
      pz      :     1.129615  p :     3.826566
      px      :     1.531222
      py      :     1.165729
      dz2     :     0.009086  d :     0.032326
      dxz     :     0.005229
      dyz     :     0.009064
      dx2y2   :     0.005375
      dxy     :     0.003572
  6 N s       :     3.363076  s :     3.363076
      pz      :     1.132263  p :     3.826552
      px      :     1.530441
      py      :     1.163848
      dz2     :     0.008967  d :     0.032341
      dxz     :     0.005316
      dyz     :     0.008893
      dx2y2   :     0.005465
      dxy     :     0.003699
  7 C s       :     3.059387  s :     3.059387
      pz      :     1.038860  p :     2.822224
      px      :     0.943691
      py      :     0.839673
      dz2     :     0.004409  d :     0.054073
      dxz     :     0.008108
      dyz     :     0.008185
      dx2y2   :     0.017123
      dxy     :     0.016249
  8 C s       :     3.076061  s :     3.076061
      pz      :     0.953757  p :     2.965881
      px      :     1.064527
      py      :     0.947598
      dz2     :     0.004477  d :     0.043114
      dxz     :     0.007542
      dyz     :     0.006578
      dx2y2   :     0.011876
      dxy     :     0.012642
  9 C s       :     3.076878  s :     3.076878
      pz      :     0.962181  p :     2.972570
      px      :     1.061095
      py      :     0.949294
      dz2     :     0.004478  d :     0.043032
      dxz     :     0.007496
      dyz     :     0.006473
      dx2y2   :     0.012132
      dxy     :     0.012453
 10 C s       :     3.219666  s :     3.219666
      pz      :     1.003890  p :     2.817358
      px      :     0.851697
      py      :     0.961771
      dz2     :     0.003441  d :     0.034112
      dxz     :     0.004559
      dyz     :     0.005241
      dx2y2   :     0.010233
      dxy     :     0.010638
 11 C s       :     3.219341  s :     3.219341
      pz      :     1.007920  p :     2.818253
      px      :     0.850902
      py      :     0.959431
      dz2     :     0.003564  d :     0.034130
      dxz     :     0.004396
      dyz     :     0.005345
      dx2y2   :     0.010377
      dxy     :     0.010447
 12 C s       :     3.137974  s :     3.137974
      pz      :     0.960631  p :     2.800352
      px      :     0.964595
      py      :     0.875126
      dz2     :     0.002716  d :     0.035380
      dxz     :     0.007810
      dyz     :     0.003309
      dx2y2   :     0.011568
      dxy     :     0.009977
 13 H s       :     0.980241  s :     0.980241
      pz      :     0.004796  p :     0.023068
      px      :     0.012237
      py      :     0.006035
 14 H s       :     0.980748  s :     0.980748
      pz      :     0.004660  p :     0.023077
      px      :     0.012665
      py      :     0.005752
 15 H s       :     0.966154  s :     0.966154
      pz      :     0.005657  p :     0.022985
      px      :     0.003048
      py      :     0.014280
 16 C s       :     3.059389  s :     3.059389
      pz      :     1.040916  p :     2.821688
      px      :     0.949806
      py      :     0.830966
      dz2     :     0.005585  d :     0.054076
      dxz     :     0.007146
      dyz     :     0.007956
      dx2y2   :     0.017188
      dxy     :     0.016201
 17 C s       :     3.076918  s :     3.076918
      pz      :     0.973997  p :     2.972910
      px      :     1.051404
      py      :     0.947509
      dz2     :     0.004731  d :     0.043006
      dxz     :     0.006655
      dyz     :     0.007564
      dx2y2   :     0.012067
      dxy     :     0.011990
 18 C s       :     3.076720  s :     3.076720
      pz      :     0.969208  p :     2.966562
      px      :     1.050351
      py      :     0.947003
      dz2     :     0.005029  d :     0.043128
      dxz     :     0.006898
      dyz     :     0.007494
      dx2y2   :     0.011279
      dxy     :     0.012429
 19 C s       :     3.219783  s :     3.219783
      pz      :     0.997601  p :     2.817862
      px      :     0.864655
      py      :     0.955607
      dz2     :     0.004044  d :     0.034126
      dxz     :     0.003872
      dyz     :     0.006116
      dx2y2   :     0.009921
      dxy     :     0.010173
 20 C s       :     3.219613  s :     3.219613
      pz      :     0.986787  p :     2.816747
      px      :     0.871769
      py      :     0.958191
      dz2     :     0.002903  d :     0.034114
      dxz     :     0.004860
      dyz     :     0.005940
      dx2y2   :     0.009998
      dxy     :     0.010414
 21 C s       :     3.137900  s :     3.137900
      pz      :     0.967058  p :     2.800755
      px      :     0.964117
      py      :     0.869580
      dz2     :     0.004029  d :     0.035381
      dxz     :     0.006974
      dyz     :     0.003770
      dx2y2   :     0.011252
      dxy     :     0.009356
 22 H s       :     0.980643  s :     0.980643
      pz      :     0.004601  p :     0.023076
      px      :     0.012703
      py      :     0.005771
 23 H s       :     0.980233  s :     0.980233
      pz      :     0.006446  p :     0.023067
      px      :     0.010460
      py      :     0.006160
 24 H s       :     0.966070  s :     0.966070
      pz      :     0.004821  p :     0.022984
      px      :     0.003317
      py      :     0.014846
 25 C s       :     2.911099  s :     2.911099
      pz      :     1.020513  p :     2.976140
      px      :     0.952454
      py      :     1.003173
      dz2     :     0.006533  d :     0.026618
      dxz     :     0.003042
      dyz     :     0.004925
      dx2y2   :     0.005077
      dxy     :     0.007041
 26 H s       :     0.926989  s :     0.926989
      pz      :     0.007827  p :     0.024306
      px      :     0.004030
      py      :     0.012448
 27 H s       :     0.939192  s :     0.939192
      pz      :     0.014334  p :     0.024173
      px      :     0.004324
      py      :     0.005515
 28 H s       :     0.954636  s :     0.954636
      pz      :     0.005533  p :     0.023537
      px      :     0.010574
      py      :     0.007431
 29 C s       :     2.912653  s :     2.912653
      pz      :     1.027060  p :     2.978147
      px      :     0.949732
      py      :     1.001355
      dz2     :     0.003643  d :     0.026513
      dxz     :     0.004437
      dyz     :     0.007167
      dx2y2   :     0.003755
      dxy     :     0.007511
 30 H s       :     0.945014  s :     0.945014
      pz      :     0.011737  p :     0.024205
      px      :     0.005472
      py      :     0.006996
 31 H s       :     0.909074  s :     0.909074
      pz      :     0.009749  p :     0.024519
      px      :     0.004413
      py      :     0.010357
 32 H s       :     0.958270  s :     0.958270
      pz      :     0.005958  p :     0.023499
      px      :     0.009117
      py      :     0.008424
 33 C s       :     2.913584  s :     2.913584
      pz      :     1.025578  p :     2.978502
      px      :     0.947146
      py      :     1.005777
      dz2     :     0.005875  d :     0.026509
      dxz     :     0.002487
      dyz     :     0.006105
      dx2y2   :     0.004392
      dxy     :     0.007650
 34 H s       :     0.957749  s :     0.957749
      pz      :     0.005051  p :     0.023496
      px      :     0.010191
      py      :     0.008253
 35 H s       :     0.944702  s :     0.944702
      pz      :     0.013741  p :     0.024203
      px      :     0.004146
      py      :     0.006316
 36 H s       :     0.909854  s :     0.909854
      pz      :     0.009145  p :     0.024498
      px      :     0.004046
      py      :     0.011307
 37 C s       :     2.911734  s :     2.911734
      pz      :     1.013891  p :     2.976060
      px      :     0.961928
      py      :     1.000241
      dz2     :     0.006317  d :     0.026609
      dxz     :     0.003273
      dyz     :     0.005495
      dx2y2   :     0.004257
      dxy     :     0.007266
 38 H s       :     0.928526  s :     0.928526
      pz      :     0.007930  p :     0.024315
      px      :     0.004456
      py      :     0.011929
 39 H s       :     0.938493  s :     0.938493
      pz      :     0.013731  p :     0.024142
      px      :     0.004637
      py      :     0.005775
 40 H s       :     0.953839  s :     0.953839
      pz      :     0.004664  p :     0.023532
      px      :     0.011414
      py      :     0.007454


                     *******************************
                     * LOEWDIN POPULATION ANALYSIS *
                     *******************************

----------------------
LOEWDIN ATOMIC CHARGES
----------------------
   0 C :   -0.029027
   1 C :   -0.028711
   2 C :   -0.224033
   3 H :    0.033058
   4 H :    0.033025
   5 N :    0.038139
   6 N :    0.038068
   7 C :    0.009888
   8 C :   -0.015412
   9 C :   -0.021424
  10 C :   -0.039382
  11 C :   -0.040654
  12 C :   -0.021582
  13 H :    0.028214
  14 H :    0.027856
  15 H :    0.031839
  16 C :    0.009979
  17 C :   -0.021891
  18 C :   -0.015309
  19 C :   -0.040606
  20 C :   -0.039224
  21 C :   -0.021746
  22 H :    0.027877
  23 H :    0.028239
  24 H :    0.031823
  25 C :   -0.050368
  26 H :    0.040886
  27 H :    0.034109
  28 H :    0.030804
  29 C :   -0.051561
  30 H :    0.033718
  31 H :    0.044070
  32 H :    0.028836
  33 C :   -0.051515
  34 H :    0.029059
  35 H :    0.033783
  36 H :    0.043931
  37 C :   -0.050459
  38 H :    0.040253
  39 H :    0.034386
  40 H :    0.031064

-------------------------------
LOEWDIN REDUCED ORBITAL CHARGES
-------------------------------
  0 C s       :     2.863154  s :     2.863154
      pz      :     0.931840  p :     3.048129
      px      :     1.059526
      py      :     1.056763
      dz2     :     0.038395  d :     0.117744
      dxz     :     0.016730
      dyz     :     0.032519
      dx2y2   :     0.014337
      dxy     :     0.015762
  1 C s       :     2.862989  s :     2.862989
      pz      :     0.941326  p :     3.047876
      px      :     1.056915
      py      :     1.049635
      dz2     :     0.035580  d :     0.117846
      dxz     :     0.015270
      dyz     :     0.035380
      dx2y2   :     0.014875
      dxy     :     0.016741
  2 C s       :     3.209409  s :     3.209409
      pz      :     1.351847  p :     2.871879
      px      :     0.715530
      py      :     0.804502
      dz2     :     0.014613  d :     0.142745
      dxz     :     0.014956
      dyz     :     0.065805
      dx2y2   :     0.021539
      dxy     :     0.025832
  3 H s       :     0.896103  s :     0.896103
      pz      :     0.027931  p :     0.070840
      px      :     0.017378
      py      :     0.025531
  4 H s       :     0.896144  s :     0.896144
      pz      :     0.031570  p :     0.070831
      px      :     0.016700
      py      :     0.022560
  5 N s       :     3.055657  s :     3.055657
      pz      :     1.196443  p :     3.830095
      px      :     1.441236
      py      :     1.192417
      dz2     :     0.023065  d :     0.076108
      dxz     :     0.010238
      dyz     :     0.024248
      dx2y2   :     0.011614
      dxy     :     0.006943
  6 N s       :     3.055539  s :     3.055539
      pz      :     1.203132  p :     3.830239
      px      :     1.440107
      py      :     1.187000
      dz2     :     0.022672  d :     0.076154
      dxz     :     0.010423
      dyz     :     0.024350
      dx2y2   :     0.011654
      dxy     :     0.007056
  7 C s       :     2.834038  s :     2.834038
      pz      :     1.016493  p :     3.021698
      px      :     1.082371
      py      :     0.922835
      dz2     :     0.009570  d :     0.134375
      dxz     :     0.017791
      dyz     :     0.017983
      dx2y2   :     0.045898
      dxy     :     0.043134
  8 C s       :     2.852675  s :     2.852675
      pz      :     0.953513  p :     3.055793
      px      :     1.046771
      py      :     1.055509
      dz2     :     0.009593  d :     0.106943
      dxz     :     0.015627
      dyz     :     0.014463
      dx2y2   :     0.032614
      dxy     :     0.034645
  9 C s       :     2.852517  s :     2.852517
      pz      :     0.957973  p :     3.062065
      px      :     1.046407
      py      :     1.057684
      dz2     :     0.009568  d :     0.106843
      dxz     :     0.015546
      dyz     :     0.014216
      dx2y2   :     0.033049
      dxy     :     0.034464
 10 C s       :     2.855182  s :     2.855182
      pz      :     1.001957  p :     3.094160
      px      :     1.047066
      py      :     1.045137
      dz2     :     0.007591  d :     0.090041
      dxz     :     0.009918
      dyz     :     0.012157
      dx2y2   :     0.029351
      dxy     :     0.031024
 11 C s       :     2.855122  s :     2.855122
      pz      :     1.004111  p :     3.095412
      px      :     1.046288
      py      :     1.045012
      dz2     :     0.007863  d :     0.090121
      dxz     :     0.009575
      dyz     :     0.012466
      dx2y2   :     0.029779
      dxy     :     0.030437
 12 C s       :     2.856424  s :     2.856424
      pz      :     0.967706  p :     3.073613
      px      :     1.073496
      py      :     1.032411
      dz2     :     0.006173  d :     0.091545
      dxz     :     0.017266
      dyz     :     0.007002
      dx2y2   :     0.032607
      dxy     :     0.028497
 13 H s       :     0.905081  s :     0.905081
      pz      :     0.015118  p :     0.066705
      px      :     0.033397
      py      :     0.018190
 14 H s       :     0.905422  s :     0.905422
      pz      :     0.014820  p :     0.066722
      px      :     0.034471
      py      :     0.017431
 15 H s       :     0.901904  s :     0.901904
      pz      :     0.016816  p :     0.066257
      px      :     0.010942
      py      :     0.038500
 16 C s       :     2.834033  s :     2.834033
      pz      :     1.030167  p :     3.021610
      px      :     1.074286
      py      :     0.917158
      dz2     :     0.011971  d :     0.134378
      dxz     :     0.016651
      dyz     :     0.017821
      dx2y2   :     0.045283
      dxy     :     0.042651
 17 C s       :     2.852572  s :     2.852572
      pz      :     0.960954  p :     3.062546
      px      :     1.037631
      py      :     1.063961
      dz2     :     0.009818  d :     0.106773
      dxz     :     0.014489
      dyz     :     0.016404
      dx2y2   :     0.032685
      dxy     :     0.033376
 18 C s       :     2.852667  s :     2.852667
      pz      :     0.960275  p :     3.055676
      px      :     1.032881
      py      :     1.062519
      dz2     :     0.010862  d :     0.106967
      dxz     :     0.014977
      dyz     :     0.016868
      dx2y2   :     0.030756
      dxy     :     0.033504
 19 C s       :     2.855169  s :     2.855169
      pz      :     1.008035  p :     3.095331
      px      :     1.039489
      py      :     1.047807
      dz2     :     0.008733  d :     0.090106
      dxz     :     0.009008
      dyz     :     0.014726
      dx2y2   :     0.028484
      dxy     :     0.029155
 20 C s       :     2.855198  s :     2.855198
      pz      :     1.002441  p :     3.093983
      px      :     1.043753
      py      :     1.047789
      dz2     :     0.006520  d :     0.090043
      dxz     :     0.011057
      dyz     :     0.013663
      dx2y2   :     0.028349
      dxy     :     0.030453
 21 C s       :     2.856409  s :     2.856409
      pz      :     0.975825  p :     3.073797
      px      :     1.061341
      py      :     1.036631
      dz2     :     0.008801  d :     0.091540
      dxz     :     0.016518
      dyz     :     0.008401
      dx2y2   :     0.031130
      dxy     :     0.026691
 22 H s       :     0.905414  s :     0.905414
      pz      :     0.014689  p :     0.066709
      px      :     0.034554
      py      :     0.017466
 23 H s       :     0.905061  s :     0.905061
      pz      :     0.019222  p :     0.066700
      px      :     0.028993
      py      :     0.018485
 24 H s       :     0.901906  s :     0.901906
      pz      :     0.014814  p :     0.066271
      px      :     0.011540
      py      :     0.039917
 25 C s       :     2.826346  s :     2.826346
      pz      :     1.070113  p :     3.153273
      px      :     1.024381
      py      :     1.058779
      dz2     :     0.017708  d :     0.070749
      dxz     :     0.007144
      dyz     :     0.013015
      dx2y2   :     0.013511
      dxy     :     0.019370
 26 H s       :     0.893233  s :     0.893233
      pz      :     0.020282  p :     0.065881
      px      :     0.011948
      py      :     0.033651
 27 H s       :     0.900463  s :     0.900463
      pz      :     0.038373  p :     0.065428
      px      :     0.012471
      py      :     0.014584
 28 H s       :     0.904647  s :     0.904647
      pz      :     0.014532  p :     0.064549
      px      :     0.029709
      py      :     0.020308
 29 C s       :     2.826715  s :     2.826715
      pz      :     1.073278  p :     3.154329
      px      :     1.021830
      py      :     1.059222
      dz2     :     0.009531  d :     0.070517
      dxz     :     0.011235
      dyz     :     0.019365
      dx2y2   :     0.009640
      dxy     :     0.020745
 30 H s       :     0.901126  s :     0.901126
      pz      :     0.031258  p :     0.065157
      px      :     0.015320
      py      :     0.018579
 31 H s       :     0.888752  s :     0.888752
      pz      :     0.026153  p :     0.067178
      px      :     0.012976
      py      :     0.028048
 32 H s       :     0.906652  s :     0.906652
      pz      :     0.015887  p :     0.064512
      px      :     0.025569
      py      :     0.023057
 33 C s       :     2.826712  s :     2.826712
      pz      :     1.072998  p :     3.154306
      px      :     1.020441
      py      :     1.060867
      dz2     :     0.016000  d :     0.070497
      dxz     :     0.005509
      dyz     :     0.016329
      dx2y2   :     0.011528
      dxy     :     0.021131
 34 H s       :     0.906435  s :     0.906435
      pz      :     0.013262  p :     0.064506
      px      :     0.028649
      py      :     0.022596
 35 H s       :     0.901053  s :     0.901053
      pz      :     0.036353  p :     0.065164
      px      :     0.012072
      py      :     0.016739
 36 H s       :     0.889013  s :     0.889013
      pz      :     0.024261  p :     0.067056
      px      :     0.012117
      py      :     0.030678
 37 C s       :     2.826479  s :     2.826479
      pz      :     1.063074  p :     3.153259
      px      :     1.032730
      py      :     1.057456
      dz2     :     0.016743  d :     0.070721
      dxz     :     0.008166
      dyz     :     0.014666
      dx2y2   :     0.011131
      dxy     :     0.020015
 38 H s       :     0.893835  s :     0.893835
      pz      :     0.020878  p :     0.065911
      px      :     0.012745
      py      :     0.032288
 39 H s       :     0.900258  s :     0.900258
      pz      :     0.036851  p :     0.065356
      px      :     0.013189
      py      :     0.015316
 40 H s       :     0.904397  s :     0.904397
      pz      :     0.012437  p :     0.064539
      px      :     0.031678
      py      :     0.020423


                      *****************************
                      * MAYER POPULATION ANALYSIS *
                      *****************************

  NA   - Mulliken gross atomic population
  ZA   - Total nuclear charge
  QA   - Mulliken gross atomic charge
  VA   - Mayer's total valence
  BVA  - Mayer's bonded valence
  FA   - Mayer's free valence

  ATOM       NA         ZA         QA         VA         BVA        FA
  0 C      5.9504     6.0000     0.0496     3.8348     3.8348    -0.0000
  1 C      5.9504     6.0000     0.0496     3.8350     3.8350     0.0000
  2 C      6.0658     6.0000    -0.0658     2.6690     2.6690    -0.0000
  3 H      0.9589     1.0000     0.0411     1.0013     1.0013    -0.0000
  4 H      0.9590     1.0000     0.0410     1.0013     1.0013     0.0000
  5 N      7.2217     7.0000    -0.2217     3.3072     3.3072    -0.0000
  6 N      7.2220     7.0000    -0.2220     3.3070     3.3070    -0.0000
  7 C      5.9357     6.0000     0.0643     4.0131     4.0131    -0.0000
  8 C      6.0851     6.0000    -0.0851     4.0351     4.0351     0.0000
  9 C      6.0925     6.0000    -0.0925     4.0291     4.0291    -0.0000
 10 C      6.0711     6.0000    -0.0711     3.8937     3.8937    -0.0000
 11 C      6.0717     6.0000    -0.0717     3.8960     3.8960     0.0000
 12 C      5.9737     6.0000     0.0263     3.8272     3.8272    -0.0000
 13 H      1.0033     1.0000    -0.0033     0.9933     0.9933     0.0000
 14 H      1.0038     1.0000    -0.0038     0.9932     0.9932     0.0000
 15 H      0.9891     1.0000     0.0109     0.9844     0.9844    -0.0000
 16 C      5.9352     6.0000     0.0648     4.0115     4.0115    -0.0000
 17 C      6.0928     6.0000    -0.0928     4.0285     4.0285    -0.0000
 18 C      6.0864     6.0000    -0.0864     4.0369     4.0369     0.0000
 19 C      6.0718     6.0000    -0.0718     3.8954     3.8954     0.0000
 20 C      6.0705     6.0000    -0.0705     3.8933     3.8933     0.0000
 21 C      5.9740     6.0000     0.0260     3.8268     3.8268    -0.0000
 22 H      1.0037     1.0000    -0.0037     0.9932     0.9932     0.0000
 23 H      1.0033     1.0000    -0.0033     0.9934     0.9934     0.0000
 24 H      0.9891     1.0000     0.0109     0.9845     0.9845    -0.0000
 25 C      5.9139     6.0000     0.0861     3.8998     3.8998    -0.0000
 26 H      0.9513     1.0000     0.0487     1.0063     1.0063     0.0000
 27 H      0.9634     1.0000     0.0366     1.0002     1.0002     0.0000
 28 H      0.9782     1.0000     0.0218     0.9998     0.9998     0.0000
 29 C      5.9173     6.0000     0.0827     3.9002     3.9002    -0.0000
 30 H      0.9692     1.0000     0.0308     0.9989     0.9989    -0.0000
 31 H      0.9336     1.0000     0.0664     1.0112     1.0112    -0.0000
 32 H      0.9818     1.0000     0.0182     0.9986     0.9986     0.0000
 33 C      5.9186     6.0000     0.0814     3.9009     3.9009     0.0000
 34 H      0.9812     1.0000     0.0188     0.9987     0.9987     0.0000
 35 H      0.9689     1.0000     0.0311     0.9990     0.9990     0.0000
 36 H      0.9344     1.0000     0.0656     1.0105     1.0105     0.0000
 37 C      5.9144     6.0000     0.0856     3.9005     3.9005     0.0000
 38 H      0.9528     1.0000     0.0472     1.0066     1.0066     0.0000
 39 H      0.9626     1.0000     0.0374     0.9993     0.9993     0.0000
 40 H      0.9774     1.0000     0.0226     0.9997     0.9997    -0.0000

  Mayer bond orders larger than 0.100000
B(  0-C ,  1-C ) :   1.6266 B(  0-C ,  3-H ) :   0.9916 B(  0-C ,  5-N ) :   1.0931 
B(  1-C ,  4-H ) :   0.9916 B(  1-C ,  6-N ) :   1.0935 B(  2-C ,  5-N ) :   1.1969 
B(  2-C ,  6-N ) :   1.1959 B(  5-N ,  7-C ) :   0.9489 B(  6-N , 16-C ) :   0.9483 
B(  7-C ,  8-C ) :   1.4380 B(  7-C ,  9-C ) :   1.4368 B(  8-C , 10-C ) :   1.3969 
B(  8-C , 33-C ) :   1.0542 B(  9-C , 11-C ) :   1.3967 B(  9-C , 25-C ) :   1.0523 
B( 10-C , 12-C ) :   1.3881 B( 10-C , 13-H ) :   0.9894 B( 11-C , 12-C ) :   1.3894 
B( 11-C , 14-H ) :   0.9895 B( 12-C , 15-H ) :   0.9899 B( 16-C , 17-C ) :   1.4371 
B( 16-C , 18-C ) :   1.4374 B( 17-C , 19-C ) :   1.3958 B( 17-C , 37-C ) :   1.0525 
B( 18-C , 20-C ) :   1.3974 B( 18-C , 29-C ) :   1.0549 B( 19-C , 21-C ) :   1.3898 
B( 19-C , 22-H ) :   0.9899 B( 20-C , 21-C ) :   1.3874 B( 20-C , 23-H ) :   0.9895 
B( 21-C , 24-H ) :   0.9899 B( 25-C , 26-H ) :   0.9549 B( 25-C , 27-H ) :   0.9508 
B( 25-C , 28-H ) :   0.9583 B( 29-C , 30-H ) :   0.9552 B( 29-C , 31-H ) :   0.9465 
B( 29-C , 32-H ) :   0.9565 B( 33-C , 34-H ) :   0.9567 B( 33-C , 35-H ) :   0.9554 
B( 33-C , 36-H ) :   0.9473 B( 37-C , 38-H ) :   0.9554 B( 37-C , 39-H ) :   0.9507 
B( 37-C , 40-H ) :   0.9586 

-------
TIMINGS
-------

Total SCF time: 0 days 0 hours 3 min 35 sec 

Total time                  ....     215.864 sec
Sum of individual times     ....     214.957 sec  ( 99.6%)

Fock matrix formation       ....     209.024 sec  ( 96.8%)
  Split-RI-J                ....       9.207 sec  (  4.4% of F)
  Chain of spheres X        ....     187.391 sec  ( 89.7% of F)
  XC integration            ....      11.949 sec  (  5.7% of F)
    Basis function eval.    ....       3.645 sec  ( 30.5% of XC)
    Density eval.           ....       2.802 sec  ( 23.5% of XC)
    XC-Functional eval.     ....       1.252 sec  ( 10.5% of XC)
    XC-Potential eval.      ....       2.488 sec  ( 20.8% of XC)
Diagonalization             ....       0.249 sec  (  0.1%)
Density matrix formation    ....       0.029 sec  (  0.0%)
Population analysis         ....       0.105 sec  (  0.0%)
Initial guess               ....       0.721 sec  (  0.3%)
Orbital Transformation      ....       0.000 sec  (  0.0%)
Orbital Orthonormalization  ....       0.000 sec  (  0.0%)
DIIS solution               ....       0.283 sec  (  0.1%)
SOSCF solution              ....       0.194 sec  (  0.1%)
Grid generation             ....       4.353 sec  (  2.0%)

Maximum memory used throughout the entire SCF-calculation: 86.9 MB


-------------------------------------------------------------------------------
                          DFT DISPERSION CORRECTION                            
                                                                               
                                 DFTD4 V2.5                                    
-------------------------------------------------------------------------------
The WB97X functional is recognized
Active option DFTDOPT                   ...         5   

Starting D4
-------------------------   ----------------
Dispersion correction           -0.009617567
-------------------------   ----------------


-------------------------   --------------------
FINAL SINGLE POINT ENERGY      -844.732914196063
-------------------------   --------------------


                            ***************************************
                            *     ORCA property calculations      *
                            ***************************************

                                    ---------------------
                                    Active property flags
                                    ---------------------
   (+) Dipole Moment


------------------------------------------------------------------------------
                       ORCA ELECTRIC PROPERTIES CALCULATION
------------------------------------------------------------------------------

Dipole Moment Calculation                       ... on
Quadrupole Moment Calculation                   ... off
Polarizability Calculation                      ... off
GBWName                                         ... DFT_water_outs/8-gasSP.gbw
Electron density                                ... DFT_water_outs/8-gasSP.scfp
The origin for moment calculation is the CENTER OF MASS  = (-0.019578,  0.017573  0.044454)

-------------
DIPOLE MOMENT
-------------
                                X             Y             Z
Electronic contribution:      0.02389       0.00442      -0.11611
Nuclear contribution   :      0.12235       0.03814      -0.83893
                        -----------------------------------------
Total Dipole Moment    :      0.14623       0.04256      -0.95504
                        -----------------------------------------
Magnitude (a.u.)       :      0.96711
Magnitude (Debye)      :      2.45820



--------------------
Rotational spectrum 
--------------------
 
Rotational constants in cm-1:     0.023796     0.005931     0.005222 
Rotational constants in MHz :   713.398456   177.805561   156.540105 

 Dipole components along the rotational axes: 
x,y,z [a.u.] :    -0.000325    -0.013104     0.967021 
x,y,z [Debye]:    -0.000826    -0.033309     2.457972 

 

Timings for individual modules:

Sum of individual times         ...      217.455 sec (=   3.624 min)
GTO integral calculation        ...        1.101 sec (=   0.018 min)   0.5 %
SCF iterations                  ...      216.355 sec (=   3.606 min)  99.5 %
                             ****ORCA TERMINATED NORMALLY****
TOTAL RUN TIME: 0 days 0 hours 3 minutes 38 seconds 505 msec
