
                                 *****************
                                 * O   R   C   A *
                                 *****************

                                            #,                                       
                                            ###                                      
                                            ####                                     
                                            #####                                    
                                            ######                                   
                                           ########,                                 
                                     ,,################,,,,,                         
                               ,,#################################,,                 
                          ,,##########################################,,             
                       ,#########################################, ''#####,          
                    ,#############################################,,   '####,        
                  ,##################################################,,,,####,       
                ,###########''''           ''''###############################       
              ,#####''   ,,,,##########,,,,          '''####'''          '####       
            ,##' ,,,,###########################,,,                        '##       
           ' ,,###''''                  '''############,,,                           
         ,,##''                                '''############,,,,        ,,,,,,###''
      ,#''                                            '''#######################'''  
     '                                                          ''''####''''         
             ,#######,   #######,   ,#######,      ##                                
            ,#'     '#,  ##    ##  ,#'     '#,    #''#        ######   ,####,        
            ##       ##  ##   ,#'  ##            #'  '#       #        #'  '#        
            ##       ##  #######   ##           ,######,      #####,   #    #        
            '#,     ,#'  ##    ##  '#,     ,#' ,#      #,         ##   #,  ,#        
             '#######'   ##     ##  '#######'  #'      '#     #####' # '####'        



                  #######################################################
                  #                        -***-                        #
                  #          Department of theory and spectroscopy      #
                  #    Directorship and core code : Frank Neese         #
                  #        Max Planck Institute fuer Kohlenforschung    #
                  #                Kaiser Wilhelm Platz 1               #
                  #                 D-45470 Muelheim/Ruhr               #
                  #                      Germany                        #
                  #                                                     #
                  #                  All rights reserved                #
                  #                        -***-                        #
                  #######################################################


                         Program Version 5.0.3 -  RELEASE  -


 With contributions from (in alphabetic order):
   Daniel Aravena         : Magnetic Suceptibility
   Michael Atanasov       : Ab Initio Ligand Field Theory (pilot matlab implementation)
   Alexander A. Auer      : GIAO ZORA, VPT2 properties, NMR spectrum
   Ute Becker             : Parallelization
   Giovanni Bistoni       : ED, misc. LED, open-shell LED, HFLD
   Martin Brehm           : Molecular dynamics
   Dmytro Bykov           : SCF Hessian
   Vijay G. Chilkuri      : MRCI spin determinant printing, contributions to CSF-ICE
   Dipayan Datta          : RHF DLPNO-CCSD density
   Achintya Kumar Dutta   : EOM-CC, STEOM-CC
   Dmitry Ganyushin       : Spin-Orbit,Spin-Spin,Magnetic field MRCI
   Miquel Garcia          : C-PCM and meta-GGA Hessian, CC/C-PCM, Gaussian charge scheme
   Yang Guo               : DLPNO-NEVPT2, F12-NEVPT2, CIM, IAO-localization
   Andreas Hansen         : Spin unrestricted coupled pair/coupled cluster methods
   Benjamin Helmich-Paris : MC-RPA, TRAH-SCF, COSX integrals
   Lee Huntington         : MR-EOM, pCC
   Robert Izsak           : Overlap fitted RIJCOSX, COSX-SCS-MP3, EOM
   Marcus Kettner         : VPT2
   Christian Kollmar      : KDIIS, OOCD, Brueckner-CCSD(T), CCSD density, CASPT2, CASPT2-K
   Simone Kossmann        : Meta GGA functionals, TD-DFT gradient, OOMP2, MP2 Hessian
   Martin Krupicka        : Initial AUTO-CI
   Lucas Lang             : DCDCAS
   Marvin Lechner         : AUTO-CI (C++ implementation), FIC-MRCC
   Dagmar Lenk            : GEPOL surface, SMD
   Dimitrios Liakos       : Extrapolation schemes; Compound Job, initial MDCI parallelization
   Dimitrios Manganas     : Further ROCIS development; embedding schemes
   Dimitrios Pantazis     : SARC Basis sets
   Anastasios Papadopoulos: AUTO-CI, single reference methods and gradients
   Taras Petrenko         : DFT Hessian,TD-DFT gradient, ASA, ECA, R-Raman, ABS, FL, XAS/XES, NRVS
   Peter Pinski           : DLPNO-MP2, DLPNO-MP2 Gradient
   Christoph Reimann      : Effective Core Potentials
   Marius Retegan         : Local ZFS, SOC
   Christoph Riplinger    : Optimizer, TS searches, QM/MM, DLPNO-CCSD(T), (RO)-DLPNO pert. Triples
   Tobias Risthaus        : Range-separated hybrids, TD-DFT gradient, RPA, STAB
   Michael Roemelt        : Original ROCIS implementation
   Masaaki Saitow         : Open-shell DLPNO-CCSD energy and density
   Barbara Sandhoefer     : DKH picture change effects
   Avijit Sen             : IP-ROCIS
   Kantharuban Sivalingam : CASSCF convergence, NEVPT2, FIC-MRCI
   Bernardo de Souza      : ESD, SOC TD-DFT
   Georgi Stoychev        : AutoAux, RI-MP2 NMR, DLPNO-MP2 response
   Willem Van den Heuvel  : Paramagnetic NMR
   Boris Wezisla          : Elementary symmetry handling
   Frank Wennmohs         : Technical directorship


 We gratefully acknowledge several colleagues who have allowed us to
 interface, adapt or use parts of their codes:
   Stefan Grimme, W. Hujo, H. Kruse, P. Pracht,  : VdW corrections, initial TS optimization,
                  C. Bannwarth, S. Ehlert          DFT functionals, gCP, sTDA/sTD-DF
   Ed Valeev, F. Pavosevic, A. Kumar             : LibInt (2-el integral package), F12 methods
   Garnet Chan, S. Sharma, J. Yang, R. Olivares  : DMRG
   Ulf Ekstrom                                   : XCFun DFT Library
   Mihaly Kallay                                 : mrcc  (arbitrary order and MRCC methods)
   Jiri Pittner, Ondrej Demel                    : Mk-CCSD
   Frank Weinhold                                : gennbo (NPA and NBO analysis)
   Christopher J. Cramer and Donald G. Truhlar   : smd solvation model
   Lars Goerigk                                  : TD-DFT with DH, B97 family of functionals
   V. Asgeirsson, H. Jonsson                     : NEB implementation
   FAccTs GmbH                                   : IRC, NEB, NEB-TS, DLPNO-Multilevel, CI-OPT
                                                   MM, QMMM, 2- and 3-layer-ONIOM, Crystal-QMMM,
                                                   LR-CPCM, SF, NACMEs, symmetry and pop. for TD-DFT,
                                                   nearIR, NL-DFT gradient (VV10), updates on ESD,
                                                   ML-optimized integration grids
   S Lehtola, MJT Oliveira, MAL Marques          : LibXC Library
   Liviu Ungur et al                             : ANISO software


 Your calculation uses the libint2 library for the computation of 2-el integrals
 For citations please refer to: http://libint.valeyev.net

 Your ORCA version has been built with support for libXC version: 5.1.0
 For citations please refer to: https://tddft.org/programs/libxc/

 This ORCA versions uses:
   CBLAS   interface :  Fast vector & matrix operations
   LAPACKE interface :  Fast linear algebra routines
   SCALAPACK package :  Parallel linear algebra routines
   Shared memory     :  Shared parallel matrices
   BLAS/LAPACK       :  OpenBLAS 0.3.15  USE64BITINT DYNAMIC_ARCH NO_AFFINITY SkylakeX SINGLE_THREADED
        Core in use  :  SkylakeX
   Copyright (c) 2011-2014, The OpenBLAS Project


Your calculation utilizes the atom-pairwise dispersion correction
based on tight binding partial charges (D4)
Cite in your paper:
E.Caldeweyher, C.Bannwarth, S.Grimme, J.Chem.Phys., (2017), 147, 034112.
E.Caldeweyher, S.Ehlert, A.Hansen, H.Neugebauer, S.Grimme, J.Chem.Phys., (2018), in progress.
   

XCFun DFT library Copyright 2009-2010 Ulf Ekstrom and contributors.
See http://admol.org/xcfun for more information.
This is free software; see the source code for copying conditions.
There is ABSOLUTELY NO WARRANTY; not even for MERCHANTABILITY or FITNESS FOR A PARTICULAR PURPOSE.
For details see the documentation.
Scientific users of this library should cite U. Ekstrom, L. Visscher, R. Bast, A. J. Thorvaldsen and K. Ruud;
J.Chem.Theor.Comp. 2010, DOI: 10.1021/ct100117s
XCFun Version 0.99 

================================================================================

----- Orbital basis set information -----
Your calculation utilizes the basis: def2-SVP
   F. Weigend and R. Ahlrichs, Phys. Chem. Chem. Phys. 7, 3297 (2005).

----- AuxJ basis set information -----
Your calculation utilizes the auxiliary basis: def2/J
   F. Weigend, Phys. Chem. Chem. Phys. 8, 1057 (2006).

================================================================================
                                        WARNINGS
                       Please study these warnings very carefully!
================================================================================

WARNING: Old DensityContainer found on disk!
         Will remove this file - 
         If you want to keep old densities, please start your calculation with a different basename. 


WARNING: Geometry Optimization
  ===> : Switching off AutoStart
         For restart on a previous wavefunction, please use MOREAD

INFO   : the flag for use of the SHARK integral package has been found!

================================================================================
                                       INPUT FILE
================================================================================
NAME = Min_291.inp
|  1> ! Opt FREQ wB97X D4 Def2-SVP SlowConv TightSCF DEFGRID2 Def2/J RIJCOSX
|  2> %MAXCORE 4000
|  3> %scf MaxIter 20000 end
|  4> %geom
|  5> MaxIter 500
|  6> end
|  7> %PAL NPROCS 8 END
|  8> 
|  9> * xyz 0 1
| 10> C -0.11019 0.72357 -1.67
| 11> C -0.12216 -0.6154 -1.76657
| 12> C -0.07915 -0.04958 0.52337
| 13> H -0.03585 1.47606 -2.47529
| 14> H -0.19447 -1.28606 -2.59316
| 15> N 0.00498 1.04551 -0.32002
| 16> N -0.20779 -1.02115 -0.4743
| 17> C 0.11982 2.36717 0.16104
| 18> C -0.98601 3.255 0.41582
| 19> C 1.41913 2.85226 0.36983
| 20> C -0.82642 4.55811 0.81326
| 21> C 1.59892 4.22545 0.71968
| 22> C 0.48109 5.06249 0.91743
| 23> H -1.65035 5.17358 1.09746
| 24> H 2.61724 4.62392 0.81054
| 25> H 0.55276 6.13667 1.17424
| 26> C -0.21272 -2.39111 -0.14807
| 27> C -1.37023 -3.20923 -0.43637
| 28> C 0.95128 -2.95398 0.43467
| 29> C -1.29457 -4.60273 -0.18394
| 30> C 1.0934 -4.31932 0.56383
| 31> C -0.03313 -5.14517 0.29417
| 32> H -2.16057 -5.30044 -0.2131
| 33> H 2.02019 -4.79189 0.84993
| 34> H 0.01965 -6.20906 0.47947
| 35> C 2.60725 1.92744 0.3735
| 36> H 2.38632 1.10776 1.07647
| 37> H 2.9173 1.517 -0.58295
| 38> H 3.42784 2.50395 0.82815
| 39> C 2.08212 -2.05221 0.83752
| 40> H 2.3679 -1.43138 -0.01846
| 41> H 1.81174 -1.4069 1.67624
| 42> H 2.94255 -2.64033 1.18295
| 43> C -2.39132 2.96382 0.02628
| 44> H -2.93918 3.8936 0.00513
| 45> H -2.54694 2.31127 -0.88779
| 46> H -2.72461 2.31214 0.85308
| 47> C -2.70193 -2.65298 -0.98651
| 48> H -3.02882 -1.71216 -0.49318
| 49> H -2.64051 -2.40325 -2.03492
| 50> H -3.49304 -3.43084 -0.89482
| 51> **                         ****END OF INPUT****
================================================================================

                       *****************************
                       * Geometry Optimization Run *
                       *****************************

Geometry optimization settings:
Update method            Update   .... BFGS
Choice of coordinates    CoordSys .... Z-matrix Internals
Initial Hessian          InHess   .... Almoef's Model

Convergence Tolerances:
Energy Change            TolE     ....  5.0000e-06 Eh
Max. Gradient            TolMAXG  ....  3.0000e-04 Eh/bohr
RMS Gradient             TolRMSG  ....  1.0000e-04 Eh/bohr
Max. Displacement        TolMAXD  ....  4.0000e-03 bohr
RMS Displacement         TolRMSD  ....  2.0000e-03 bohr
Strict Convergence                ....  False
------------------------------------------------------------------------------
                        ORCA OPTIMIZATION COORDINATE SETUP
------------------------------------------------------------------------------

The optimization will be done in new redundant internal coordinates
Making redundant internal coordinates   ...  (new redundants) done
Evaluating the initial hessian          ...  (Almloef) done
Evaluating the coordinates              ...  done
Calculating the B-matrix                .... done
Calculating the G-matrix                .... done
Diagonalizing the G-matrix              .... done
Small eigenvalue found = 3.078e-03
Small eigenvalue found = 6.523e-03
Small eigenvalue found = 9.148e-03
Small eigenvalue found = 1.288e-02
Small eigenvalue found = 1.736e-02
The first mode is                       ....   95
The number of degrees of freedom        ....  117

    -----------------------------------------------------------------
                    Redundant Internal Coordinates


    -----------------------------------------------------------------
         Definition                    Initial Value    Approx d2E/dq
    -----------------------------------------------------------------
      1. B(C   1,C   0)                  1.3425         0.743909   
      2. B(H   3,C   0)                  1.1047         0.341228   
      3. B(H   4,C   1)                  1.0669         0.392000   
      4. B(N   5,C   2)                  1.3848         0.570438   
      5. B(N   5,C   0)                  1.3926         0.554262   
      6. B(N   6,C   2)                  1.3985         0.542365   
      7. B(N   6,C   1)                  1.3572         0.631311   
      8. B(C   7,N   5)                  1.4112         0.517732   
      9. B(C   8,C   7)                  1.4408         0.518357   
     10. B(C   9,C   7)                  1.4025         0.596672   
     11. B(C  10,C   8)                  1.3717         0.668278   
     12. B(C  11,C   9)                  1.4284         0.542562   
     13. B(C  12,C  11)                  1.4104         0.579642   
     14. B(C  12,C  10)                  1.4053         0.590675   
     15. B(H  13,C  10)                  1.0670         0.391886   
     16. B(H  14,C  11)                  1.0973         0.350605   
     17. B(H  15,C  12)                  1.1068         0.338579   
     18. B(C  16,N   6)                  1.4083         0.523260   
     19. B(C  17,C  16)                  1.4465         0.507749   
     20. B(C  18,C  16)                  1.4182         0.563300   
     21. B(C  19,C  17)                  1.4182         0.563312   
     22. B(C  20,C  18)                  1.3788         0.651088   
     23. B(C  21,C  20)                  1.4226         0.554261   
     24. B(C  21,C  19)                  1.4540         0.493925   
     25. B(H  22,C  19)                  1.1125         0.331560   
     26. B(H  23,C  20)                  1.0789         0.375030   
     27. B(H  24,C  21)                  1.0812         0.371938   
     28. B(C  25,C   9)                  1.5056         0.408556   
     29. B(H  26,C  25)                  1.1022         0.344313   
     30. B(H  27,C  25)                  1.0860         0.365435   
     31. B(H  28,C  25)                  1.1011         0.345702   
     32. B(C  29,C  18)                  1.5014         0.414923   
     33. B(H  30,C  29)                  1.0954         0.353086   
     34. B(H  31,C  29)                  1.0922         0.357153   
     35. B(H  32,C  29)                  1.0980         0.349704   
     36. B(C  33,C   8)                  1.4871         0.437366   
     37. B(H  34,C  33)                  1.0794         0.374409   
     38. B(H  35,C  33)                  1.1338         0.306549   
     39. B(H  36,C  33)                  1.1042         0.341734   
     40. B(C  37,C  17)                  1.5445         0.354191   
     41. B(H  38,C  37)                  1.1115         0.332785   
     42. B(H  39,C  37)                  1.0795         0.374274   
     43. B(H  40,C  37)                  1.1133         0.330619   
     44. A(C   1,C   0,N   5)          107.5200         0.436701   
     45. A(H   3,C   0,N   5)          122.9317         0.341091   
     46. A(C   1,C   0,H   3)          128.8710         0.360689   
     47. A(H   4,C   1,N   6)          123.0589         0.356908   
     48. A(C   0,C   1,H   4)          133.1014         0.369354   
     49. A(C   0,C   1,N   6)          103.3118         0.447097   
     50. A(N   5,C   2,N   6)           96.9207         0.412136   
     51. A(C   0,N   5,C   7)          123.6216         0.406679   
     52. A(C   0,N   5,C   2)          113.7383         0.413727   
     53. A(C   2,N   5,C   7)          122.5456         0.408755   
     54. A(C   2,N   6,C  16)          120.7225         0.405884   
     55. A(C   1,N   6,C  16)          120.7722         0.416965   
     56. A(C   1,N   6,C   2)          117.7595         0.419638   
     57. A(N   5,C   7,C   9)          116.7479         0.414705   
     58. A(C   8,C   7,C   9)          118.1356         0.417497   
     59. A(N   5,C   7,C   8)          125.0946         0.404496   
     60. A(C   7,C   8,C  33)          123.9392         0.395197   
     61. A(C   7,C   8,C  10)          123.1837         0.426033   
     62. A(C  10,C   8,C  33)          111.8306         0.413319   
     63. A(C   7,C   9,C  11)          119.0490         0.420908   
     64. A(C   7,C   9,C  25)          121.2622         0.400267   
     65. A(C  11,C   9,C  25)          119.3781         0.393641   
     66. A(C  12,C  10,H  13)          119.4525         0.355076   
     67. A(C   8,C  10,H  13)          122.3664         0.362615   
     68. A(C   8,C  10,C  12)          118.0798         0.436144   
     69. A(C   9,C  11,C  12)          120.3385         0.418740   
     70. A(C  12,C  11,H  14)          120.5572         0.347352   
     71. A(C   9,C  11,H  14)          119.0909         0.343515   
     72. A(C  11,C  12,H  15)          123.8625         0.345319   
     73. A(C  10,C  12,H  15)          115.2011         0.346415   
     74. A(C  10,C  12,C  11)          120.9312         0.425142   
     75. A(C  17,C  16,C  18)          120.9449         0.411732   
     76. A(N   6,C  16,C  18)          118.5812         0.411264   
     77. A(N   6,C  16,C  17)          120.4536         0.403779   
     78. A(C  16,C  17,C  19)          118.5275         0.411733   
     79. A(C  19,C  17,C  37)          117.5986         0.386469   
     80. A(C  16,C  17,C  37)          123.8672         0.379559   
     81. A(C  20,C  18,C  29)          119.4712         0.407590   
     82. A(C  16,C  18,C  29)          119.3438         0.397316   
     83. A(C  16,C  18,C  20)          121.0719         0.430416   
     84. A(C  21,C  19,H  22)          116.7436         0.335032   
     85. A(C  17,C  19,H  22)          124.7537         0.342462   
     86. A(C  17,C  19,C  21)          118.1245         0.409723   
     87. A(C  21,C  20,H  23)          118.4379         0.348675   
     88. A(C  18,C  20,H  23)          123.1687         0.358313   
     89. A(C  18,C  20,C  21)          118.3905         0.429168   
     90. A(C  20,C  21,H  24)          120.0055         0.348189   
     91. A(C  19,C  21,H  24)          117.7626         0.341515   
     92. A(C  19,C  21,C  20)          122.1927         0.408549   
     93. A(H  27,C  25,H  28)          110.4116         0.289651   
     94. A(H  26,C  25,H  28)          105.9860         0.286965   
     95. A(C   9,C  25,H  28)          105.5149         0.326927   
     96. A(H  26,C  25,H  27)          109.7471         0.289468   
     97. A(C   9,C  25,H  27)          117.0835         0.329936   
     98. A(C   9,C  25,H  26)          107.4681         0.326711   
     99. A(H  31,C  29,H  32)          105.5971         0.289133   
    100. A(H  30,C  29,H  32)          110.1812         0.288615   
    101. A(C  18,C  29,H  32)          110.6667         0.328384   
    102. A(H  30,C  29,H  31)          109.2567         0.289569   
    103. A(C  18,C  29,H  31)          111.9895         0.329529   
    104. A(C  18,C  29,H  30)          109.1017         0.328906   
    105. A(C   8,C  33,H  36)          101.8091         0.329995   
    106. A(H  34,C  33,H  35)          114.2234         0.285341   
    107. A(C   8,C  33,H  35)          116.9732         0.324140   
    108. A(C   8,C  33,H  34)          108.4284         0.335028   
    109. A(H  35,C  33,H  36)          102.8586         0.281324   
    110. A(H  34,C  33,H  36)          111.7052         0.290229   
    111. A(H  39,C  37,H  40)          106.3837         0.288712   
    112. A(H  38,C  37,H  40)          110.2361         0.283471   
    113. A(C  17,C  37,H  40)          109.3742         0.317046   
    114. A(H  38,C  37,H  39)          104.5950         0.289008   
    115. A(C  17,C  37,H  39)          112.3458         0.323538   
    116. A(C  17,C  37,H  38)          113.5993         0.317384   
    117. D(H   4,C   1,C   0,N   5)    179.9671         0.039404   
    118. D(H   4,C   1,C   0,H   3)     -9.3921         0.039404   
    119. D(N   6,C   1,C   0,N   5)      8.4100         0.039404   
    120. D(N   6,C   1,C   0,H   3)    179.0508         0.039404   
    121. D(C   7,N   5,C   0,C   1)    176.5787         0.024506   
    122. D(C   2,N   5,C   0,H   3)   -178.2044         0.024506   
    123. D(C   2,N   5,C   0,C   1)     -6.8807         0.024506   
    124. D(C   0,N   5,C   2,N   6)      1.8336         0.023622   
    125. D(C   7,N   5,C   2,N   6)    178.4164         0.023622   
    126. D(C   7,N   5,C   0,H   3)      5.2550         0.024506   
    127. D(C   1,N   6,C   2,N   5)      4.0249         0.021249   
    128. D(C  16,N   6,C   1,C   0)   -178.4077         0.032366   
    129. D(C  16,N   6,C   1,H   4)      8.9411         0.032366   
    130. D(C  16,N   6,C   2,N   5)    174.2075         0.021249   
    131. D(C   2,N   6,C   1,H   4)    179.1187         0.032366   
    132. D(C   2,N   6,C   1,C   0)     -8.2301         0.032366   
    133. D(C   9,C   7,N   5,C   2)     89.7722         0.021244   
    134. D(C   9,C   7,N   5,C   0)    -93.9849         0.021244   
    135. D(C   8,C   7,N   5,C   2)    -91.9666         0.021244   
    136. D(C   8,C   7,N   5,C   0)     84.2764         0.021244   
    137. D(C  33,C   8,C   7,C   9)    169.3084         0.018322   
    138. D(C  33,C   8,C   7,N   5)     -8.9308         0.018322   
    139. D(C  10,C   8,C   7,C   9)      1.9731         0.018322   
    140. D(C  10,C   8,C   7,N   5)   -176.2661         0.018322   
    141. D(C  25,C   9,C   7,C   8)    168.6216         0.024528   
    142. D(C  25,C   9,C   7,N   5)    -12.9916         0.024528   
    143. D(C  11,C   9,C   7,C   8)     -4.9366         0.024528   
    144. D(C  11,C   9,C   7,N   5)    173.4502         0.024528   
    145. D(H  13,C  10,C   8,C   7)   -173.3950         0.031221   
    146. D(C  12,C  10,C   8,C  33)   -165.7772         0.031221   
    147. D(C  12,C  10,C   8,C   7)      2.9229         0.031221   
    148. D(H  13,C  10,C   8,C  33)     17.9049         0.031221   
    149. D(H  14,C  11,C   9,C  25)     10.7970         0.020120   
    150. D(H  14,C  11,C   9,C   7)   -175.5216         0.020120   
    151. D(C  12,C  11,C   9,C  25)   -170.5274         0.020120   
    152. D(C  12,C  11,C   9,C   7)      3.1540         0.020120   
    153. D(H  15,C  12,C  11,H  14)     -0.3777         0.023082   
    154. D(C  10,C  12,C  11,H  14)   -179.5001         0.023082   
    155. D(C  10,C  12,C  11,C   9)      1.8439         0.023082   
    156. D(H  15,C  12,C  10,H  13)     -7.5719         0.024013   
    157. D(C  11,C  12,C  10,H  13)    171.6227         0.024013   
    158. D(H  15,C  12,C  11,C   9)   -179.0337         0.023082   
    159. D(H  15,C  12,C  10,C   8)    175.9995         0.024013   
    160. D(C  11,C  12,C  10,C   8)     -4.8059         0.024013   
    161. D(C  18,C  16,N   6,C   2)    -63.4599         0.021719   
    162. D(C  18,C  16,N   6,C   1)    106.4260         0.021719   
    163. D(C  17,C  16,N   6,C   2)    118.1652         0.021719   
    164. D(C  17,C  16,N   6,C   1)    -71.9488         0.021719   
    165. D(C  37,C  17,C  16,C  18)    176.0048         0.017567   
    166. D(C  37,C  17,C  16,N   6)     -5.6592         0.017567   
    167. D(C  19,C  17,C  16,C  18)     -3.0284         0.017567   
    168. D(C  19,C  17,C  16,N   6)    175.3076         0.017567   
    169. D(C  29,C  18,C  16,C  17)   -174.2897         0.021745   
    170. D(C  29,C  18,C  16,N   6)      7.3438         0.021745   
    171. D(C  20,C  18,C  16,C  17)      9.5983         0.021745   
    172. D(C  20,C  18,C  16,N   6)   -168.7682         0.021745   
    173. D(H  22,C  19,C  17,C  37)     -9.2076         0.021746   
    174. D(H  22,C  19,C  17,C  16)    169.8866         0.021746   
    175. D(C  21,C  19,C  17,C  37)    178.0990         0.021746   
    176. D(C  21,C  19,C  17,C  16)     -2.8068         0.021746   
    177. D(H  23,C  20,C  18,C  16)    169.7130         0.029523   
    178. D(C  21,C  20,C  18,C  29)    174.2346         0.029523   
    179. D(C  21,C  20,C  18,C  16)     -9.6583         0.029523   
    180. D(H  23,C  20,C  18,C  29)     -6.3941         0.029523   
    181. D(H  24,C  21,C  20,H  23)      6.5554         0.021027   
    182. D(H  24,C  21,C  20,C  18)   -174.0431         0.021027   
    183. D(C  19,C  21,C  20,H  23)   -175.7730         0.021027   
    184. D(C  19,C  21,C  20,C  18)      3.6285         0.021027   
    185. D(H  24,C  21,C  19,H  22)      7.0522         0.016613   
    186. D(H  24,C  21,C  19,C  17)   -179.6673         0.016613   
    187. D(C  20,C  21,C  19,H  22)   -170.6691         0.016613   
    188. D(C  20,C  21,C  19,C  17)      2.6114         0.016613   
    189. D(H  28,C  25,C   9,C  11)      8.9248         0.012366   
    190. D(H  28,C  25,C   9,C   7)   -164.6126         0.012366   
    191. D(H  27,C  25,C   9,C  11)   -114.3384         0.012366   
    192. D(H  27,C  25,C   9,C   7)     72.1242         0.012366   
    193. D(H  26,C  25,C   9,C  11)    121.6924         0.012366   
    194. D(H  26,C  25,C   9,C   7)    -51.8450         0.012366   
    195. D(H  32,C  29,C  18,C  20)      1.4886         0.012740   
    196. D(H  32,C  29,C  18,C  16)   -174.6864         0.012740   
    197. D(H  31,C  29,C  18,C  20)   -116.0425         0.012740   
    198. D(H  31,C  29,C  18,C  16)     67.7826         0.012740   
    199. D(H  30,C  29,C  18,C  20)    122.8768         0.012740   
    200. D(H  30,C  29,C  18,C  16)    -53.2982         0.012740   
    201. D(H  36,C  33,C   8,C  10)   -109.4606         0.014118   
    202. D(H  36,C  33,C   8,C   7)     81.9399         0.014118   
    203. D(H  35,C  33,C   8,C  10)    139.3462         0.014118   
    204. D(H  35,C  33,C   8,C   7)    -29.2533         0.014118   
    205. D(H  34,C  33,C   8,C  10)      8.4386         0.014118   
    206. D(H  34,C  33,C   8,C   7)   -160.1609         0.014118   
    207. D(H  40,C  37,C  17,C  19)     12.2508         0.009459   
    208. D(H  40,C  37,C  17,C  16)   -166.7908         0.009459   
    209. D(H  39,C  37,C  17,C  19)   -105.6425         0.009459   
    210. D(H  39,C  37,C  17,C  16)     75.3160         0.009459   
    211. D(H  38,C  37,C  17,C  19)    135.8749         0.009459   
    212. D(H  38,C  37,C  17,C  16)    -43.1667         0.009459   
    -----------------------------------------------------------------

Number of atoms                         .... 41
Number of degrees of freedom            .... 212

         *************************************************************
         *                GEOMETRY OPTIMIZATION CYCLE   1            *
         *************************************************************
---------------------------------
CARTESIAN COORDINATES (ANGSTROEM)
---------------------------------
  C     -0.110190    0.723570   -1.670000
  C     -0.122160   -0.615400   -1.766570
  C     -0.079150   -0.049580    0.523370
  H     -0.035850    1.476060   -2.475290
  H     -0.194470   -1.286060   -2.593160
  N      0.004980    1.045510   -0.320020
  N     -0.207790   -1.021150   -0.474300
  C      0.119820    2.367170    0.161040
  C     -0.986010    3.255000    0.415820
  C      1.419130    2.852260    0.369830
  C     -0.826420    4.558110    0.813260
  C      1.598920    4.225450    0.719680
  C      0.481090    5.062490    0.917430
  H     -1.650350    5.173580    1.097460
  H      2.617240    4.623920    0.810540
  H      0.552760    6.136670    1.174240
  C     -0.212720   -2.391110   -0.148070
  C     -1.370230   -3.209230   -0.436370
  C      0.951280   -2.953980    0.434670
  C     -1.294570   -4.602730   -0.183940
  C      1.093400   -4.319320    0.563830
  C     -0.033130   -5.145170    0.294170
  H     -2.160570   -5.300440   -0.213100
  H      2.020190   -4.791890    0.849930
  H      0.019650   -6.209060    0.479470
  C      2.607250    1.927440    0.373500
  H      2.386320    1.107760    1.076470
  H      2.917300    1.517000   -0.582950
  H      3.427840    2.503950    0.828150
  C      2.082120   -2.052210    0.837520
  H      2.367900   -1.431380   -0.018460
  H      1.811740   -1.406900    1.676240
  H      2.942550   -2.640330    1.182950
  C     -2.391320    2.963820    0.026280
  H     -2.939180    3.893600    0.005130
  H     -2.546940    2.311270   -0.887790
  H     -2.724610    2.312140    0.853080
  C     -2.701930   -2.652980   -0.986510
  H     -3.028820   -1.712160   -0.493180
  H     -2.640510   -2.403250   -2.034920
  H     -3.493040   -3.430840   -0.894820

----------------------------
CARTESIAN COORDINATES (A.U.)
----------------------------
  NO LB      ZA    FRAG     MASS         X           Y           Z
   0 C     6.0000    0    12.011   -0.208229    1.367349   -3.155843
   1 C     6.0000    0    12.011   -0.230849   -1.162937   -3.338333
   2 C     6.0000    0    12.011   -0.149572   -0.093693    0.989026
   3 H     1.0000    0     1.008   -0.067747    2.789349   -4.677620
   4 H     1.0000    0     1.008   -0.367495   -2.430301   -4.900362
   5 N     7.0000    0    14.007    0.009411    1.975728   -0.604750
   6 N     7.0000    0    14.007   -0.392666   -1.929694   -0.896297
   7 C     6.0000    0    12.011    0.226427    4.473303    0.304321
   8 C     6.0000    0    12.011   -1.863289    6.151059    0.785786
   9 C     6.0000    0    12.011    2.681767    5.389990    0.698877
  10 C     6.0000    0    12.011   -1.561707    8.613580    1.536839
  11 C     6.0000    0    12.011    3.021521    7.984943    1.359998
  12 C     6.0000    0    12.011    0.909128    9.566720    1.733691
  13 H     1.0000    0     1.008   -3.118710    9.776649    2.073899
  14 H     1.0000    0     1.008    4.945867    8.737942    1.531699
  15 H     1.0000    0     1.008    1.044565   11.596626    2.218992
  16 C     6.0000    0    12.011   -0.401983   -4.518543   -0.279812
  17 C     6.0000    0    12.011   -2.589359   -6.064566   -0.824620
  18 C     6.0000    0    12.011    1.797659   -5.582213    0.821407
  19 C     6.0000    0    12.011   -2.446383   -8.697899   -0.347596
  20 C     6.0000    0    12.011    2.066227   -8.162332    1.065484
  21 C     6.0000    0    12.011   -0.062607   -9.722962    0.555901
  22 H     1.0000    0     1.008   -4.082886  -10.016380   -0.402701
  23 H     1.0000    0     1.008    3.817606   -9.055360    1.606135
  24 H     1.0000    0     1.008    0.037133  -11.733423    0.906067
  25 C     6.0000    0    12.011    4.926988    3.642334    0.705813
  26 H     1.0000    0     1.008    4.509491    2.093363    2.034233
  27 H     1.0000    0     1.008    5.512898    2.866715   -1.101616
  28 H     1.0000    0     1.008    6.477679    4.731780    1.564977
  29 C     6.0000    0    12.011    3.934637   -3.878115    1.582683
  30 H     1.0000    0     1.008    4.474683   -2.704916   -0.034884
  31 H     1.0000    0     1.008    3.423692   -2.658656    3.167635
  32 H     1.0000    0     1.008    5.560614   -4.989501    2.235452
  33 C     6.0000    0    12.011   -4.518940    5.600808    0.049662
  34 H     1.0000    0     1.008   -5.554245    7.357838    0.009694
  35 H     1.0000    0     1.008   -4.813019    4.367667   -1.677680
  36 H     1.0000    0     1.008   -5.148767    4.369311    1.612088
  37 C     6.0000    0    12.011   -5.105908   -5.013406   -1.864234
  38 H     1.0000    0     1.008   -5.723640   -3.235513   -0.931975
  39 H     1.0000    0     1.008   -4.989841   -4.541484   -3.845442
  40 H     1.0000    0     1.008   -6.600889   -6.483348   -1.690965

--------------------------------
INTERNAL COORDINATES (ANGSTROEM)
--------------------------------
 C      0   0   0     0.000000000000     0.00000000     0.00000000
 C      1   0   0     1.342501287411     0.00000000     0.00000000
 C      1   2   0     2.325853899324    74.71700977     0.00000000
 H      1   2   3     1.104653619828   128.87101393   174.52196218
 H      2   1   3     1.066894840085   133.10135226   176.08595457
 N      3   1   2     1.384776753524    33.23627317   173.19834311
 N      2   1   3     1.357176227430   103.31177653     4.52882866
 C      6   3   1     1.411166930168   122.54563269   176.58273335
 C      8   6   3     1.440838278989   125.09460141   268.03343572
 C      8   6   3     1.402537717247   116.74791913    89.77215092
 C      9   8   6     1.371686259244   123.18366810   183.73386856
 C     10   8   6     1.428415290698   119.04900144   173.45019434
 C     11   9   8     1.405287505602   118.07980407     2.92294871
 H     11   9   8     1.066974041765   122.36640544   186.60497483
 H     12  10   8     1.097273668189   119.09089312   184.47840433
 H     13  11   9     1.106774881085   115.20105037   175.99951823
 C      7   2   1     1.408275796639   120.77223000   181.59232812
 C     17   7   2     1.446466945526   120.45359318   288.05116284
 C     17   7   2     1.418204690621   118.58116754   106.42599604
 C     18  17   7     1.418198713333   118.52748437   175.30760449
 C     19  17   7     1.378779792280   121.07188156   191.23177809
 C     21  19  17     1.422608371619   118.39052641   350.34172973
 H     20  18  17     1.112477213115   124.75374526   169.88656301
 H     21  19  17     1.078941758854   123.16866472   169.71297666
 H     22  21  19     1.081195519090   120.00552334   185.95689914
 C     10   8   6     1.505634296800   121.26216948   347.00842145
 H     26  10   8     1.102203333419   107.46811608   308.15498607
 H     26  10   8     1.085996592352   117.08354104    72.12419233
 H     26  10   8     1.101107783416   105.51487189   195.38738325
 C     19  17   7     1.501424777003   119.34381454     7.34378086
 H     30  19  17     1.095354672104   109.10168238   306.70178656
 H     30  19  17     1.092236960966   111.98949912    67.78255159
 H     30  19  17     1.097973954245   110.66671122   185.31358686
 C      9   8   6     1.487085538932   123.93919110   351.06915408
 H     34   9   8     1.079392769338   108.42839322   199.83908381
 H     34   9   8     1.133826729179   116.97324962   330.74668152
 H     34   9   8     1.104249648630   101.80907228    81.93994412
 C     18  17   7     1.544504118512   123.86719947   354.34082415
 H     38  18  17     1.111473721417   113.59928977   316.83333280
 H     38  18  17     1.079491091858   112.34578609    75.31595854
 H     38  18  17     1.113251215045   109.37418997   193.20922287

---------------------------
INTERNAL COORDINATES (A.U.)
---------------------------
 C      0   0   0     0.000000000000     0.00000000     0.00000000
 C      1   0   0     2.536959767643     0.00000000     0.00000000
 C      1   2   0     4.395226897235    74.71700977     0.00000000
 H      1   2   3     2.087492814320   128.87101393   174.52196218
 H      2   1   3     2.016139061454   133.10135226   176.08595457
 N      3   1   2     2.616848820781    33.23627317   173.19834311
 N      2   1   3     2.564691385310   103.31177653     4.52882866
 C      6   3   1     2.666719027264   122.54563269   176.58273335
 C      8   6   3     2.722789750560   125.09460141   268.03343572
 C      8   6   3     2.650412178092   116.74791913    89.77215092
 C      9   8   6     2.592111371635   123.18366810   183.73386856
 C     10   8   6     2.699313704925   119.04900144   173.45019434
 C     11   9   8     2.655608525008   118.07980407     2.92294871
 H     11   9   8     2.016288730939   122.36640544   186.60497483
 H     12  10   8     2.073546726840   119.09089312   184.47840433
 H     13  11   9     2.091501417153   115.20105037   175.99951823
 C      7   2   1     2.661255576678   120.77223000   181.59232812
 C     17   7   2     2.733426388814   120.45359318   288.05116284
 C     17   7   2     2.680018467117   118.58116754   106.42599604
 C     18  17   7     2.680007171679   118.52748437   175.30760449
 C     19  17   7     2.605516206394   121.07188156   191.23177809
 C     21  19  17     2.688340218183   118.39052641   350.34172973
 H     20  18  17     2.102277263015   124.75374526   169.88656301
 H     21  19  17     2.038904438686   123.16866472   169.71297666
 H     22  21  19     2.043163428303   120.00552334   185.95689914
 C     10   8   6     2.845236478791   121.26216948   347.00842145
 H     26  10   8     2.082862444057   107.46811608   308.15498607
 H     26  10   8     2.052236141917   117.08354104    72.12419233
 H     26  10   8     2.080792154586   105.51487189   195.38738325
 C     19  17   7     2.837281639220   119.34381454     7.34378086
 H     30  19  17     2.069920349788   109.10168238   306.70178656
 H     30  19  17     2.064028729572   111.98949912    67.78255159
 H     30  19  17     2.074870075701   110.66671122   185.31358686
 C      9   8   6     2.810184406296   123.93919110   351.06915408
 H     34   9   8     2.039756724984   108.42839322   199.83908381
 H     34   9   8     2.142622001467   116.97324962   330.74668152
 H     34   9   8     2.086729419390   101.80907228    81.93994412
 C     18  17   7     2.918689796701   123.86719947   354.34082415
 H     38  18  17     2.100380938528   113.59928977   316.83333280
 H     38  18  17     2.039942527619   112.34578609    75.31595854
 H     38  18  17     2.103739914691   109.37418997   193.20922287

---------------------
BASIS SET INFORMATION
---------------------
There are 3 groups of distinct atoms

 Group   1 Type C   : 7s4p1d contracted to 3s2p1d pattern {511/31/1}
 Group   2 Type H   : 4s1p contracted to 2s1p pattern {31/1}
 Group   3 Type N   : 7s4p1d contracted to 3s2p1d pattern {511/31/1}

Atom   0C    basis set group =>   1
Atom   1C    basis set group =>   1
Atom   2C    basis set group =>   1
Atom   3H    basis set group =>   2
Atom   4H    basis set group =>   2
Atom   5N    basis set group =>   3
Atom   6N    basis set group =>   3
Atom   7C    basis set group =>   1
Atom   8C    basis set group =>   1
Atom   9C    basis set group =>   1
Atom  10C    basis set group =>   1
Atom  11C    basis set group =>   1
Atom  12C    basis set group =>   1
Atom  13H    basis set group =>   2
Atom  14H    basis set group =>   2
Atom  15H    basis set group =>   2
Atom  16C    basis set group =>   1
Atom  17C    basis set group =>   1
Atom  18C    basis set group =>   1
Atom  19C    basis set group =>   1
Atom  20C    basis set group =>   1
Atom  21C    basis set group =>   1
Atom  22H    basis set group =>   2
Atom  23H    basis set group =>   2
Atom  24H    basis set group =>   2
Atom  25C    basis set group =>   1
Atom  26H    basis set group =>   2
Atom  27H    basis set group =>   2
Atom  28H    basis set group =>   2
Atom  29C    basis set group =>   1
Atom  30H    basis set group =>   2
Atom  31H    basis set group =>   2
Atom  32H    basis set group =>   2
Atom  33C    basis set group =>   1
Atom  34H    basis set group =>   2
Atom  35H    basis set group =>   2
Atom  36H    basis set group =>   2
Atom  37C    basis set group =>   1
Atom  38H    basis set group =>   2
Atom  39H    basis set group =>   2
Atom  40H    basis set group =>   2
---------------------------------
AUXILIARY/J BASIS SET INFORMATION
---------------------------------
There are 3 groups of distinct atoms

 Group   1 Type C   : 12s5p4d2f1g contracted to 6s4p3d1f1g pattern {711111/2111/211/2/1}
 Group   2 Type H   : 5s2p1d contracted to 3s1p1d pattern {311/2/1}
 Group   3 Type N   : 12s5p4d2f1g contracted to 6s4p3d1f1g pattern {711111/2111/211/2/1}

Atom   0C    basis set group =>   1
Atom   1C    basis set group =>   1
Atom   2C    basis set group =>   1
Atom   3H    basis set group =>   2
Atom   4H    basis set group =>   2
Atom   5N    basis set group =>   3
Atom   6N    basis set group =>   3
Atom   7C    basis set group =>   1
Atom   8C    basis set group =>   1
Atom   9C    basis set group =>   1
Atom  10C    basis set group =>   1
Atom  11C    basis set group =>   1
Atom  12C    basis set group =>   1
Atom  13H    basis set group =>   2
Atom  14H    basis set group =>   2
Atom  15H    basis set group =>   2
Atom  16C    basis set group =>   1
Atom  17C    basis set group =>   1
Atom  18C    basis set group =>   1
Atom  19C    basis set group =>   1
Atom  20C    basis set group =>   1
Atom  21C    basis set group =>   1
Atom  22H    basis set group =>   2
Atom  23H    basis set group =>   2
Atom  24H    basis set group =>   2
Atom  25C    basis set group =>   1
Atom  26H    basis set group =>   2
Atom  27H    basis set group =>   2
Atom  28H    basis set group =>   2
Atom  29C    basis set group =>   1
Atom  30H    basis set group =>   2
Atom  31H    basis set group =>   2
Atom  32H    basis set group =>   2
Atom  33C    basis set group =>   1
Atom  34H    basis set group =>   2
Atom  35H    basis set group =>   2
Atom  36H    basis set group =>   2
Atom  37C    basis set group =>   1
Atom  38H    basis set group =>   2
Atom  39H    basis set group =>   2
Atom  40H    basis set group =>   2


           ************************************************************
           *        Program running with 8 parallel MPI-processes     *
           *              working on a common directory               *
           ************************************************************
------------------------------------------------------------------------------
                           ORCA GTO INTEGRAL CALCULATION
                           -- RI-GTO INTEGRALS CHOSEN --
------------------------------------------------------------------------------
------------------------------------------------------------------------------
                   ___                                                        
                  /   \      - P O W E R E D   B Y -                         
                 /     \                                                     
                 |  |  |   _    _      __       _____    __    __             
                 |  |  |  | |  | |    /  \     |  _  \  |  |  /  |          
                  \  \/   | |  | |   /    \    | | | |  |  | /  /          
                 / \  \   | |__| |  /  /\  \   | |_| |  |  |/  /          
                |  |  |   |  __  | /  /__\  \  |    /   |      \           
                |  |  |   | |  | | |   __   |  |    \   |  |\   \          
                \     /   | |  | | |  |  |  |  | |\  \  |  | \   \       
                 \___/    |_|  |_| |__|  |__|  |_| \__\ |__|  \__/        
                                                                              
                      - O R C A' S   B I G   F R I E N D -                    
                                      &                                       
                       - I N T E G R A L  F E E D E R -                       
                                                                              
 v1 FN, 2020, v2 2021                                                         
------------------------------------------------------------------------------


Reading SHARK input file Min_291.SHARKINP.tmp ... ok
----------------------
SHARK INTEGRAL PACKAGE
----------------------

Number of atoms                             ...     41
Number of basis functions                   ...    394
Number of shells                            ...    186
Maximum angular momentum                    ...      2
Integral batch strategy                     ... SHARK/LIBINT Hybrid
RI-J (if used) integral strategy            ... SPLIT-RIJ (Revised 2003 algorithm where possible)
Printlevel                                  ...      1
Contraction scheme used                     ... SEGMENTED contraction
Coulomb Range Separation                    ... NOT USED
Exchange Range Separation                   ... Long Range
   Mu parameter                             ...  0.300000
   Scaling (regular/separated)              ...  0.157706  0.842294
Finite Nucleus Model                        ... NOT USED
Auxiliary Coulomb fitting basis             ... AVAILABLE
   # of basis functions in Aux-J            ...   1249
   # of shells in Aux-J                     ...    415
   Maximum angular momentum in Aux-J        ...      4
Auxiliary J/K fitting basis                 ... NOT available
Auxiliary Correlation fitting basis         ... NOT available
Auxiliary 'external' fitting basis          ... NOT available
Integral threshold                          ...     2.500000e-11
Primitive cut-off                           ...     2.500000e-12
Primitive pair pre-selection threshold      ...     2.500000e-12

Calculating pre-screening integrals         ... done (  0.1 sec) Dimension = 186
Organizing shell pair data                  ... done (  0.1 sec)
Shell pair information
Total number of shell pairs                 ...     17391
Shell pairs after pre-screening             ...     13060
Total number of primitive shell pairs       ...     62461
Primitive shell pairs kept                  ...     30116
          la=0 lb=0:   4140 shell pairs
          la=1 lb=0:   4863 shell pairs
          la=1 lb=1:   1469 shell pairs
          la=2 lb=0:   1522 shell pairs
          la=2 lb=1:    916 shell pairs
          la=2 lb=2:    150 shell pairs

Calculating one electron integrals          ... done (  0.0 sec)
Calculating RI/J V-Matrix + Cholesky decomp.... done (  0.3 sec)
Calculating Nuclear repulsion               ... done (  0.0 sec) ENN=   1584.474302943499 Eh

SHARK setup successfully completed in   0.8 seconds

Maximum memory used throughout the entire GTOINT-calculation: 22.2 MB


           ************************************************************
           *        Program running with 8 parallel MPI-processes     *
           *              working on a common directory               *
           ************************************************************
-------------------------------------------------------------------------------
                                 ORCA SCF
-------------------------------------------------------------------------------

------------
SCF SETTINGS
------------
Hamiltonian:
 Density Functional     Method          .... DFT(GTOs)
 Exchange Functional    Exchange        .... WB97X
 Correlation Functional Correlation     .... WB97X
 Gradients option       PostSCFGGA      .... off
 Hybrid DFT is turned on
   Fraction HF Exchange ScalHFX         ....  0.157706
   Scaling of DF-GGA-X  ScalDFX         ....  0.000000
   Scaling of DF-GGA-C  ScalDFC         ....  1.000000
   Scaling of DF-LDA-C  ScalLDAC        ....  1.000000
   Perturbative correction              ....  0.000000
   Density functional embedding theory  .... OFF
 Long-range corrected/Screened/Range-Separated Hybrid DFT is turned on
   Amount of maximum screened exact exchange              ....  0.842294
   Range separation parameter mu (erf(mu*r12)/r12)        ....  0.300000
 RI-approximation to the Coulomb term is turned on
   Number of AuxJ basis functions       .... 1249
   RIJ-COSX (HFX calculated with COS-X)).... on


General Settings:
 Integral files         IntName         .... Min_291
 Hartree-Fock type      HFTyp           .... RHF
 Total Charge           Charge          ....    0
 Multiplicity           Mult            ....    1
 Number of Electrons    NEL             ....  148
 Basis Dimension        Dim             ....  394
 Nuclear Repulsion      ENuc            ....   1584.4743029435 Eh

Convergence Acceleration:
 DIIS                   CNVDIIS         .... on
   Start iteration      DIISMaxIt       ....     0
   Startup error        DIISStart       ....  0.200000
   # of expansion vecs  DIISMaxEq       ....     5
   Bias factor          DIISBfac        ....   1.050
   Max. coefficient     DIISMaxC        ....  10.000
 Trust-Rad. Augm. Hess. CNVTRAH         .... auto
   Auto Start mean grad. ratio tolernc. ....  1.125000
   Auto Start start iteration           ....    20
   Auto Start num. interpolation iter.  ....    10
   Max. Number of Micro iterations      ....    16
   Max. Number of Macro iterations      .... Maxiter - #DIIS iter
   Number of Davidson start vectors     ....     2
   Converg. threshold I  (grad. norm)   ....   1.000e-05
   Converg. threshold II (energy diff.) ....   1.000e-08
   Grad. Scal. Fac. for Micro threshold ....   0.100
   Minimum threshold for Micro iter.    ....   0.010
   NR start threshold (gradient norm)   ....   0.001
   Initial trust radius                 ....   0.400
   Minimum AH scaling param. (alpha)    ....   1.000
   Maximum AH scaling param. (alpha)    .... 1000.000
   Orbital update algorithm             .... Taylor
   White noise on init. David. guess    .... on
   Maximum white noise                  ....   0.010
   Quad. conv. algorithm                .... NR
 SOSCF                  CNVSOSCF        .... on
   Start iteration      SOSCFMaxIt      ....   150
   Startup grad/error   SOSCFStart      ....  0.001000
 Level Shifting         CNVShift        .... on
   Level shift para.    LevelShift      ....    0.2500
   Turn off err/grad.   ShiftErr        ....    0.0000
 Zerner damping         CNVZerner       .... off
 Static damping         CNVDamp         .... on
   Fraction old density DampFac         ....    0.8500
   Max. Damping (<1)    DampMax         ....    0.9800
   Min. Damping (>=0)   DampMin         ....    0.0000
   Turn off err/grad.   DampErr         ....    0.0300
 Fernandez-Rico         CNVRico         .... off

SCF Procedure:
 Maximum # iterations   MaxIter         .... 20000
 SCF integral mode      SCFMode         .... Direct
   Integral package                     .... SHARK and LIBINT hybrid scheme
 Reset frequency        DirectResetFreq ....    20
 Integral Threshold     Thresh          ....  2.500e-11 Eh
 Primitive CutOff       TCut            ....  2.500e-12 Eh

Convergence Tolerance:
 Convergence Check Mode ConvCheckMode   .... Total+1el-Energy
 Convergence forced     ConvForced      .... 0
 Energy Change          TolE            ....  1.000e-08 Eh
 1-El. energy change                    ....  1.000e-05 Eh
 Orbital Gradient       TolG            ....  1.000e-05
 Orbital Rotation angle TolX            ....  1.000e-05
 DIIS Error             TolErr          ....  5.000e-07


Diagonalization of the overlap matrix:
Smallest eigenvalue                        ... 2.273e-04
Time for diagonalization                   ...    0.029 sec
Threshold for overlap eigenvalues          ... 1.000e-08
Number of eigenvalues below threshold      ... 0
Time for construction of square roots      ...    0.094 sec
Total time needed                          ...    0.124 sec

Time for model grid setup =    0.554 sec

------------------------------
INITIAL GUESS: MODEL POTENTIAL
------------------------------
Loading Hartree-Fock densities                     ... done
Calculating cut-offs                               ... done
Initializing the effective Hamiltonian             ... done
Setting up the integral package (SHARK)            ... done
Starting the Coulomb interaction                   ... done (   0.3 sec)
Reading the grid                                   ... done
Mapping shells                                     ... done
Starting the XC term evaluation                    ... done (   0.2 sec)
  promolecular density results
     # of electrons  =    147.986930314
     EX              =   -116.123537269
     EC              =     -4.925291365
     EX+EC           =   -121.048828635
Transforming the Hamiltonian                       ... done (   0.0 sec)
Diagonalizing the Hamiltonian                      ... done (   0.0 sec)
Back transforming the eigenvectors                 ... done (   0.0 sec)
Now organizing SCF variables                       ... done
                      ------------------
                      INITIAL GUESS DONE (   1.1 sec)
                      ------------------
-------------------
DFT GRID GENERATION
-------------------

General Integration Accuracy     IntAcc      ... 4.388
Radial Grid Type                 RadialGrid  ... OptM3 with GC (2021)
Angular Grid (max. ang.)         AngularGrid ... 4 (Lebedev-302)
Angular grid pruning method      GridPruning ... 4 (adaptive)
Weight generation scheme         WeightScheme... Becke
Basis function cutoff            BFCut       ... 1.0000e-11
Integration weight cutoff        WCut        ... 1.0000e-14
Angular grids for H and He will be reduced by one unit
Partially contracted basis set               ... off
Rotationally invariant grid construction     ... off

Total number of grid points                  ...   188790
Total number of batches                      ...     2968
Average number of points per batch           ...       63
Average number of grid points per atom       ...     4605
Time for grid setup =    1.302 sec

--------------------
COSX GRID GENERATION
--------------------

GRIDX 1
-------
General Integration Accuracy     IntAcc      ... 3.816
Radial Grid Type                 RadialGrid  ... OptM3 with GC (2021)
Angular Grid (max. ang.)         AngularGrid ... 1 (Lebedev-50)
Angular grid pruning method      GridPruning ... 4 (adaptive)
Weight generation scheme         WeightScheme... Becke
Basis function cutoff            BFCut       ... 1.0000e-11
Integration weight cutoff        WCut        ... 1.0000e-14
Angular grids for H and He will be reduced by one unit
Partially contracted basis set               ... on
Rotationally invariant grid construction     ... off

Total number of grid points                  ...    24042
Total number of batches                      ...      392
Average number of points per batch           ...       61
Average number of grid points per atom       ...      586
UseSFitting                                  ... on

GRIDX 2
-------
General Integration Accuracy     IntAcc      ... 4.020
Radial Grid Type                 RadialGrid  ... OptM3 with GC (2021)
Angular Grid (max. ang.)         AngularGrid ... 2 (Lebedev-110)
Angular grid pruning method      GridPruning ... 4 (adaptive)
Weight generation scheme         WeightScheme... Becke
Basis function cutoff            BFCut       ... 1.0000e-11
Integration weight cutoff        WCut        ... 1.0000e-14
Angular grids for H and He will be reduced by one unit
Partially contracted basis set               ... on
Rotationally invariant grid construction     ... off

Total number of grid points                  ...    51435
Total number of batches                      ...      824
Average number of points per batch           ...       62
Average number of grid points per atom       ...     1255
UseSFitting                                  ... on

GRIDX 3
-------
General Integration Accuracy     IntAcc      ... 4.338
Radial Grid Type                 RadialGrid  ... OptM3 with GC (2021)
Angular Grid (max. ang.)         AngularGrid ... 3 (Lebedev-194)
Angular grid pruning method      GridPruning ... 4 (adaptive)
Weight generation scheme         WeightScheme... Becke
Basis function cutoff            BFCut       ... 1.0000e-11
Integration weight cutoff        WCut        ... 1.0000e-14
Angular grids for H and He will be reduced by one unit
Partially contracted basis set               ... on
Rotationally invariant grid construction     ... off

Total number of grid points                  ...   112227
Total number of batches                      ...     1778
Average number of points per batch           ...       63
Average number of grid points per atom       ...     2737
UseSFitting                                  ... on

Time for X-Grid setup             =    1.552 sec

--------------
SCF ITERATIONS
--------------
ITER       Energy         Delta-E        Max-DP      RMS-DP      [F,P]     Damp
               ***  Starting incremental Fock matrix formation  ***
  0   -844.2872564543   0.000000000000 0.03229273  0.00063048  0.1531824 0.8500
  1   -844.3642971680  -0.077040713712 0.02944761  0.00059477  0.1241493 0.8500
                               ***Turning on DIIS***
  2   -844.4237786313  -0.059481463297 0.02603559  0.00049289  0.0960811 0.8500
  3   -844.4684732701  -0.044694638821 0.02197059  0.00037080  0.0734894 0.8500
  4   -844.5031939882  -0.034720718031 0.01849137  0.00029362  0.0587632 0.8500
  5   -844.5306717091  -0.027477720975 0.01562836  0.00024373  0.0486648 0.8500
  6   -844.5530414923  -0.022369783180 0.01327442  0.00020630  0.0409570 0.8500
  7   -844.5715589124  -0.018517420024 0.01132821  0.00017700  0.0346999 0.8500
  8   -844.5870423029  -0.015483390514 0.06495419  0.00101245  0.0293648 0.0000
  9   -844.6704116040  -0.083369301141 0.00137588  0.00002992  0.0012333 0.0000
                      *** Initiating the SOSCF procedure ***
                           *** Shutting down DIIS ***
                      *** Re-Reading the Fockian *** 
                      *** Removing any level shift *** 
ITER      Energy       Delta-E        Grad      Rot      Max-DP    RMS-DP
 10   -844.67044723  -0.0000356233  0.000393  0.000393  0.000617  0.000015
               *** Restarting incremental Fock matrix formation ***
 11   -844.67047186  -0.0000246291  0.000278  0.000636  0.000527  0.000014
 12   -844.67047434  -0.0000024819  0.000111  0.000512  0.000383  0.000011
 13   -844.67047504  -0.0000007046  0.000049  0.000084  0.000177  0.000005
 14   -844.67047520  -0.0000001573  0.000015  0.000042  0.000064  0.000002
 15   -844.67047522  -0.0000000232  0.000012  0.000026  0.000030  0.000001
 16   -844.67047522   0.0000000036  0.000003  0.000007  0.000010  0.000000
                  ***Gradient check signals convergence***
              ***Rediagonalizing the Fockian in SOSCF/NRSCF***

               *****************************************************
               *                     SUCCESS                       *
               *           SCF CONVERGED AFTER  17 CYCLES          *
               *****************************************************

Old exchange energy                            =    -38.126824406 Eh
New exchange energy                            =    -38.126852744 Eh
Exchange energy change after final integration =     -0.000028338 Eh
Total energy after final integration           =   -844.670503577 Eh
Final COS-X integration done in                =    23.357 sec

----------------
TOTAL SCF ENERGY
----------------

Total Energy       :         -844.67050358 Eh          -22984.65292 eV

Components:
Nuclear Repulsion  :         1584.47430294 Eh           43115.73774 eV
Electronic Energy  :        -2429.14480652 Eh          -66100.39066 eV
One Electron Energy:        -4287.69332031 Eh         -116674.06684 eV
Two Electron Energy:         1858.54851379 Eh           50573.67618 eV
Max COSX asymmetry :            0.00000258 Eh               0.00007 eV

Virial components:
Potential Energy   :        -1679.19565625 Eh          -45693.23681 eV
Kinetic Energy     :          834.52515267 Eh           22708.58389 eV
Virial Ratio       :            2.01215703


DFT components:
N(Alpha)           :       74.000014878110 electrons
N(Beta)            :       74.000014878110 electrons
N(Total)           :      148.000029756220 electrons
E(XC)              :      -85.787142406368 Eh       
DFET-embed. en.    :        0.000000000000 Eh       

---------------
SCF CONVERGENCE
---------------

  Last Energy change         ...   -1.8521e-08  Tolerance :   1.0000e-08
  Last MAX-Density change    ...    3.9968e-15  Tolerance :   1.0000e-07
  Last RMS-Density change    ...    3.8400e-17  Tolerance :   5.0000e-09
  Last Orbital Gradient      ...    8.8126e-07  Tolerance :   1.0000e-05
  Last Orbital Rotation      ...    1.7100e-06  Tolerance :   1.0000e-05

             **** THE GBW FILE WAS UPDATED (Min_291.gbw) ****
             **** DENSITY Min_291.scfp WAS UPDATED ****
             **** ENERGY FILE WAS UPDATED (Min_291.en.tmp) ****
             **** THE GBW FILE WAS UPDATED (Min_291.gbw) ****
             **** DENSITY Min_291.scfp WAS UPDATED ****
----------------
ORBITAL ENERGIES
----------------

  NO   OCC          E(Eh)            E(eV) 
   0   2.0000     -14.458036      -393.4231 
   1   2.0000     -14.452953      -393.2848 
   2   2.0000     -10.310196      -280.5547 
   3   2.0000     -10.309302      -280.5304 
   4   2.0000     -10.304022      -280.3867 
   5   2.0000     -10.301722      -280.3241 
   6   2.0000     -10.296128      -280.1719 
   7   2.0000     -10.288818      -279.9730 
   8   2.0000     -10.287283      -279.9312 
   9   2.0000     -10.285258      -279.8761 
  10   2.0000     -10.282454      -279.7998 
  11   2.0000     -10.281573      -279.7758 
  12   2.0000     -10.280385      -279.7435 
  13   2.0000     -10.280075      -279.7351 
  14   2.0000     -10.276867      -279.6478 
  15   2.0000     -10.276252      -279.6310 
  16   2.0000     -10.271868      -279.5117 
  17   2.0000     -10.269127      -279.4371 
  18   2.0000     -10.267096      -279.3819 
  19   2.0000     -10.266881      -279.3760 
  20   2.0000     -10.259229      -279.1678 
  21   2.0000      -1.159662       -31.5560 
  22   2.0000      -1.058514       -28.8036 
  23   2.0000      -0.987664       -26.8757 
  24   2.0000      -0.967279       -26.3210 
  25   2.0000      -0.916202       -24.9311 
  26   2.0000      -0.906902       -24.6781 
  27   2.0000      -0.901407       -24.5285 
  28   2.0000      -0.871142       -23.7050 
  29   2.0000      -0.860353       -23.4114 
  30   2.0000      -0.832378       -22.6502 
  31   2.0000      -0.807458       -21.9721 
  32   2.0000      -0.795291       -21.6410 
  33   2.0000      -0.794820       -21.6282 
  34   2.0000      -0.756192       -20.5770 
  35   2.0000      -0.736324       -20.0364 
  36   2.0000      -0.693520       -18.8716 
  37   2.0000      -0.691721       -18.8227 
  38   2.0000      -0.688782       -18.7427 
  39   2.0000      -0.679853       -18.4997 
  40   2.0000      -0.654242       -17.8028 
  41   2.0000      -0.611425       -16.6377 
  42   2.0000      -0.608613       -16.5612 
  43   2.0000      -0.593240       -16.1429 
  44   2.0000      -0.587433       -15.9849 
  45   2.0000      -0.561779       -15.2868 
  46   2.0000      -0.560576       -15.2540 
  47   2.0000      -0.548036       -14.9128 
  48   2.0000      -0.541151       -14.7255 
  49   2.0000      -0.532875       -14.5003 
  50   2.0000      -0.530840       -14.4449 
  51   2.0000      -0.526451       -14.3255 
  52   2.0000      -0.524609       -14.2753 
  53   2.0000      -0.520908       -14.1746 
  54   2.0000      -0.517315       -14.0769 
  55   2.0000      -0.512410       -13.9434 
  56   2.0000      -0.509739       -13.8707 
  57   2.0000      -0.506874       -13.7927 
  58   2.0000      -0.503308       -13.6957 
  59   2.0000      -0.476543       -12.9674 
  60   2.0000      -0.472546       -12.8586 
  61   2.0000      -0.461767       -12.5653 
  62   2.0000      -0.454572       -12.3695 
  63   2.0000      -0.449666       -12.2360 
  64   2.0000      -0.443048       -12.0559 
  65   2.0000      -0.438497       -11.9321 
  66   2.0000      -0.431573       -11.7437 
  67   2.0000      -0.392213       -10.6727 
  68   2.0000      -0.341451        -9.2914 
  69   2.0000      -0.334468        -9.1013 
  70   2.0000      -0.332338        -9.0434 
  71   2.0000      -0.328364        -8.9353 
  72   2.0000      -0.326469        -8.8837 
  73   2.0000      -0.319147        -8.6844 
  74   0.0000       0.058818         1.6005 
  75   0.0000       0.066628         1.8130 
  76   0.0000       0.072909         1.9839 
  77   0.0000       0.074805         2.0356 
  78   0.0000       0.110832         3.0159 
  79   0.0000       0.118592         3.2270 
  80   0.0000       0.143468         3.9040 
  81   0.0000       0.157969         4.2986 
  82   0.0000       0.161309         4.3894 
  83   0.0000       0.168120         4.5748 
  84   0.0000       0.175757         4.7826 
  85   0.0000       0.183567         4.9951 
  86   0.0000       0.187972         5.1150 
  87   0.0000       0.195327         5.3151 
  88   0.0000       0.200062         5.4440 
  89   0.0000       0.204305         5.5594 
  90   0.0000       0.219263         5.9665 
  91   0.0000       0.223027         6.0689 
  92   0.0000       0.229682         6.2500 
  93   0.0000       0.235831         6.4173 
  94   0.0000       0.238198         6.4817 
  95   0.0000       0.240501         6.5444 
  96   0.0000       0.247340         6.7305 
  97   0.0000       0.253881         6.9085 
  98   0.0000       0.259343         7.0571 
  99   0.0000       0.264712         7.2032 
 100   0.0000       0.266869         7.2619 
 101   0.0000       0.283570         7.7163 
 102   0.0000       0.289509         7.8779 
 103   0.0000       0.299964         8.1624 
 104   0.0000       0.304685         8.2909 
 105   0.0000       0.308460         8.3936 
 106   0.0000       0.331573         9.0226 
 107   0.0000       0.344763         9.3815 
 108   0.0000       0.349450         9.5090 
 109   0.0000       0.356108         9.6902 
 110   0.0000       0.375700        10.2233 
 111   0.0000       0.394314        10.7298 
 112   0.0000       0.401400        10.9226 
 113   0.0000       0.403263        10.9734 
 114   0.0000       0.413231        11.2446 
 115   0.0000       0.418814        11.3965 
 116   0.0000       0.428212        11.6522 
 117   0.0000       0.429448        11.6859 
 118   0.0000       0.441494        12.0137 
 119   0.0000       0.446411        12.1475 
 120   0.0000       0.450184        12.2501 
 121   0.0000       0.459295        12.4980 
 122   0.0000       0.464402        12.6370 
 123   0.0000       0.489318        13.3150 
 124   0.0000       0.493945        13.4409 
 125   0.0000       0.506967        13.7953 
 126   0.0000       0.508236        13.8298 
 127   0.0000       0.514470        13.9994 
 128   0.0000       0.520947        14.1757 
 129   0.0000       0.524031        14.2596 
 130   0.0000       0.530941        14.4476 
 131   0.0000       0.544314        14.8115 
 132   0.0000       0.551210        14.9992 
 133   0.0000       0.553419        15.0593 
 134   0.0000       0.557334        15.1658 
 135   0.0000       0.559994        15.2382 
 136   0.0000       0.565026        15.3752 
 137   0.0000       0.585797        15.9403 
 138   0.0000       0.592871        16.1328 
 139   0.0000       0.595308        16.1992 
 140   0.0000       0.602406        16.3923 
 141   0.0000       0.606548        16.5050 
 142   0.0000       0.608698        16.5635 
 143   0.0000       0.610468        16.6117 
 144   0.0000       0.624695        16.9988 
 145   0.0000       0.632776        17.2187 
 146   0.0000       0.644285        17.5319 
 147   0.0000       0.645638        17.5687 
 148   0.0000       0.661002        17.9868 
 149   0.0000       0.662702        18.0331 
 150   0.0000       0.681337        18.5401 
 151   0.0000       0.691034        18.8040 
 152   0.0000       0.695097        18.9145 
 153   0.0000       0.703891        19.1538 
 154   0.0000       0.707352        19.2480 
 155   0.0000       0.715096        19.4588 
 156   0.0000       0.717501        19.5242 
 157   0.0000       0.723188        19.6790 
 158   0.0000       0.727448        19.7949 
 159   0.0000       0.731627        19.9086 
 160   0.0000       0.740318        20.1451 
 161   0.0000       0.746143        20.3036 
 162   0.0000       0.754923        20.5425 
 163   0.0000       0.758020        20.6268 
 164   0.0000       0.758186        20.6313 
 165   0.0000       0.763430        20.7740 
 166   0.0000       0.764777        20.8107 
 167   0.0000       0.769845        20.9486 
 168   0.0000       0.770430        20.9645 
 169   0.0000       0.773414        21.0457 
 170   0.0000       0.775736        21.1089 
 171   0.0000       0.783820        21.3288 
 172   0.0000       0.787828        21.4379 
 173   0.0000       0.793578        21.5944 
 174   0.0000       0.798671        21.7329 
 175   0.0000       0.801573        21.8119 
 176   0.0000       0.804627        21.8950 
 177   0.0000       0.809653        22.0318 
 178   0.0000       0.813380        22.1332 
 179   0.0000       0.821345        22.3499 
 180   0.0000       0.823687        22.4137 
 181   0.0000       0.827084        22.5061 
 182   0.0000       0.831717        22.6322 
 183   0.0000       0.838744        22.8234 
 184   0.0000       0.847310        23.0565 
 185   0.0000       0.854128        23.2420 
 186   0.0000       0.859640        23.3920 
 187   0.0000       0.865058        23.5394 
 188   0.0000       0.871434        23.7129 
 189   0.0000       0.880422        23.9575 
 190   0.0000       0.886329        24.1182 
 191   0.0000       0.892921        24.2976 
 192   0.0000       0.901133        24.5211 
 193   0.0000       0.909492        24.7485 
 194   0.0000       0.913976        24.8706 
 195   0.0000       0.919013        25.0076 
 196   0.0000       0.923618        25.1329 
 197   0.0000       0.929418        25.2907 
 198   0.0000       0.941244        25.6126 
 199   0.0000       0.952422        25.9167 
 200   0.0000       0.967420        26.3248 
 201   0.0000       0.972345        26.4589 
 202   0.0000       0.994666        27.0662 
 203   0.0000       1.019132        27.7320 
 204   0.0000       1.029946        28.0263 
 205   0.0000       1.041264        28.3342 
 206   0.0000       1.045495        28.4494 
 207   0.0000       1.062996        28.9256 
 208   0.0000       1.109868        30.2010 
 209   0.0000       1.114102        30.3163 
 210   0.0000       1.135288        30.8928 
 211   0.0000       1.169733        31.8301 
 212   0.0000       1.176795        32.0222 
 213   0.0000       1.189745        32.3746 
 214   0.0000       1.200478        32.6667 
 215   0.0000       1.212669        32.9984 
 216   0.0000       1.224173        33.3115 
 217   0.0000       1.253337        34.1050 
 218   0.0000       1.266380        34.4599 
 219   0.0000       1.276612        34.7384 
 220   0.0000       1.284878        34.9633 
 221   0.0000       1.300803        35.3967 
 222   0.0000       1.317322        35.8462 
 223   0.0000       1.323032        36.0015 
 224   0.0000       1.326375        36.0925 
 225   0.0000       1.338252        36.4157 
 226   0.0000       1.352660        36.8077 
 227   0.0000       1.359669        36.9985 
 228   0.0000       1.367425        37.2095 
 229   0.0000       1.382962        37.6323 
 230   0.0000       1.388253        37.7763 
 231   0.0000       1.394496        37.9462 
 232   0.0000       1.409020        38.3414 
 233   0.0000       1.449931        39.4546 
 234   0.0000       1.473541        40.0971 
 235   0.0000       1.503051        40.9001 
 236   0.0000       1.517774        41.3007 
 237   0.0000       1.531670        41.6788 
 238   0.0000       1.546452        42.0811 
 239   0.0000       1.569929        42.7199 
 240   0.0000       1.593311        43.3562 
 241   0.0000       1.607458        43.7412 
 242   0.0000       1.624833        44.2140 
 243   0.0000       1.631213        44.3876 
 244   0.0000       1.647264        44.8243 
 245   0.0000       1.648291        44.8523 
 246   0.0000       1.655440        45.0468 
 247   0.0000       1.662092        45.2278 
 248   0.0000       1.666939        45.3597 
 249   0.0000       1.674808        45.5738 
 250   0.0000       1.676875        45.6301 
 251   0.0000       1.696169        46.1551 
 252   0.0000       1.710425        46.5430 
 253   0.0000       1.724095        46.9150 
 254   0.0000       1.743735        47.4494 
 255   0.0000       1.752669        47.6926 
 256   0.0000       1.760790        47.9135 
 257   0.0000       1.763793        47.9952 
 258   0.0000       1.790296        48.7164 
 259   0.0000       1.798971        48.9525 
 260   0.0000       1.808347        49.2076 
 261   0.0000       1.811047        49.2811 
 262   0.0000       1.815779        49.4099 
 263   0.0000       1.818342        49.4796 
 264   0.0000       1.830539        49.8115 
 265   0.0000       1.846668        50.2504 
 266   0.0000       1.853572        50.4383 
 267   0.0000       1.860421        50.6246 
 268   0.0000       1.863004        50.6949 
 269   0.0000       1.869361        50.8679 
 270   0.0000       1.877156        51.0800 
 271   0.0000       1.879550        51.1452 
 272   0.0000       1.887542        51.3626 
 273   0.0000       1.896988        51.6197 
 274   0.0000       1.900710        51.7210 
 275   0.0000       1.904809        51.8325 
 276   0.0000       1.910761        51.9945 
 277   0.0000       1.923814        52.3497 
 278   0.0000       1.930957        52.5440 
 279   0.0000       1.931875        52.5690 
 280   0.0000       1.936846        52.7043 
 281   0.0000       1.944292        52.9069 
 282   0.0000       1.951366        53.0994 
 283   0.0000       1.957962        53.2788 
 284   0.0000       1.969031        53.5801 
 285   0.0000       1.977721        53.8165 
 286   0.0000       1.988127        54.0997 
 287   0.0000       2.003688        54.5231 
 288   0.0000       2.013489        54.7898 
 289   0.0000       2.022978        55.0480 
 290   0.0000       2.029148        55.2159 
 291   0.0000       2.034983        55.3747 
 292   0.0000       2.047765        55.7225 
 293   0.0000       2.052352        55.8473 
 294   0.0000       2.060622        56.0724 
 295   0.0000       2.069031        56.3012 
 296   0.0000       2.080092        56.6022 
 297   0.0000       2.090666        56.8899 
 298   0.0000       2.096672        57.0533 
 299   0.0000       2.122928        57.7678 
 300   0.0000       2.126698        57.8704 
 301   0.0000       2.136201        58.1290 
 302   0.0000       2.143256        58.3210 
 303   0.0000       2.150351        58.5140 
 304   0.0000       2.161106        58.8067 
 305   0.0000       2.167333        58.9761 
 306   0.0000       2.173686        59.1490 
 307   0.0000       2.185318        59.4655 
 308   0.0000       2.193995        59.7016 
 309   0.0000       2.198810        59.8327 
 310   0.0000       2.210625        60.1542 
 311   0.0000       2.216264        60.3076 
 312   0.0000       2.230432        60.6931 
 313   0.0000       2.234010        60.7905 
 314   0.0000       2.245093        61.0921 
 315   0.0000       2.251807        61.2748 
 316   0.0000       2.264931        61.6319 
 317   0.0000       2.297272        62.5119 
 318   0.0000       2.315409        63.0055 
 319   0.0000       2.324033        63.2402 
 320   0.0000       2.329269        63.3826 
 321   0.0000       2.339328        63.6563 
 322   0.0000       2.365025        64.3556 
 323   0.0000       2.366966        64.4084 
 324   0.0000       2.374505        64.6136 
 325   0.0000       2.381144        64.7942 
 326   0.0000       2.381856        64.8136 
 327   0.0000       2.402948        65.3875 
 328   0.0000       2.413097        65.6637 
 329   0.0000       2.419214        65.8302 
 330   0.0000       2.427726        66.0618 
 331   0.0000       2.437693        66.3330 
 332   0.0000       2.475784        67.3695 
 333   0.0000       2.501316        68.0643 
 334   0.0000       2.511440        68.3398 
 335   0.0000       2.522401        68.6380 
 336   0.0000       2.530563        68.8601 
 337   0.0000       2.546531        69.2946 
 338   0.0000       2.551713        69.4356 
 339   0.0000       2.560660        69.6791 
 340   0.0000       2.573360        70.0247 
 341   0.0000       2.578189        70.1561 
 342   0.0000       2.584370        70.3243 
 343   0.0000       2.621203        71.3266 
 344   0.0000       2.624792        71.4242 
 345   0.0000       2.645177        71.9789 
 346   0.0000       2.660104        72.3851 
 347   0.0000       2.661884        72.4335 
 348   0.0000       2.673362        72.7459 
 349   0.0000       2.678427        72.8837 
 350   0.0000       2.694898        73.3319 
 351   0.0000       2.702475        73.5381 
 352   0.0000       2.709848        73.7387 
 353   0.0000       2.718779        73.9817 
 354   0.0000       2.731974        74.3408 
 355   0.0000       2.766463        75.2793 
 356   0.0000       2.769671        75.3666 
 357   0.0000       2.785347        75.7931 
 358   0.0000       2.829333        76.9901 
 359   0.0000       2.837784        77.2200 
 360   0.0000       2.844783        77.4105 
 361   0.0000       2.863769        77.9271 
 362   0.0000       2.879337        78.3507 
 363   0.0000       2.894170        78.7544 
 364   0.0000       2.913818        79.2890 
 365   0.0000       2.936147        79.8966 
 366   0.0000       2.944037        80.1113 
 367   0.0000       2.951901        80.3253 
 368   0.0000       2.955318        80.4183 
 369   0.0000       2.976508        80.9949 
 370   0.0000       2.979606        81.0792 
 371   0.0000       3.031321        82.4864 
 372   0.0000       3.043980        82.8309 
 373   0.0000       3.048843        82.9632 
 374   0.0000       3.054923        83.1287 
 375   0.0000       3.062803        83.3431 
 376   0.0000       3.073379        83.6309 
 377   0.0000       3.077184        83.7344 
 378   0.0000       3.086251        83.9812 
 379   0.0000       3.091163        84.1148 
 380   0.0000       3.110438        84.6393 
 381   0.0000       3.136196        85.3402 
 382   0.0000       3.146380        85.6174 
 383   0.0000       3.153639        85.8149 
 384   0.0000       3.177334        86.4596 
 385   0.0000       3.193556        86.9011 
 386   0.0000       3.223111        87.7053 
 387   0.0000       3.326247        90.5118 
 388   0.0000       3.358177        91.3806 
 389   0.0000       3.389260        92.2265 
 390   0.0000       3.437777        93.5467 
 391   0.0000       3.601200        97.9936 
 392   0.0000       3.659016        99.5669 
 393   0.0000       3.726057       101.3912 

                    ********************************
                    * MULLIKEN POPULATION ANALYSIS *
                    ********************************

-----------------------
MULLIKEN ATOMIC CHARGES
-----------------------
[...]
 10:     91.13   0.000000    0.00  0.000001  (-0.000911  0.000379  0.000097)
 11:     93.83   0.000086    0.43  0.000286  ( 0.016405  0.002598  0.003175)
 12:    124.17   0.000443    2.24  0.001114  (-0.004058 -0.002044  0.033062)
 13:    138.70   0.000239    1.21  0.000537  (-0.011869  0.008267  0.018096)
 14:    147.36   0.000258    1.30  0.000546  ( 0.009565 -0.020619  0.005420)
 15:    156.92   0.000063    0.32  0.000125  (-0.004774  0.009556  0.003232)
 16:    171.36   0.000029    0.14  0.000052  ( 0.001666 -0.005097 -0.004838)
 17:    202.56   0.001080    5.46  0.001663  ( 0.006211 -0.040253 -0.002093)
 18:    210.39   0.000372    1.88  0.000552  ( 0.003282  0.005198 -0.022686)
 19:    238.72   0.000011    0.05  0.000014  ( 0.001218  0.001072  0.003344)
 20:    239.82   0.000019    0.10  0.000024  ( 0.004037  0.002643  0.001093)
 21:    286.15   0.000615    3.11  0.000670  ( 0.002651  0.025752  0.000259)
 22:    308.61   0.001729    8.74  0.001748  (-0.039731  0.010201 -0.008086)
 23:    336.27   0.000918    4.64  0.000852  ( 0.006943 -0.000340 -0.028341)
 24:    358.08   0.000582    2.94  0.000507  ( 0.003594  0.000971 -0.022202)
 25:    362.30   0.000026    0.13  0.000023  ( 0.000795  0.000508 -0.004683)
 26:    398.38   0.000664    3.35  0.000520  (-0.007056 -0.021611 -0.001791)
 27:    437.37   0.000037    0.19  0.000026  ( 0.004177  0.002833  0.000881)
 28:    485.67   0.000101    0.51  0.000065  ( 0.007833 -0.001576  0.001154)
 29:    494.83   0.000001    0.01  0.000001  (-0.000426  0.000314  0.000718)
 30:    535.71   0.000080    0.40  0.000047  ( 0.006401  0.002109  0.001068)
 31:    536.38   0.000013    0.07  0.000008  (-0.002579 -0.000952 -0.000363)
 32:    544.14   0.000093    0.47  0.000053  ( 0.006886  0.002034  0.001332)
 33:    548.60   0.000008    0.04  0.000005  ( 0.000102  0.000269 -0.002146)
 34:    578.41   0.000173    0.87  0.000093  (-0.001546 -0.000576  0.009507)
 35:    596.49   0.000060    0.30  0.000031  (-0.000774  0.000620  0.005500)
 36:    602.08   0.000100    0.50  0.000052  (-0.001269 -0.007072  0.000308)
 37:    629.68   0.001851    9.35  0.000917  ( 0.003117  0.030075  0.001720)
 38:    681.63   0.000883    4.46  0.000404  (-0.017972 -0.007949 -0.004233)
 39:    686.02   0.000053    0.27  0.000024  ( 0.002746  0.001708 -0.003709)
 40:    754.51   0.006583   33.27  0.002723  (-0.051604  0.002503 -0.007325)
 41:    770.83   0.000020    0.10  0.000008  ( 0.000429 -0.000547  0.002741)
 42:    782.80   0.000955    4.83  0.000381  ( 0.000105 -0.019435 -0.001713)
 43:    788.23   0.000299    1.51  0.000118  ( 0.001978  0.000660 -0.010683)
 44:    796.12   0.000720    3.64  0.000282  (-0.004645 -0.015861 -0.003008)
 45:    800.42   0.007075   35.75  0.002758  (-0.014868  0.016429  0.047616)
 46:    805.72   0.005901   29.82  0.002286  (-0.001811  0.024845 -0.040805)
 47:    881.04   0.000018    0.09  0.000006  ( 0.001783  0.000066  0.001816)
 48:    932.17   0.000003    0.01  0.000001  (-0.000179  0.000941  0.000050)
 49:    938.37   0.000008    0.04  0.000003  ( 0.000592  0.001512  0.000060)
 50:    945.65   0.000563    2.84  0.000186  ( 0.012544  0.003240  0.004219)
 51:    945.69   0.000414    2.09  0.000137  (-0.011326 -0.002779  0.000841)
 52:    966.23   0.007618   38.50  0.002460  (-0.002575 -0.049456 -0.002787)
 53:    974.03   0.000436    2.20  0.000140  (-0.001668 -0.001206  0.011642)
 54:   1009.57   0.001274    6.44  0.000394  (-0.000012  0.019783  0.001525)
 55:   1010.03   0.000079    0.40  0.000025  ( 0.000770  0.003622 -0.003293)
 56:   1026.30   0.000030    0.15  0.000009  ( 0.000281 -0.000774  0.002883)
 57:   1028.34   0.000027    0.14  0.000008  ( 0.000827 -0.000153 -0.002743)
 58:   1059.18   0.000577    2.91  0.000170  (-0.000353  0.000735  0.013010)
 59:   1060.70   0.000414    2.09  0.000122  ( 0.001800  0.001411 -0.010798)
 60:   1061.98   0.000691    3.49  0.000203  (-0.000838  0.004518 -0.013493)
 61:   1064.64   0.000251    1.27  0.000074  ( 0.005932  0.004015 -0.004717)
 62:   1064.88   0.000965    4.88  0.000283  ( 0.004083 -0.002933 -0.016048)
 63:   1065.14   0.000149    0.75  0.000044  ( 0.000599  0.002716  0.005997)
 64:   1092.92   0.003168   16.01  0.000905  (-0.004913 -0.002988  0.029523)
 65:   1097.77   0.000145    0.73  0.000041  ( 0.001266 -0.002929 -0.005565)
 66:   1103.65   0.000360    1.82  0.000102  (-0.001720  0.000738  0.009912)
 67:   1130.95   0.004091   20.67  0.001129  (-0.001793 -0.033469 -0.002320)
 68:   1143.35   0.000151    0.76  0.000041  ( 0.000945  0.005425 -0.003284)
 69:   1180.03   0.000324    1.64  0.000086  ( 0.009233  0.000067 -0.000670)
 70:   1180.23   0.000458    2.31  0.000121  (-0.010433  0.000711 -0.003425)
 71:   1267.93   0.004443   22.45  0.001094  (-0.002362 -0.032929 -0.001921)
 72:   1279.40   0.000117    0.59  0.000028  ( 0.001755 -0.005022 -0.000421)
 73:   1281.66   0.000167    0.85  0.000041  ( 0.001776 -0.006132  0.000052)
 74:   1300.98   0.000006    0.03  0.000001  (-0.000064  0.000872  0.000833)
 75:   1304.39   0.000367    1.85  0.000088  ( 0.000054 -0.009348 -0.000543)
 76:   1327.08   0.002602   13.15  0.000612  ( 0.000264 -0.024707 -0.001217)
 77:   1335.73   0.000003    0.02  0.000001  (-0.000877 -0.000018 -0.000129)
 78:   1337.89   0.001076    5.44  0.000251  ( 0.015189  0.003717  0.002543)
 79:   1372.79   0.000897    4.53  0.000204  (-0.001757 -0.000209  0.014169)
 80:   1401.73   0.000116    0.59  0.000026  ( 0.004250  0.000492 -0.002750)
 81:   1402.90   0.000350    1.77  0.000078  ( 0.008674 -0.000332  0.001561)
 82:   1404.19   0.000101    0.51  0.000022  ( 0.004539 -0.000671  0.001182)
 83:   1409.24   0.000468    2.37  0.000104  (-0.001591 -0.010044 -0.000508)
 84:   1425.36   0.000101    0.51  0.000022  (-0.000700  0.000185  0.004647)
 85:   1445.03   0.011338   57.30  0.002449  (-0.003058 -0.048992 -0.006243)
 86:   1454.32   0.002038   10.30  0.000437  ( 0.006368  0.013133 -0.014974)
 87:   1457.04   0.002803   14.17  0.000600  ( 0.008711  0.000750 -0.022889)
 88:   1461.20   0.001155    5.84  0.000247  (-0.003349  0.002240  0.015183)
 89:   1461.80   0.000785    3.97  0.000168  ( 0.005302  0.004722 -0.010821)
 90:   1463.08   0.002320   11.72  0.000495  ( 0.005867 -0.002222 -0.021340)
 91:   1466.77   0.004483   22.66  0.000954  (-0.026615  0.008568 -0.013118)
 92:   1470.97   0.000370    1.87  0.000078  ( 0.002401  0.000230  0.008524)
 93:   1476.78   0.000477    2.41  0.000101  (-0.000908 -0.009875 -0.001559)
 94:   1538.25   0.001601    8.09  0.000325  ( 0.015952 -0.001103  0.008312)
 95:   1538.73   0.004412   22.30  0.000895  (-0.029813  0.001776 -0.001654)
 96:   1560.79   0.040446  204.40  0.008087  ( 0.006748  0.089524  0.005174)
 97:   1566.79   0.001397    7.06  0.000278  (-0.002518 -0.003430  0.016131)
 98:   1655.97   0.000143    0.72  0.000027  ( 0.000872  0.000554 -0.005083)
 99:   1704.91   0.000380    1.92  0.000070  (-0.000113 -0.008329 -0.000362)
100:   1706.52   0.000005    0.02  0.000001  ( 0.000488 -0.000741 -0.000311)
101:   1709.47   0.000058    0.29  0.000011  ( 0.000216 -0.000179  0.003235)
102:   1710.02   0.001902    9.61  0.000347  (-0.018392 -0.000642 -0.002892)
103:   3067.24   0.004274   21.60  0.000435  (-0.020633 -0.002566 -0.001599)
104:   3067.81   0.003762   19.01  0.000383  ( 0.018714  0.001895  0.005374)
105:   3068.70   0.001675    8.46  0.000170  (-0.008108  0.006400 -0.007977)
106:   3069.21   0.002139   10.81  0.000217  ( 0.012179 -0.007297 -0.003987)
107:   3156.76   0.001182    5.98  0.000117  ( 0.003945 -0.000181 -0.010064)
108:   3156.85   0.001600    8.08  0.000158  (-0.000874 -0.001408  0.012465)
109:   3157.81   0.000607    3.07  0.000060  ( 0.002423  0.003590 -0.006418)
110:   3158.02   0.000637    3.22  0.000063  (-0.000534 -0.002964 -0.007340)
111:   3182.71   0.002738   13.84  0.000269  ( 0.015141  0.005286  0.003363)
112:   3182.94   0.003991   20.17  0.000391  ( 0.006003 -0.018292  0.004541)
113:   3183.19   0.001925    9.73  0.000189  ( 0.012701 -0.003920 -0.003471)
114:   3183.49   0.002239   11.32  0.000219  ( 0.005897  0.012348  0.005678)
115:   3204.09   0.000028    0.14  0.000003  ( 0.000744  0.001484  0.000013)
116:   3204.92   0.000026    0.13  0.000003  ( 0.000581  0.001442  0.000331)
117:   3211.88   0.002666   13.47  0.000259  ( 0.015183 -0.000179  0.005335)
118:   3212.77   0.002702   13.66  0.000262  (-0.016199  0.000147  0.000223)
119:   3228.21   0.003696   18.68  0.000357  ( 0.001609  0.018517 -0.003433)
120:   3228.95   0.003049   15.41  0.000295  ( 0.000303  0.016206  0.005650)
121:   3285.65   0.000906    4.58  0.000086  (-0.000036 -0.009270 -0.000283)
122:   3308.47   0.000083    0.42  0.000008  (-0.000414  0.000207  0.002752)

* The epsilon (eps) is given for a Dirac delta lineshape.
** The dipole moment derivative (T) already includes vibrational overlap.

The first frequency considered to be a vibration is 6
The total number of vibrations considered is 117


--------------------------
THERMOCHEMISTRY AT 298.15K
--------------------------

Temperature         ... 298.15 K
Pressure            ... 1.00 atm
Total Mass          ... 276.38 AMU

Throughout the following assumptions are being made:
  (1) The electronic state is orbitally nondegenerate
  (2) There are no thermally accessible electronically excited states
  (3) Hindered rotations indicated by low frequency modes are not
      treated as such but are treated as vibrations and this may
      cause some error
  (4) All equations used are the standard statistical mechanics
      equations for an ideal gas
  (5) All vibrations are strictly harmonic

freq.      15.01  E(vib)   ...       0.57 
freq.      20.52  E(vib)   ...       0.56 
freq.      55.15  E(vib)   ...       0.52 
freq.      63.75  E(vib)   ...       0.51 
freq.      91.13  E(vib)   ...       0.47 
freq.      93.83  E(vib)   ...       0.47 
freq.     124.17  E(vib)   ...       0.43 
freq.     138.70  E(vib)   ...       0.42 
freq.     147.36  E(vib)   ...       0.41 
freq.     156.92  E(vib)   ...       0.40 
freq.     171.36  E(vib)   ...       0.38 
freq.     202.56  E(vib)   ...       0.35 
freq.     210.39  E(vib)   ...       0.34 
freq.     238.72  E(vib)   ...       0.32 
freq.     239.82  E(vib)   ...       0.31 
freq.     286.15  E(vib)   ...       0.27 
freq.     308.61  E(vib)   ...       0.26 
freq.     336.27  E(vib)   ...       0.24 
freq.     358.08  E(vib)   ...       0.22 
freq.     362.30  E(vib)   ...       0.22 
freq.     398.38  E(vib)   ...       0.20 
freq.     437.37  E(vib)   ...       0.17 
freq.     485.67  E(vib)   ...       0.15 
freq.     494.83  E(vib)   ...       0.14 
freq.     535.71  E(vib)   ...       0.12 
freq.     536.38  E(vib)   ...       0.12 
freq.     544.14  E(vib)   ...       0.12 
freq.     548.60  E(vib)   ...       0.12 
freq.     578.41  E(vib)   ...       0.11 
freq.     596.49  E(vib)   ...       0.10 
freq.     602.08  E(vib)   ...       0.10 
freq.     629.68  E(vib)   ...       0.09 
freq.     681.63  E(vib)   ...       0.08 
freq.     686.02  E(vib)   ...       0.07 
freq.     754.51  E(vib)   ...       0.06 
freq.     770.83  E(vib)   ...       0.05 
freq.     782.80  E(vib)   ...       0.05 
freq.     788.23  E(vib)   ...       0.05 
freq.     796.12  E(vib)   ...       0.05 
freq.     800.42  E(vib)   ...       0.05 
freq.     805.72  E(vib)   ...       0.05 
freq.     881.04  E(vib)   ...       0.04 
freq.     932.17  E(vib)   ...       0.03 
freq.     938.37  E(vib)   ...       0.03 
freq.     945.65  E(vib)   ...       0.03 
freq.     945.69  E(vib)   ...       0.03 
freq.     966.23  E(vib)   ...       0.03 
freq.     974.03  E(vib)   ...       0.03 
freq.    1009.57  E(vib)   ...       0.02 
freq.    1010.03  E(vib)   ...       0.02 
freq.    1026.30  E(vib)   ...       0.02 
freq.    1028.34  E(vib)   ...       0.02 
freq.    1059.18  E(vib)   ...       0.02 
freq.    1060.70  E(vib)   ...       0.02 
freq.    1061.98  E(vib)   ...       0.02 
freq.    1064.64  E(vib)   ...       0.02 
freq.    1064.88  E(vib)   ...       0.02 
freq.    1065.14  E(vib)   ...       0.02 
freq.    1092.92  E(vib)   ...       0.02 
freq.    1097.77  E(vib)   ...       0.02 
freq.    1103.65  E(vib)   ...       0.02 
freq.    1130.95  E(vib)   ...       0.01 
freq.    1143.35  E(vib)   ...       0.01 
freq.    1180.03  E(vib)   ...       0.01 
freq.    1180.23  E(vib)   ...       0.01 
freq.    1267.93  E(vib)   ...       0.01 
freq.    1279.40  E(vib)   ...       0.01 
freq.    1281.66  E(vib)   ...       0.01 
freq.    1300.98  E(vib)   ...       0.01 
freq.    1304.39  E(vib)   ...       0.01 
freq.    1327.08  E(vib)   ...       0.01 
freq.    1335.73  E(vib)   ...       0.01 
freq.    1337.89  E(vib)   ...       0.01 
freq.    1372.79  E(vib)   ...       0.01 
freq.    1401.73  E(vib)   ...       0.00 
freq.    1402.90  E(vib)   ...       0.00 
freq.    1404.19  E(vib)   ...       0.00 
freq.    1409.24  E(vib)   ...       0.00 
freq.    1425.36  E(vib)   ...       0.00 
freq.    1445.03  E(vib)   ...       0.00 
freq.    1454.32  E(vib)   ...       0.00 
freq.    1457.04  E(vib)   ...       0.00 
freq.    1461.20  E(vib)   ...       0.00 
freq.    1461.80  E(vib)   ...       0.00 
freq.    1463.08  E(vib)   ...       0.00 
freq.    1466.77  E(vib)   ...       0.00 
freq.    1470.97  E(vib)   ...       0.00 
freq.    1476.78  E(vib)   ...       0.00 
freq.    1538.25  E(vib)   ...       0.00 
freq.    1538.73  E(vib)   ...       0.00 
freq.    1560.79  E(vib)   ...       0.00 
freq.    1566.79  E(vib)   ...       0.00 
freq.    1655.97  E(vib)   ...       0.00 
freq.    1704.91  E(vib)   ...       0.00 
freq.    1706.52  E(vib)   ...       0.00 
freq.    1709.47  E(vib)   ...       0.00 
freq.    1710.02  E(vib)   ...       0.00 
freq.    3067.24  E(vib)   ...       0.00 
freq.    3067.81  E(vib)   ...       0.00 
freq.    3068.70  E(vib)   ...       0.00 
freq.    3069.21  E(vib)   ...       0.00 
freq.    3156.76  E(vib)   ...       0.00 
freq.    3156.85  E(vib)   ...       0.00 
freq.    3157.81  E(vib)   ...       0.00 
freq.    3158.02  E(vib)   ...       0.00 
freq.    3182.71  E(vib)   ...       0.00 
freq.    3182.94  E(vib)   ...       0.00 
freq.    3183.19  E(vib)   ...       0.00 
freq.    3183.49  E(vib)   ...       0.00 
freq.    3204.09  E(vib)   ...       0.00 
freq.    3204.92  E(vib)   ...       0.00 
freq.    3211.88  E(vib)   ...       0.00 
freq.    3212.77  E(vib)   ...       0.00 
freq.    3228.21  E(vib)   ...       0.00 
freq.    3228.95  E(vib)   ...       0.00 
freq.    3285.65  E(vib)   ...       0.00 
freq.    3308.47  E(vib)   ...       0.00 

------------
INNER ENERGY
------------

The inner energy is: U= E(el) + E(ZPE) + E(vib) + E(rot) + E(trans)
    E(el)   - is the total energy from the electronic structure calculation
              = E(kin-el) + E(nuc-el) + E(el-el) + E(nuc-nuc)
    E(ZPE)  - the the zero temperature vibrational energy from the frequency calculation
    E(vib)  - the the finite temperature correction to E(ZPE) due to population
              of excited vibrational states
    E(rot)  - is the rotational thermal energy
    E(trans)- is the translational thermal energy

Summary of contributions to the inner energy U:
Electronic energy                ...   -844.73290670 Eh
Zero point energy                ...      0.34641150 Eh     217.38 kcal/mol
Thermal vibrational correction   ...      0.01649433 Eh      10.35 kcal/mol
Thermal rotational correction    ...      0.00141627 Eh       0.89 kcal/mol
Thermal translational correction ...      0.00141627 Eh       0.89 kcal/mol
-----------------------------------------------------------------------
Total thermal energy                   -844.36716833 Eh


Summary of corrections to the electronic energy:
(perhaps to be used in another calculation)
Total thermal correction                  0.01932687 Eh      12.13 kcal/mol
Non-thermal (ZPE) correction              0.34641150 Eh     217.38 kcal/mol
-----------------------------------------------------------------------
Total correction                          0.36573837 Eh     229.50 kcal/mol


--------
ENTHALPY
--------

The enthalpy is H = U + kB*T
                kB is Boltzmann's constant
Total free energy                 ...   -844.36716833 Eh 
Thermal Enthalpy correction       ...      0.00094421 Eh       0.59 kcal/mol
-----------------------------------------------------------------------
Total Enthalpy                    ...   -844.36622412 Eh


Note: Only C1 symmetry has been detected, increase convergence thresholds 
      if your molecule has a higher symmetry. Symmetry factor of 1.0 is   
      used for the rotational entropy correction. 
 

Note: Rotational entropy computed according to Herzberg 
Infrared and Raman Spectra, Chapter V,1, Van Nostrand Reinhold, 1945 
Point Group:  C1, Symmetry Number:   1  
Rotational constants in cm-1:     0.023796     0.005931     0.005222 

Vibrational entropy computed according to the QRRHO of S. Grimme
Chem.Eur.J. 2012 18 9955


-------
ENTROPY
-------

The entropy contributions are T*S = T*(S(el)+S(vib)+S(rot)+S(trans))
     S(el)   - electronic entropy
     S(vib)  - vibrational entropy
     S(rot)  - rotational entropy
     S(trans)- translational entropy
The entropies will be listed as multiplied by the temperature to get
units of energy

Electronic entropy                ...      0.00000000 Eh      0.00 kcal/mol
Vibrational entropy               ...      0.02945337 Eh     18.48 kcal/mol
Rotational entropy                ...      0.01617708 Eh     10.15 kcal/mol
Translational entropy             ...      0.02031105 Eh     12.75 kcal/mol
-----------------------------------------------------------------------
Final entropy term                ...      0.06594150 Eh     41.38 kcal/mol

In case the symmetry of your molecule has not been determined correctly
or in case you have a reason to use a different symmetry number we print 
out the resulting rotational entropy values for sn=1,12 :
 --------------------------------------------------------
|  sn= 1 | S(rot)=       0.01617708 Eh     10.15 kcal/mol|
|  sn= 2 | S(rot)=       0.01552263 Eh      9.74 kcal/mol|
|  sn= 3 | S(rot)=       0.01513979 Eh      9.50 kcal/mol|
|  sn= 4 | S(rot)=       0.01486817 Eh      9.33 kcal/mol|
|  sn= 5 | S(rot)=       0.01465748 Eh      9.20 kcal/mol|
|  sn= 6 | S(rot)=       0.01448534 Eh      9.09 kcal/mol|
|  sn= 7 | S(rot)=       0.01433979 Eh      9.00 kcal/mol|
|  sn= 8 | S(rot)=       0.01421371 Eh      8.92 kcal/mol|
|  sn= 9 | S(rot)=       0.01410251 Eh      8.85 kcal/mol|
|  sn=10 | S(rot)=       0.01400303 Eh      8.79 kcal/mol|
|  sn=11 | S(rot)=       0.01391304 Eh      8.73 kcal/mol|
|  sn=12 | S(rot)=       0.01383088 Eh      8.68 kcal/mol|
 --------------------------------------------------------


-------------------
GIBBS FREE ENERGY
-------------------

The Gibbs free energy is G = H - T*S

Total enthalpy                    ...   -844.36622412 Eh 
Total entropy correction          ...     -0.06594150 Eh    -41.38 kcal/mol
-----------------------------------------------------------------------
Final Gibbs free energy         ...   -844.43216562 Eh

For completeness - the Gibbs free energy minus the electronic energy
G-E(el)                           ...      0.30074108 Eh    188.72 kcal/mol


Timings for individual modules:

Sum of individual times         ...     2912.293 sec (=  48.538 min)
GTO integral calculation        ...       14.966 sec (=   0.249 min)   0.5 %
SCF iterations                  ...     1709.089 sec (=  28.485 min)  58.7 %
SCF Gradient evaluation         ...      431.022 sec (=   7.184 min)  14.8 %
Geometry relaxation             ...        1.751 sec (=   0.029 min)   0.1 %
Analytical frequency calculation...      755.465 sec (=  12.591 min)  25.9 %
                             ****ORCA TERMINATED NORMALLY****
TOTAL RUN TIME: 0 days 0 hours 48 minutes 41 seconds 376 msec
