
                                 *****************
                                 * O   R   C   A *
                                 *****************

                                            #,                                       
                                            ###                                      
                                            ####                                     
                                            #####                                    
                                            ######                                   
                                           ########,                                 
                                     ,,################,,,,,                         
                               ,,#################################,,                 
                          ,,##########################################,,             
                       ,#########################################, ''#####,          
                    ,#############################################,,   '####,        
                  ,##################################################,,,,####,       
                ,###########''''           ''''###############################       
              ,#####''   ,,,,##########,,,,          '''####'''          '####       
            ,##' ,,,,###########################,,,                        '##       
           ' ,,###''''                  '''############,,,                           
         ,,##''                                '''############,,,,        ,,,,,,###''
      ,#''                                            '''#######################'''  
     '                                                          ''''####''''         
             ,#######,   #######,   ,#######,      ##                                
            ,#'     '#,  ##    ##  ,#'     '#,    #''#        ######   ,####,        
            ##       ##  ##   ,#'  ##            #'  '#       #        #'  '#        
            ##       ##  #######   ##           ,######,      #####,   #    #        
            '#,     ,#'  ##    ##  '#,     ,#' ,#      #,         ##   #,  ,#        
             '#######'   ##     ##  '#######'  #'      '#     #####' # '####'        



                  #######################################################
                  #                        -***-                        #
                  #          Department of theory and spectroscopy      #
                  #    Directorship and core code : Frank Neese         #
                  #        Max Planck Institute fuer Kohlenforschung    #
                  #                Kaiser Wilhelm Platz 1               #
                  #                 D-45470 Muelheim/Ruhr               #
                  #                      Germany                        #
                  #                                                     #
                  #                  All rights reserved                #
                  #                        -***-                        #
                  #######################################################


                         Program Version 5.0.4 -  RELEASE  -


 With contributions from (in alphabetic order):
   Daniel Aravena         : Magnetic Suceptibility
   Michael Atanasov       : Ab Initio Ligand Field Theory (pilot matlab implementation)
   Alexander A. Auer      : GIAO ZORA, VPT2 properties, NMR spectrum
   Ute Becker             : Parallelization
   Giovanni Bistoni       : ED, misc. LED, open-shell LED, HFLD
   Martin Brehm           : Molecular dynamics
   Dmytro Bykov           : SCF Hessian
   Vijay G. Chilkuri      : MRCI spin determinant printing, contributions to CSF-ICE
   Dipayan Datta          : RHF DLPNO-CCSD density
   Achintya Kumar Dutta   : EOM-CC, STEOM-CC
   Dmitry Ganyushin       : Spin-Orbit,Spin-Spin,Magnetic field MRCI
   Miquel Garcia          : C-PCM and meta-GGA Hessian, CC/C-PCM, Gaussian charge scheme
   Yang Guo               : DLPNO-NEVPT2, F12-NEVPT2, CIM, IAO-localization
   Andreas Hansen         : Spin unrestricted coupled pair/coupled cluster methods
   Benjamin Helmich-Paris : MC-RPA, TRAH-SCF, COSX integrals
   Lee Huntington         : MR-EOM, pCC
   Robert Izsak           : Overlap fitted RIJCOSX, COSX-SCS-MP3, EOM
   Marcus Kettner         : VPT2
   Christian Kollmar      : KDIIS, OOCD, Brueckner-CCSD(T), CCSD density, CASPT2, CASPT2-K
   Simone Kossmann        : Meta GGA functionals, TD-DFT gradient, OOMP2, MP2 Hessian
   Martin Krupicka        : Initial AUTO-CI
   Lucas Lang             : DCDCAS
   Marvin Lechner         : AUTO-CI (C++ implementation), FIC-MRCC
   Dagmar Lenk            : GEPOL surface, SMD
   Dimitrios Liakos       : Extrapolation schemes; Compound Job, initial MDCI parallelization
   Dimitrios Manganas     : Further ROCIS development; embedding schemes
   Dimitrios Pantazis     : SARC Basis sets
   Anastasios Papadopoulos: AUTO-CI, single reference methods and gradients
   Taras Petrenko         : DFT Hessian,TD-DFT gradient, ASA, ECA, R-Raman, ABS, FL, XAS/XES, NRVS
   Peter Pinski           : DLPNO-MP2, DLPNO-MP2 Gradient
   Christoph Reimann      : Effective Core Potentials
   Marius Retegan         : Local ZFS, SOC
   Christoph Riplinger    : Optimizer, TS searches, QM/MM, DLPNO-CCSD(T), (RO)-DLPNO pert. Triples
   Tobias Risthaus        : Range-separated hybrids, TD-DFT gradient, RPA, STAB
   Michael Roemelt        : Original ROCIS implementation
   Masaaki Saitow         : Open-shell DLPNO-CCSD energy and density
   Barbara Sandhoefer     : DKH picture change effects
   Avijit Sen             : IP-ROCIS
   Kantharuban Sivalingam : CASSCF convergence, NEVPT2, FIC-MRCI
   Bernardo de Souza      : ESD, SOC TD-DFT
   Georgi Stoychev        : AutoAux, RI-MP2 NMR, DLPNO-MP2 response
   Willem Van den Heuvel  : Paramagnetic NMR
   Boris Wezisla          : Elementary symmetry handling
   Frank Wennmohs         : Technical directorship


 We gratefully acknowledge several colleagues who have allowed us to
 interface, adapt or use parts of their codes:
   Stefan Grimme, W. Hujo, H. Kruse, P. Pracht,  : VdW corrections, initial TS optimization,
                  C. Bannwarth, S. Ehlert          DFT functionals, gCP, sTDA/sTD-DF
   Ed Valeev, F. Pavosevic, A. Kumar             : LibInt (2-el integral package), F12 methods
   Garnet Chan, S. Sharma, J. Yang, R. Olivares  : DMRG
   Ulf Ekstrom                                   : XCFun DFT Library
   Mihaly Kallay                                 : mrcc  (arbitrary order and MRCC methods)
   Jiri Pittner, Ondrej Demel                    : Mk-CCSD
   Frank Weinhold                                : gennbo (NPA and NBO analysis)
   Christopher J. Cramer and Donald G. Truhlar   : smd solvation model
   Lars Goerigk                                  : TD-DFT with DH, B97 family of functionals
   V. Asgeirsson, H. Jonsson                     : NEB implementation
   FAccTs GmbH                                   : IRC, NEB, NEB-TS, DLPNO-Multilevel, CI-OPT
                                                   MM, QMMM, 2- and 3-layer-ONIOM, Crystal-QMMM,
                                                   LR-CPCM, SF, NACMEs, symmetry and pop. for TD-DFT,
                                                   nearIR, NL-DFT gradient (VV10), updates on ESD,
                                                   ML-optimized integration grids
   S Lehtola, MJT Oliveira, MAL Marques          : LibXC Library
   Liviu Ungur et al                             : ANISO software


 Your calculation uses the libint2 library for the computation of 2-el integrals
 For citations please refer to: http://libint.valeyev.net

 Your ORCA version has been built with support for libXC version: 5.1.0
 For citations please refer to: https://tddft.org/programs/libxc/

 This ORCA versions uses:
   CBLAS   interface :  Fast vector & matrix operations
   LAPACKE interface :  Fast linear algebra routines
   SCALAPACK package :  Parallel linear algebra routines
   Shared memory     :  Shared parallel matrices
   BLAS/LAPACK       :  OpenBLAS 0.3.15  USE64BITINT DYNAMIC_ARCH NO_AFFINITY SkylakeX SINGLE_THREADED
        Core in use  :  SkylakeX
   Copyright (c) 2011-2014, The OpenBLAS Project




***************************************
The coordinates will be read from file: lys_prot_aq.xyz
***************************************


Your calculation utilizes the atom-pairwise dispersion correction
based on tight binding partial charges (D4)
Cite in your paper:
E.Caldeweyher, C.Bannwarth, S.Grimme, J.Chem.Phys., (2017), 147, 034112.
E.Caldeweyher, S.Ehlert, A.Hansen, H.Neugebauer, S.Grimme, J.Chem.Phys., (2018), in progress.
   

XCFun DFT library Copyright 2009-2010 Ulf Ekstrom and contributors.
See http://admol.org/xcfun for more information.
This is free software; see the source code for copying conditions.
There is ABSOLUTELY NO WARRANTY; not even for MERCHANTABILITY or FITNESS FOR A PARTICULAR PURPOSE.
For details see the documentation.
Scientific users of this library should cite U. Ekstrom, L. Visscher, R. Bast, A. J. Thorvaldsen and K. Ruud;
J.Chem.Theor.Comp. 2010, DOI: 10.1021/ct100117s
XCFun Version 0.99 

================================================================================

----- Orbital basis set information -----
Your calculation utilizes the basis: def2-SVP
   F. Weigend and R. Ahlrichs, Phys. Chem. Chem. Phys. 7, 3297 (2005).

----- AuxJ basis set information -----
Your calculation utilizes the auxiliary basis: def2/J
   F. Weigend, Phys. Chem. Chem. Phys. 8, 1057 (2006).

================================================================================
                                        WARNINGS
                       Please study these warnings very carefully!
================================================================================


WARNING: Geometry Optimization
  ===> : Switching off AutoStart
         For restart on a previous wavefunction, please use MOREAD

INFO   : the flag for use of the SHARK integral package has been found!

================================================================================
                                       INPUT FILE
================================================================================
NAME = lys_prot_aq.inp
|  1> # ORCA 5.0.4 - /users/bwb16179/postgrad/2024_02/lysine/DFT/lys_prot_aq.inp # write input file
|  2> # Basic Mode
|  3> #
|  4> ! Opt Freq wB97X Def2-SVP D4 SlowConv TightSCF Defgrid2 Def2/J RIJCOSX CPCM(Water)
|  5> 
|  6> 
|  7> 
|  8> %maxcore 4500
|  9> 
| 10> %geom
| 11> Maxiter 150
| 12> END
| 13> 
| 14> * xyzfile 1 1 lys_prot_aq.xyz
| 15> 
| 16>                          ****END OF INPUT****
================================================================================

                       *****************************
                       * Geometry Optimization Run *
                       *****************************

Geometry optimization settings:
Update method            Update   .... BFGS
Choice of coordinates    CoordSys .... Z-matrix Internals
Initial Hessian          InHess   .... Almoef's Model

Convergence Tolerances:
Energy Change            TolE     ....  5.0000e-06 Eh
Max. Gradient            TolMAXG  ....  3.0000e-04 Eh/bohr
RMS Gradient             TolRMSG  ....  1.0000e-04 Eh/bohr
Max. Displacement        TolMAXD  ....  4.0000e-03 bohr
RMS Displacement         TolRMSD  ....  2.0000e-03 bohr
Strict Convergence                ....  False
------------------------------------------------------------------------------
                        ORCA OPTIMIZATION COORDINATE SETUP
------------------------------------------------------------------------------

The optimization will be done in new redundant internal coordinates
Making redundant internal coordinates   ...  (new redundants) done
Evaluating the initial hessian          ...  (Almloef) done
Evaluating the coordinates              ...  done
Calculating the B-matrix                .... done
Calculating the G-matrix                .... done
Diagonalizing the G-matrix              .... done
The first mode is                       ....   28
The number of degrees of freedom        ....   36

    -----------------------------------------------------------------
                    Redundant Internal Coordinates


    -----------------------------------------------------------------
         Definition                    Initial Value    Approx d2E/dq
    -----------------------------------------------------------------
      1. B(C   1,C   0)                  1.5258         0.379328   
      2. B(H   2,C   0)                  1.1104         0.334104   
      3. B(H   3,C   0)                  1.1109         0.333488   
      4. B(H   4,C   0)                  1.1109         0.333502   
      5. B(C   5,C   1)                  1.5341         0.367965   
      6. B(H   6,C   1)                  1.1117         0.332531   
      7. B(H   7,C   1)                  1.1117         0.332535   
      8. B(N   8,C   5)                  1.4625         0.428754   
      9. B(H   9,C   5)                  1.1130         0.330985   
     10. B(H  10,C   5)                  1.1129         0.331001   
     11. B(H  11,N   8)                  1.0460         0.379117   
     12. B(H  12,N   8)                  1.0456         0.379676   
     13. B(H  13,N   8)                  1.0460         0.379118   
     14. A(H   3,C   0,H   4)          109.1903         0.283947   
     15. A(C   1,C   0,H   4)          110.3381         0.321068   
     16. A(H   2,C   0,H   3)          108.6734         0.284027   
     17. A(C   1,C   0,H   2)          109.5883         0.321163   
     18. A(H   2,C   0,H   4)          108.6735         0.284028   
     19. A(C   1,C   0,H   3)          110.3376         0.321066   
     20. A(C   0,C   1,C   5)          111.1896         0.363361   
     21. A(H   6,C   1,H   7)          108.7081         0.283692   
     22. A(C   5,C   1,H   7)          109.5601         0.319325   
     23. A(C   0,C   1,H   7)          108.8896         0.320916   
     24. A(C   5,C   1,H   6)          109.5600         0.319325   
     25. A(C   0,C   1,H   6)          108.8897         0.320915   
     26. A(N   8,C   5,H   9)          109.2121         0.325223   
     27. A(C   1,C   5,H   9)          109.5214         0.319082   
     28. A(C   1,C   5,N   8)          110.9264         0.368752   
     29. A(H   9,C   5,H  10)          108.4025         0.283284   
     30. A(N   8,C   5,H  10)          109.2126         0.325226   
     31. A(C   1,C   5,H  10)          109.5222         0.319084   
     32. A(H  12,N   8,H  13)          108.8727         0.290877   
     33. A(H  11,N   8,H  13)          109.7181         0.290810   
     34. A(C   5,N   8,H  13)          110.1130         0.329757   
     35. A(H  11,N   8,H  12)          108.8732         0.290877   
     36. A(C   5,N   8,H  12)          109.1210         0.329837   
     37. A(C   5,N   8,H  11)          110.1132         0.329757   
     38. D(H   6,C   1,C   0,H   4)    178.8181         0.011470   
     39. D(H   7,C   1,C   0,H   3)   -178.8186         0.011470   
     40. D(C   5,C   1,C   0,H   3)     60.3735         0.011470   
     41. D(H   7,C   1,C   0,H   2)    -59.1926         0.011470   
     42. D(C   5,C   1,C   0,H   2)    179.9995         0.011470   
     43. D(H   6,C   1,C   0,H   3)    -60.4342         0.011470   
     44. D(H   7,C   1,C   0,H   4)     60.4337         0.011470   
     45. D(H   6,C   1,C   0,H   2)     59.1917         0.011470   
     46. D(C   5,C   1,C   0,H   4)    -60.3742         0.011470   
     47. D(H   9,C   5,C   1,H   6)    179.7903         0.010831   
     48. D(N   8,C   5,C   1,H   7)     59.5865         0.010831   
     49. D(N   8,C   5,C   1,H   6)    -59.5882         0.010831   
     50. D(N   8,C   5,C   1,C   0)    179.9992         0.010831   
     51. D(H   9,C   5,C   1,H   7)    -61.0350         0.010831   
     52. D(H  10,C   5,C   1,H   7)   -179.7908         0.010831   
     53. D(H  10,C   5,C   1,H   6)     61.0345         0.010831   
     54. D(H  10,C   5,C   1,C   0)    -59.3782         0.010831   
     55. D(H   9,C   5,C   1,C   0)     59.3777         0.010831   
     56. D(H  13,N   8,C   5,H   9)   -178.6381         0.016794   
     57. D(H  13,N   8,C   5,C   1)     60.5574         0.016794   
     58. D(H  12,N   8,C   5,H  10)     59.1940         0.016794   
     59. D(H  12,N   8,C   5,H   9)    -59.1956         0.016794   
     60. D(H  12,N   8,C   5,C   1)    179.9999         0.016794   
     61. D(H  11,N   8,C   5,H  10)    178.6372         0.016794   
     62. D(H  11,N   8,C   5,H   9)     60.2476         0.016794   
     63. D(H  13,N   8,C   5,H  10)    -60.2484         0.016794   
     64. D(H  11,N   8,C   5,C   1)    -60.5569         0.016794   
    -----------------------------------------------------------------

Number of atoms                         .... 14
Number of degrees of freedom            .... 64

         *************************************************************
         *                GEOMETRY OPTIMIZATION CYCLE   1            *
         *************************************************************
---------------------------------
CARTESIAN COORDINATES (ANGSTROEM)
---------------------------------
  C     -1.661120   -1.382500    0.014510
  C     -0.857000   -0.098550    0.196310
  H     -1.006280   -2.260710    0.195930
  H     -2.060780   -1.444530   -1.020150
  H     -2.506180   -1.414090    0.734890
  C     -1.728390    1.140530   -0.046340
  H     -0.006910   -0.101810   -0.520050
  H     -0.451300   -0.071430    1.230960
  N     -0.952200    2.367540    0.129380
  H     -2.581320    1.141170    0.668620
  H     -2.137270    1.110830   -1.081020
  H     -0.580100    2.421090    1.105480
  H     -1.571680    3.192210   -0.042150
  H     -0.159330    2.392340   -0.552410

----------------------------
CARTESIAN COORDINATES (A.U.)
----------------------------
  NO LB      ZA    FRAG     MASS         X           Y           Z
   0 C     6.0000    0    12.011   -3.139062   -2.612546    0.027420
   1 C     6.0000    0    12.011   -1.619495   -0.186233    0.370972
   2 H     1.0000    0     1.008   -1.901594   -4.272123    0.370254
   3 H     1.0000    0     1.008   -3.894310   -2.729766   -1.927804
   4 H     1.0000    0     1.008   -4.735994   -2.672243    1.388741
   5 C     6.0000    0    12.011   -3.266184    2.155289   -0.087570
   6 H     1.0000    0     1.008   -0.013058   -0.192393   -0.982752
   7 H     1.0000    0     1.008   -0.852833   -0.134983    2.326177
   8 N     7.0000    0    14.007   -1.799397    4.474002    0.244493
   9 H     1.0000    0     1.008   -4.877988    2.156499    1.263509
  10 H     1.0000    0     1.008   -4.038855    2.099164   -2.042832
  11 H     1.0000    0     1.008   -1.096230    4.575197    2.089054
  12 H     1.0000    0     1.008   -2.970045    6.032403   -0.079652
  13 H     1.0000    0     1.008   -0.301090    4.520867   -1.043904

--------------------------------
INTERNAL COORDINATES (ANGSTROEM)
--------------------------------
 C      0   0   0     0.000000000000     0.00000000     0.00000000
 C      1   0   0     1.525840036472     0.00000000     0.00000000
 H      1   2   0     1.110396976806   109.58829832     0.00000000
 H      1   2   3     1.110899253803   110.33764312   240.37408214
 H      1   2   3     1.110887787357   110.33805476   119.62636478
 C      2   1   3     1.534118248702   111.18958266   179.99946132
 H      2   1   3     1.111681287645   108.88965479    59.19170277
 H      2   1   3     1.111678283902   108.88960538   300.80735895
 N      6   2   1     1.462498538324   110.92644151   179.99917102
 H      6   2   1     1.112950042050   109.52142580    59.37766400
 H      6   2   1     1.112936497200   109.52223306   300.62183686
 H      9   6   2     1.045991024101   110.11316217   299.44306309
 H      9   6   2     1.045590082298   109.12100904   179.99986658
 H      9   6   2     1.045990191637   110.11303918    60.55740407

---------------------------
INTERNAL COORDINATES (A.U.)
---------------------------
 C      0   0   0     0.000000000000     0.00000000     0.00000000
 C      1   0   0     2.883419793104     0.00000000     0.00000000
 H      1   2   0     2.098346186098   109.58829832     0.00000000
 H      1   2   3     2.099295352065   110.33764312   240.37408214
 H      1   2   3     2.099273683623   110.33805476   119.62636478
 C      2   1   3     2.899063347097   111.18958266   179.99946132
 H      2   1   3     2.100773181854   108.88965479    59.19170277
 H      2   1   3     2.100767505603   108.88960538   300.80735895
 N      6   2   1     2.763721708693   110.92644151   179.99917102
 H      6   2   1     2.103170780211   109.52142580    59.37766400
 H      6   2   1     2.103145184154   109.52223306   300.62183686
 H      9   6   2     1.976636574091   110.11316217   299.44306309
 H      9   6   2     1.975878903887   109.12100904   179.99986658
 H      9   6   2     1.976635000961   110.11303918    60.55740407

---------------------
BASIS SET INFORMATION
---------------------
There are 3 groups of distinct atoms

 Group   1 Type C   : 7s4p1d contracted to 3s2p1d pattern {511/31/1}
 Group   2 Type H   : 4s1p contracted to 2s1p pattern {31/1}
 Group   3 Type N   : 7s4p1d contracted to 3s2p1d pattern {511/31/1}

Atom   0C    basis set group =>   1
Atom   1C    basis set group =>   1
Atom   2H    basis set group =>   2
Atom   3H    basis set group =>   2
Atom   4H    basis set group =>   2
Atom   5C    basis set group =>   1
Atom   6H    basis set group =>   2
Atom   7H    basis set group =>   2
Atom   8N    basis set group =>   3
Atom   9H    basis set group =>   2
Atom  10H    basis set group =>   2
Atom  11H    basis set group =>   2
Atom  12H    basis set group =>   2
Atom  13H    basis set group =>   2
---------------------------------
AUXILIARY/J BASIS SET INFORMATION
---------------------------------
There are 3 groups of distinct atoms

 Group   1 Type C   : 12s5p4d2f1g contracted to 6s4p3d1f1g pattern {711111/2111/211/2/1}
 Group   2 Type H   : 5s2p1d contracted to 3s1p1d pattern {311/2/1}
 Group   3 Type N   : 12s5p4d2f1g contracted to 6s4p3d1f1g pattern {711111/2111/211/2/1}

Atom   0C    basis set group =>   1
Atom   1C    basis set group =>   1
Atom   2H    basis set group =>   2
Atom   3H    basis set group =>   2
Atom   4H    basis set group =>   2
Atom   5C    basis set group =>   1
Atom   6H    basis set group =>   2
Atom   7H    basis set group =>   2
Atom   8N    basis set group =>   3
Atom   9H    basis set group =>   2
Atom  10H    basis set group =>   2
Atom  11H    basis set group =>   2
Atom  12H    basis set group =>   2
Atom  13H    basis set group =>   2
------------------------------------------------------------------------------
                           ORCA GTO INTEGRAL CALCULATION
                           -- RI-GTO INTEGRALS CHOSEN --
------------------------------------------------------------------------------
------------------------------------------------------------------------------
                   ___                                                        
                  /   \      - P O W E R E D   B Y -                         
                 /     \                                                     
                 |  |  |   _    _      __       _____    __    __             
                 |  |  |  | |  | |    /  \     |  _  \  |  |  /  |          
                  \  \/   | |  | |   /    \    | | | |  |  | /  /          
                 / \  \   | |__| |  /  /\  \   | |_| |  |  |/  /          
                |  |  |   |  __  | /  /__\  \  |    /   |      \           
                |  |  |   | |  | | |   __   |  |    \   |  |\   \          
                \     /   | |  | | |  |  |  |  | |\  \  |  | \   \       
                 \___/    |_|  |_| |__|  |__|  |_| \__\ |__|  \__/        
                                                                              
                      - O R C A' S   B I G   F R I E N D -                    
                                      &                                       
                       - I N T E G R A L  F E E D E R -                       
                                                                              
 v1 FN, 2020, v2 2021                                                         
------------------------------------------------------------------------------


Reading SHARK input file lys_prot_aq.SHARKINP.tmp ... ok
----------------------
SHARK INTEGRAL PACKAGE
----------------------

Number of atoms                             ...     14
Number of basis functions                   ...    106
Number of shells                            ...     54
Maximum angular momentum                    ...      2
Integral batch strategy                     ... SHARK/LIBINT Hybrid
RI-J (if used) integral strategy            ... SPLIT-RIJ (Revised 2003 algorithm where possible)
Printlevel                                  ...      1
Contraction scheme used                     ... SEGMENTED contraction
Coulomb Range Separation                    ... NOT USED
Exchange Range Separation                   ... Long Range
   Mu parameter                             ...  0.300000
   Scaling (regular/separated)              ...  0.157706  0.842294
Finite Nucleus Model                        ... NOT USED
Auxiliary Coulomb fitting basis             ... AVAILABLE
   # of basis functions in Aux-J            ...    306
   # of shells in Aux-J                     ...    110
   Maximum angular momentum in Aux-J        ...      4
Auxiliary J/K fitting basis                 ... NOT available
Auxiliary Correlation fitting basis         ... NOT available
Auxiliary 'external' fitting basis          ... NOT available
Integral threshold                          ...     2.500000e-11
Primitive cut-off                           ...     2.500000e-12
Primitive pair pre-selection threshold      ...     2.500000e-12

Calculating pre-screening integrals         ... done (  0.0 sec) Dimension = 54
Organizing shell pair data                  ... done (  0.0 sec)
Shell pair information
Total number of shell pairs                 ...      1485
Shell pairs after pre-screening             ...      1458
Total number of primitive shell pairs       ...      4933
Primitive shell pairs kept                  ...      3963
          la=0 lb=0:    522 shell pairs
          la=1 lb=0:    566 shell pairs
          la=1 lb=1:    163 shell pairs
          la=2 lb=0:    126 shell pairs
          la=2 lb=1:     71 shell pairs
          la=2 lb=2:     10 shell pairs

Calculating one electron integrals          ... done (  0.0 sec)
Calculating RI/J V-Matrix + Cholesky decomp.... done (  0.0 sec)
Calculating Nuclear repulsion               ... done (  0.0 sec) ENN=    139.402827121256 Eh

SHARK setup successfully completed in   0.2 seconds

Maximum memory used throughout the entire GTOINT-calculation: 10.7 MB
-------------------------------------------------------------------------------
                                 ORCA SCF
-------------------------------------------------------------------------------

------------
SCF SETTINGS
------------
Hamiltonian:
 Density Functional     Method          .... DFT(GTOs)
 Exchange Functional    Exchange        .... WB97X
 Correlation Functional Correlation     .... WB97X
 Gradients option       PostSCFGGA      .... off
 Hybrid DFT is turned on
   Fraction HF Exchange ScalHFX         ....  0.157706
   Scaling of DF-GGA-X  ScalDFX         ....  0.000000
   Scaling of DF-GGA-C  ScalDFC         ....  1.000000
   Scaling of DF-LDA-C  ScalLDAC        ....  1.000000
   Perturbative correction              ....  0.000000
   Density functional embedding theory  .... OFF
 Long-range corrected/Screened/Range-Separated Hybrid DFT is turned on
   Amount of maximum screened exact exchange              ....  0.842294
   Range separation parameter mu (erf(mu*r12)/r12)        ....  0.300000
 RI-approximation to the Coulomb term is turned on
   Number of AuxJ basis functions       .... 306
   RIJ-COSX (HFX calculated with COS-X)).... on


General Settings:
 Integral files         IntName         .... lys_prot_aq
 Hartree-Fock type      HFTyp           .... RHF
 Total Charge           Charge          ....    1
 Multiplicity           Mult            ....    1
 Number of Electrons    NEL             ....   34
 Basis Dimension        Dim             ....  106
 Nuclear Repulsion      ENuc            ....    139.4028271213 Eh

Convergence Acceleration:
 DIIS                   CNVDIIS         .... on
   Start iteration      DIISMaxIt       ....     0
   Startup error        DIISStart       ....  0.200000
   # of expansion vecs  DIISMaxEq       ....     5
   Bias factor          DIISBfac        ....   1.050
   Max. coefficient     DIISMaxC        ....  10.000
 Trust-Rad. Augm. Hess. CNVTRAH         .... auto
   Auto Start mean grad. ratio tolernc. ....  1.125000
   Auto Start start iteration           ....    20
   Auto Start num. interpolation iter.  ....    10
   Max. Number of Micro iterations      ....    16
   Max. Number of Macro iterations      .... Maxiter - #DIIS iter
   Number of Davidson start vectors     ....     2
   Converg. threshold I  (grad. norm)   ....   1.000e-05
   Converg. threshold II (energy diff.) ....   1.000e-08
   Grad. Scal. Fac. for Micro threshold ....   0.100
   Minimum threshold for Micro iter.    ....   0.010
   NR start threshold (gradient norm)   ....   0.001
   Initial trust radius                 ....   0.400
   Minimum AH scaling param. (alpha)    ....   1.000
   Maximum AH scaling param. (alpha)    .... 1000.000
   Orbital update algorithm             .... Taylor
   White noise on init. David. guess    .... on
   Maximum white noise                  ....   0.010
   Quad. conv. algorithm                .... NR
 SOSCF                  CNVSOSCF        .... on
   Start iteration      SOSCFMaxIt      ....   150
   Startup grad/error   SOSCFStart      ....  0.001000
 Level Shifting         CNVShift        .... on
   Level shift para.    LevelShift      ....    0.2500
   Turn off err/grad.   ShiftErr        ....    0.0000
 Zerner damping         CNVZerner       .... off
 Static damping         CNVDamp         .... on
   Fraction old density DampFac         ....    0.8500
   Max. Damping (<1)    DampMax         ....    0.9800
   Min. Damping (>=0)   DampMin         ....    0.0000
   Turn off err/grad.   DampErr         ....    0.0300
 Fernandez-Rico         CNVRico         .... off

SCF Procedure:
 Maximum # iterations   MaxIter         ....   125
 SCF integral mode      SCFMode         .... Direct
   Integral package                     .... SHARK and LIBINT hybrid scheme
 Reset frequency        DirectResetFreq ....    20
 Integral Threshold     Thresh          ....  2.500e-11 Eh
 Primitive CutOff       TCut            ....  2.500e-12 Eh

Convergence Tolerance:
 Convergence Check Mode ConvCheckMode   .... Total+1el-Energy
 Convergence forced     ConvForced      .... 0
 Energy Change          TolE            ....  1.000e-08 Eh
 1-El. energy change                    ....  1.000e-05 Eh
 Orbital Gradient       TolG            ....  1.000e-05
 Orbital Rotation angle TolX            ....  1.000e-05
 DIIS Error             TolErr          ....  5.000e-07


Diagonalization of the overlap matrix:
Smallest eigenvalue                        ... 2.041e-03
Time for diagonalization                   ...    0.002 sec
Threshold for overlap eigenvalues          ... 1.000e-08
Number of eigenvalues below threshold      ... 0
Time for construction of square roots      ...    0.001 sec
Total time needed                          ...    0.003 sec

Time for model grid setup =    0.107 sec

------------------------------
INITIAL GUESS: MODEL POTENTIAL
------------------------------
Loading Hartree-Fock densities                     ... done
Calculating cut-offs                               ... done
Initializing the effective Hamiltonian             ... done
Setting up the integral package (SHARK)            ... done
Starting the Coulomb interaction                   ... done (   0.1 sec)
Reading the grid                                   ... done
Mapping shells                                     ... done
Starting the XC term evaluation                    ... done (   0.1 sec)
  promolecular density results
     # of electrons  =     34.999976034
     EX              =    -24.846188117
     EC              =     -1.125921548
     EX+EC           =    -25.972109665
Transforming the Hamiltonian                       ... done (   0.0 sec)
Diagonalizing the Hamiltonian                      ... done (   0.0 sec)
Back transforming the eigenvectors                 ... done (   0.0 sec)
Now organizing SCF variables                       ... done
                      ------------------
                      INITIAL GUESS DONE (   0.3 sec)
                      ------------------
-------------------
DFT GRID GENERATION
-------------------

General Integration Accuracy     IntAcc      ... 4.388
Radial Grid Type                 RadialGrid  ... OptM3 with GC (2021)
Angular Grid (max. ang.)         AngularGrid ... 4 (Lebedev-302)
Angular grid pruning method      GridPruning ... 4 (adaptive)
Weight generation scheme         WeightScheme... Becke
Basis function cutoff            BFCut       ... 1.0000e-11
Integration weight cutoff        WCut        ... 1.0000e-14
Angular grids for H and He will be reduced by one unit
Partially contracted basis set               ... off
Rotationally invariant grid construction     ... off

Total number of grid points                  ...    56378
Total number of batches                      ...      889
Average number of points per batch           ...       63
Average number of grid points per atom       ...     4027
Time for grid setup =    0.517 sec

--------------------
COSX GRID GENERATION
--------------------

GRIDX 1
-------
General Integration Accuracy     IntAcc      ... 3.816
Radial Grid Type                 RadialGrid  ... OptM3 with GC (2021)
Angular Grid (max. ang.)         AngularGrid ... 1 (Lebedev-50)
Angular grid pruning method      GridPruning ... 4 (adaptive)
Weight generation scheme         WeightScheme... Becke
Basis function cutoff            BFCut       ... 1.0000e-11
Integration weight cutoff        WCut        ... 1.0000e-14
Angular grids for H and He will be reduced by one unit
Partially contracted basis set               ... on
Rotationally invariant grid construction     ... off

Total number of grid points                  ...     7256
Total number of batches                      ...      121
Average number of points per batch           ...       59
Average number of grid points per atom       ...      518
UseSFitting                                  ... on

GRIDX 2
-------
General Integration Accuracy     IntAcc      ... 4.020
Radial Grid Type                 RadialGrid  ... OptM3 with GC (2021)
Angular Grid (max. ang.)         AngularGrid ... 2 (Lebedev-110)
Angular grid pruning method      GridPruning ... 4 (adaptive)
Weight generation scheme         WeightScheme... Becke
Basis function cutoff            BFCut       ... 1.0000e-11
Integration weight cutoff        WCut        ... 1.0000e-14
Angular grids for H and He will be reduced by one unit
Partially contracted basis set               ... on
Rotationally invariant grid construction     ... off

Total number of grid points                  ...    14941
Total number of batches                      ...      240
Average number of points per batch           ...       62
Average number of grid points per atom       ...     1067
UseSFitting                                  ... on

GRIDX 3
-------
General Integration Accuracy     IntAcc      ... 4.338
Radial Grid Type                 RadialGrid  ... OptM3 with GC (2021)
Angular Grid (max. ang.)         AngularGrid ... 3 (Lebedev-194)
Angular grid pruning method      GridPruning ... 4 (adaptive)
Weight generation scheme         WeightScheme... Becke
Basis function cutoff            BFCut       ... 1.0000e-11
Integration weight cutoff        WCut        ... 1.0000e-14
Angular grids for H and He will be reduced by one unit
Partially contracted basis set               ... on
Rotationally invariant grid construction     ... off

Total number of grid points                  ...    32644
Total number of batches                      ...      517
Average number of points per batch           ...       63
Average number of grid points per atom       ...     2332
UseSFitting                                  ... on

Time for X-Grid setup             =    0.555 sec


--------------------
CPCM SOLVATION MODEL
--------------------
CPCM parameters:
  Epsilon                                         ...      80.4000
  Refrac                                          ...       1.3300
  Rsolv                                           ...       1.3000
  Surface type                                    ... GAUSSIAN VDW
  Epsilon function type                           ...         CPCM
Radii:
 Radius for C  used is    3.8550 Bohr (=   2.0400 Ang.)
 Radius for H  used is    2.4944 Bohr (=   1.3200 Ang.)
 Radius for N  used is    3.5149 Bohr (=   1.8600 Ang.)
Calculating surface                               ...        done! (  0.0s)
GEPOL surface points                              ...          848
GEPOL Volume                                      ...     654.2526
GEPOL Surface-area                                ...     421.5054
Calculating surface distance matrix               ...        done! (  0.0s)
Performing Cholesky decomposition & store         ...        done! (  0.0s)
Overall time for CPCM initialization              ...                 0.0s
--------------
SCF ITERATIONS
--------------
ITER       Energy         Delta-E        Max-DP      RMS-DP      [F,P]     Damp
               ***  Starting incremental Fock matrix formation  ***
  0   -174.6928848705   0.000000000000 0.03214980  0.00090682  0.1543874 0.8500
  1   -174.7130389889  -0.020154118310 0.02893320  0.00085012  0.1238044 0.8500
                               ***Turning on DIIS***
  2   -174.7281188909  -0.015079902089 0.02251849  0.00068369  0.0943163 0.8500
  3   -174.7391501893  -0.011031298369 0.01377235  0.00046048  0.0708352 0.8500
  4   -174.7475728312  -0.008422641851 0.00909225  0.00033781  0.0560917 0.8500
  5   -174.7541580426  -0.006585211422 0.00682143  0.00027111  0.0462450 0.8500
  6   -174.7594877738  -0.005329731202 0.00548390  0.00022651  0.0388501 0.8500
  7   -174.7638870324  -0.004399258614 0.00466101  0.00019490  0.0328980 0.8500
  8   -174.7675611475  -0.003674115084 0.02655218  0.00111778  0.0278338 0.0000
  9   -174.7872507093  -0.019689561801 0.00121815  0.00003938  0.0011300 0.0000
                      *** Initiating the SOSCF procedure ***
                           *** Shutting down DIIS ***
                      *** Re-Reading the Fockian *** 
                      *** Removing any level shift *** 
ITER      Energy       Delta-E        Grad      Rot      Max-DP    RMS-DP
 10   -174.78725765  -0.0000069455  0.000118  0.000118  0.000326  0.000015
               *** Restarting incremental Fock matrix formation ***
 11   -174.78725543   0.0000022292  0.000058  0.000093  0.000250  0.000010
 12   -174.78725552  -0.0000000982  0.000021  0.000056  0.000139  0.000006
 13   -174.78725554  -0.0000000132  0.000010  0.000011  0.000032  0.000001
                 **** Energy Check signals convergence ****
              ***Rediagonalizing the Fockian in SOSCF/NRSCF***

               *****************************************************
               *                     SUCCESS                       *
               *           SCF CONVERGED AFTER  14 CYCLES          *
               *****************************************************

Old exchange energy                            =     -8.471570355 Eh
New exchange energy                            =     -8.471561745 Eh
Exchange energy change after final integration =      0.000008610 Eh
Total energy after final integration           =   -174.787246930 Eh
Final COS-X integration done in                =     7.810 sec

----------------
TOTAL SCF ENERGY
----------------

Total Energy       :         -174.78724693 Eh           -4756.20279 eV

Components:
Nuclear Repulsion  :          139.40282712 Eh            3793.34378 eV
Electronic Energy  :         -314.19007405 Eh           -8549.54657 eV
One Electron Energy:         -502.14958018 Eh          -13664.18475 eV
Two Electron Energy:          187.95950613 Eh            5114.63818 eV
Max COSX asymmetry :            0.00000232 Eh               0.00006 eV
CPCM Dielectric    :           -0.11436029 Eh              -3.11190 eV

Virial components:
Potential Energy   :         -347.07530692 Eh           -9444.39925 eV
Kinetic Energy     :          172.28805999 Eh            4688.19646 eV
Virial Ratio       :            2.01450586


DFT components:
N(Alpha)           :       16.999939604775 electrons
N(Beta)            :       16.999939604775 electrons
N(Total)           :       33.999879209549 electrons
E(XC)              :      -18.066003735516 Eh       
DFET-embed. en.    :        0.000000000000 Eh       
CPCM Solvation Model Properties:
Surface-charge          :           -1.01248834
Charge-correction       :            0.00205299 Eh               0.05586 eV
Free-energy (cav+disp)  :  This term is not implemented in the current solvation scheme

---------------
SCF CONVERGENCE
---------------

  Last Energy change         ...   -3.0960e-09  Tolerance :   1.0000e-08
  Last MAX-Density change    ...    2.2204e-15  Tolerance :   1.0000e-07
  Last RMS-Density change    ...    4.6400e-17  Tolerance :   5.0000e-09
  Last Orbital Gradient      ...    8.4442e-07  Tolerance :   1.0000e-05
  Last Orbital Rotation      ...    1.3524e-06  Tolerance :   1.0000e-05

             **** THE GBW FILE WAS UPDATED (lys_prot_aq.gbw) ****
             **** DENSITY lys_prot_aq.scfp WAS UPDATED ****
             **** ENERGY FILE WAS UPDATED (lys_prot_aq.en.tmp) ****
             **** THE GBW FILE WAS UPDATED (lys_prot_aq.gbw) ****
             **** DENSITY lys_prot_aq.scfp WAS UPDATED ****
----------------
ORBITAL ENERGIES
----------------

  NO   OCC          E(Eh)            E(eV) 
   0   2.0000     -14.533677      -395.4815 
   1   2.0000     -10.331416      -281.1321 
   2   2.0000     -10.283721      -279.8343 
   3   2.0000     -10.269958      -279.4598 
   4   2.0000      -1.122825       -30.5536 
   5   2.0000      -0.917470       -24.9656 
   6   2.0000      -0.814087       -22.1524 
   7   2.0000      -0.731724       -19.9112 
   8   2.0000      -0.697984       -18.9931 
   9   2.0000      -0.671130       -18.2624 
  10   2.0000      -0.616207       -16.7679 
  11   2.0000      -0.578075       -15.7302 
  12   2.0000      -0.523886       -14.2557 
  13   2.0000      -0.498586       -13.5672 
  14   2.0000      -0.475091       -12.9279 
  15   2.0000      -0.452287       -12.3073 
  16   2.0000      -0.443856       -12.0779 
  17   0.0000       0.121588         3.3086 
  18   0.0000       0.151094         4.1115 
  19   0.0000       0.167064         4.5461 
  20   0.0000       0.175074         4.7640 
  21   0.0000       0.211218         5.7475 
  22   0.0000       0.225742         6.1428 
  23   0.0000       0.227715         6.1964 
  24   0.0000       0.242985         6.6120 
  25   0.0000       0.246699         6.7130 
  26   0.0000       0.258279         7.0281 
  27   0.0000       0.284570         7.7435 
  28   0.0000       0.307483         8.3670 
  29   0.0000       0.313436         8.5290 
  30   0.0000       0.499002        13.5785 
  31   0.0000       0.511108        13.9080 
  32   0.0000       0.512966        13.9585 
  33   0.0000       0.521517        14.1912 
  34   0.0000       0.533361        14.5135 
  35   0.0000       0.595416        16.2021 
  36   0.0000       0.629833        17.1386 
  37   0.0000       0.665482        18.1087 
  38   0.0000       0.706417        19.2226 
  39   0.0000       0.723849        19.6969 
  40   0.0000       0.738501        20.0956 
  41   0.0000       0.742706        20.2101 
  42   0.0000       0.765251        20.8235 
  43   0.0000       0.778121        21.1738 
  44   0.0000       0.782733        21.2993 
  45   0.0000       0.793573        21.5942 
  46   0.0000       0.799717        21.7614 
  47   0.0000       0.801653        21.8141 
  48   0.0000       0.827985        22.5306 
  49   0.0000       0.832377        22.6501 
  50   0.0000       0.926146        25.2017 
  51   0.0000       0.960138        26.1267 
  52   0.0000       0.961607        26.1667 
  53   0.0000       1.078809        29.3559 
  54   0.0000       1.107219        30.1290 
  55   0.0000       1.202412        32.7193 
  56   0.0000       1.247090        33.9351 
  57   0.0000       1.332167        36.2501 
  58   0.0000       1.366977        37.1973 
  59   0.0000       1.436378        39.0858 
  60   0.0000       1.452812        39.5330 
  61   0.0000       1.474939        40.1351 
  62   0.0000       1.602216        43.5985 
  63   0.0000       1.607815        43.7509 
  64   0.0000       1.638439        44.5842 
  65   0.0000       1.756519        47.7973 
  66   0.0000       1.812074        49.3091 
  67   0.0000       1.844247        50.1845 
  68   0.0000       1.859786        50.6073 
  69   0.0000       1.878760        51.1237 
  70   0.0000       1.901894        51.7532 
  71   0.0000       1.908408        51.9304 
  72   0.0000       1.909601        51.9629 
  73   0.0000       1.933666        52.6177 
  74   0.0000       1.934809        52.6488 
  75   0.0000       1.961634        53.3788 
  76   0.0000       1.972856        53.6841 
  77   0.0000       1.991769        54.1988 
  78   0.0000       2.037786        55.4510 
  79   0.0000       2.060159        56.0598 
  80   0.0000       2.086103        56.7658 
  81   0.0000       2.108559        57.3768 
  82   0.0000       2.171350        59.0854 
  83   0.0000       2.206015        60.0287 
  84   0.0000       2.265878        61.6577 
  85   0.0000       2.368312        64.4450 
  86   0.0000       2.405404        65.4544 
  87   0.0000       2.466220        67.1093 
  88   0.0000       2.489382        67.7395 
  89   0.0000       2.494679        67.8837 
  90   0.0000       2.535591        68.9969 
  91   0.0000       2.599327        70.7313 
  92   0.0000       2.659599        72.3714 
  93   0.0000       2.681730        72.9736 
  94   0.0000       2.756047        74.9958 
  95   0.0000       2.810558        76.4792 
  96   0.0000       2.840422        77.2918 
  97   0.0000       2.961071        80.5748 
  98   0.0000       2.990586        81.3780 
  99   0.0000       3.004632        81.7602 
 100   0.0000       3.093176        84.1696 
 101   0.0000       3.107865        84.5693 
 102   0.0000       3.161539        86.0299 
 103   0.0000       3.200468        87.0892 
 104   0.0000       3.340939        90.9116 
 105   0.0000       3.361958        91.4835 

                    ********************************
                    * MULLIKEN POPULATION ANALYSIS *
                    ********************************

-----------------------
MULLIKEN ATOMIC CHARGES
-----------------------
   0 C :   -0.069729
   1 C :   -0.120862
   2 H :    0.054375
   3 H :    0.046865
   4 H :    0.046749
   5 C :   -0.007818
   6 H :    0.059310
   7 H :    0.059491
   8 N :    0.007816
   9 H :    0.094909
  10 H :    0.095199
  11 H :    0.243608
  12 H :    0.246647
  13 H :    0.243437
Sum of atomic charges:    1.0000000

--------------------------------
MULLIKEN REDUCED ORBITAL CHARGES
--------------------------------
  0 C s       :     3.038943  s :     3.038943
      pz      :     1.024269  p :     3.003651
      px      :     1.005302
      py      :     0.974080
      dz2     :     0.006051  d :     0.027135
      dxz     :     0.007010
      dyz     :     0.002224
      dx2y2   :     0.004435
      dxy     :     0.007414
  1 C s       :     3.075905  s :     3.075905
      pz      :     1.035797  p :     3.009997
      px      :     1.021917
      py      :     0.952283
      dz2     :     0.006904  d :     0.034960
      dxz     :     0.008483
      dyz     :     0.004152
      dx2y2   :     0.006344
      dxy     :     0.009076
  2 H s       :     0.922626  s :     0.922626
      pz      :     0.004759  p :     0.022999
      px      :     0.007788
      py      :     0.010451
  3 H s       :     0.930091  s :     0.930091
      pz      :     0.013510  p :     0.023044
      px      :     0.005628
      py      :     0.003906
  4 H s       :     0.930194  s :     0.930194
      pz      :     0.008869  p :     0.023056
      px      :     0.010312
      py      :     0.003875
  5 C s       :     3.065349  s :     3.065349
      pz      :     1.092620  p :     2.895786
      px      :     0.987627
      py      :     0.815539
      dz2     :     0.008861  d :     0.046682
      dxz     :     0.008693
      dyz     :     0.005304
      dx2y2   :     0.009457
      dxy     :     0.014367
  6 H s       :     0.918723  s :     0.918723
      pz      :     0.008649  p :     0.021967
      px      :     0.010114
      py      :     0.003204
  7 H s       :     0.918556  s :     0.918556
      pz      :     0.013620  p :     0.021953
      px      :     0.005145
      py      :     0.003188
  8 N s       :     3.311981  s :     3.311981
      pz      :     1.216105  p :     3.662669
      px      :     1.217204
      py      :     1.229360
      dz2     :     0.003448  d :     0.017534
      dxz     :     0.004292
      dyz     :     0.001872
      dx2y2   :     0.003444
      dxy     :     0.004478
  9 H s       :     0.883374  s :     0.883374
      pz      :     0.008921  p :     0.021717
      px      :     0.010661
      py      :     0.002134
 10 H s       :     0.883101  s :     0.883101
      pz      :     0.014442  p :     0.021700
      px      :     0.005087
      py      :     0.002171
 11 H s       :     0.713210  s :     0.713210
      pz      :     0.026818  p :     0.043182
      px      :     0.009836
      py      :     0.006528
 12 H s       :     0.710129  s :     0.710129
      pz      :     0.007953  p :     0.043224
      px      :     0.014913
      py      :     0.020358
 13 H s       :     0.713365  s :     0.713365
      pz      :     0.016859  p :     0.043197
      px      :     0.019854
      py      :     0.006485


                     *******************************
                     * LOEWDIN POPULATION ANALYSIS *
                     *******************************

----------------------
LOEWDIN ATOMIC CHARGES
----------------------
   0 C :   -0.062743
   1 C :   -0.052709
   2 H :    0.037280
   3 H :    0.032405
   4 H :    0.032349
   5 C :    0.039197
   6 H :    0.037133
   7 H :    0.037265
   8 N :    0.300159
   9 H :    0.052814
  10 H :    0.052939
  11 H :    0.163617
  12 H :    0.166717
  13 H :    0.163576

-------------------------------
LOEWDIN REDUCED ORBITAL CHARGES
-------------------------------
  0 C s       :     2.842910  s :     2.842910
      pz      :     1.067706  p :     3.150536
      px      :     1.055306
      py      :     1.027524
      dz2     :     0.016217  d :     0.069297
      dxz     :     0.017735
      dyz     :     0.004476
      dx2y2   :     0.010985
      dxy     :     0.019884
  1 C s       :     2.844032  s :     2.844032
      pz      :     1.067398  p :     3.122819
      px      :     1.045770
      py      :     1.009651
      dz2     :     0.018139  d :     0.085858
      dxz     :     0.020823
      dyz     :     0.008011
      dx2y2   :     0.014991
      dxy     :     0.023893
  2 H s       :     0.899308  s :     0.899308
      pz      :     0.012416  p :     0.063411
      px      :     0.021568
      py      :     0.029427
  3 H s       :     0.904157  s :     0.904157
      pz      :     0.036284  p :     0.063438
      px      :     0.015327
      py      :     0.011828
  4 H s       :     0.904210  s :     0.904210
      pz      :     0.023507  p :     0.063440
      px      :     0.028177
      py      :     0.011756
  5 C s       :     2.843968  s :     2.843968
      pz      :     1.093607  p :     3.010862
      px      :     1.016736
      py      :     0.900519
      dz2     :     0.021519  d :     0.105973
      dxz     :     0.020868
      dyz     :     0.009390
      dx2y2   :     0.020583
      dxy     :     0.033613
  6 H s       :     0.898401  s :     0.898401
      pz      :     0.023629  p :     0.064466
      px      :     0.028861
      py      :     0.011977
  7 H s       :     0.898269  s :     0.898269
      pz      :     0.036863  p :     0.064466
      px      :     0.015673
      py      :     0.011931
  8 N s       :     3.001752  s :     3.001752
      pz      :     1.216069  p :     3.653272
      px      :     1.217851
      py      :     1.219352
      dz2     :     0.009888  d :     0.044817
      dxz     :     0.011443
      dyz     :     0.003505
      dx2y2   :     0.008012
      dxy     :     0.011969
  9 H s       :     0.882490  s :     0.882490
      pz      :     0.024733  p :     0.064695
      px      :     0.031051
      py      :     0.008911
 10 H s       :     0.882353  s :     0.882353
      pz      :     0.039786  p :     0.064708
      px      :     0.015909
      py      :     0.009013
 11 H s       :     0.729643  s :     0.729643
      pz      :     0.066032  p :     0.106740
      px      :     0.023608
      py      :     0.017101
 12 H s       :     0.726210  s :     0.726210
      pz      :     0.017566  p :     0.107073
      px      :     0.036772
      py      :     0.052735
 13 H s       :     0.729681  s :     0.729681
      pz      :     0.040352  p :     0.106743
      px      :     0.049409
      py      :     0.016982


                      *****************************
                      * MAYER POPULATION ANALYSIS *
                      *****************************

  NA   - Mulliken gross atomic population
  ZA   - Total nuclear charge
  QA   - Mulliken gross atomic charge
  VA   - Mayer's total valence
  BVA  - Mayer's bonded valence
  FA   - Mayer's free valence

  ATOM       NA         ZA         QA         VA         BVA        FA
  0 C      6.0697     6.0000    -0.0697     4.0195     4.0195     0.0000
  1 C      6.1209     6.0000    -0.1209     4.0799     4.0799    -0.0000
  2 H      0.9456     1.0000     0.0544     0.9853     0.9853     0.0000
  3 H      0.9531     1.0000     0.0469     0.9881     0.9881     0.0000
  4 H      0.9533     1.0000     0.0467     0.9881     0.9881     0.0000
  5 C      6.0078     6.0000    -0.0078     3.9707     3.9707    -0.0000
  6 H      0.9407     1.0000     0.0593     0.9774     0.9774    -0.0000
  7 H      0.9405     1.0000     0.0595     0.9774     0.9774    -0.0000
  8 N      6.9922     7.0000     0.0078     3.7365     3.7365    -0.0000
  9 H      0.9051     1.0000     0.0949     0.9803     0.9803    -0.0000
 10 H      0.9048     1.0000     0.0952     0.9801     0.9801     0.0000
 11 H      0.7564     1.0000     0.2436     0.9473     0.9473     0.0000
 12 H      0.7534     1.0000     0.2466     0.9430     0.9430    -0.0000
 13 H      0.7566     1.0000     0.2434     0.9474     0.9474     0.0000

  Mayer bond orders larger than 0.100000
B(  0-C ,  1-C ) :   1.0921 B(  0-C ,  2-H ) :   0.9728 B(  0-C ,  3-H ) :   0.9749 
B(  0-C ,  4-H ) :   0.9749 B(  1-C ,  5-C ) :   1.0604 B(  1-C ,  6-H ) :   0.9530 
B(  1-C ,  7-H ) :   0.9531 B(  5-C ,  8-N ) :   0.9787 B(  5-C ,  9-H ) :   0.9554 
B(  5-C , 10-H ) :   0.9554 B(  8-N , 11-H ) :   0.9202 B(  8-N , 12-H ) :   0.9181 
B(  8-N , 13-H ) :   0.9202 

-------
TIMINGS
-------

Total SCF time: 0 days 0 hours 0 min 58 sec 

Total time                  ....      58.305 sec
Sum of individual times     ....      58.054 sec  ( 99.6%)

Fock matrix formation       ....      56.630 sec  ( 97.1%)
  Split-RI-J                ....       1.886 sec  (  3.3% of F)
  Chain of spheres X        ....      41.344 sec  ( 73.0% of F)
  XC integration            ....       9.001 sec  ( 15.9% of F)
    Basis function eval.    ....       3.344 sec  ( 37.2% of XC)
    Density eval.           ....       1.605 sec  ( 17.8% of XC)
    XC-Functional eval.     ....       1.840 sec  ( 20.4% of XC)
    XC-Potential eval.      ....       1.890 sec  ( 21.0% of XC)
Diagonalization             ....       0.023 sec  (  0.0%)
Density matrix formation    ....       0.002 sec  (  0.0%)
Population analysis         ....       0.005 sec  (  0.0%)
Initial guess               ....       0.201 sec  (  0.3%)
Orbital Transformation      ....       0.000 sec  (  0.0%)
Orbital Orthonormalization  ....       0.000 sec  (  0.0%)
DIIS solution               ....       0.008 sec  (  0.0%)
SOSCF solution              ....       0.005 sec  (  0.0%)
Grid generation             ....       1.180 sec  (  2.0%)

Maximum memory used throughout the entire SCF-calculation: 54.6 MB


-------------------------------------------------------------------------------
                          DFT DISPERSION CORRECTION                            
                                                                               
                                 DFTD4 V2.5                                    
-------------------------------------------------------------------------------
The WB97X functional is recognized
Active option DFTDOPT                   ...         5   

Starting D4
-------------------------   ----------------
Dispersion correction           -0.000862302
-------------------------   ----------------


-------------------------   --------------------
FINAL SINGLE POINT ENERGY      -174.788109232705
-------------------------   --------------------

------------------------------------------------------------------------------
                         ORCA SCF GRADIENT CALCULATION
------------------------------------------------------------------------------

 ... reading COSX grid (gridx3)
Gradient of the Kohn-Sham DFT energy:
Kohn-Sham wavefunction type      ... RKS
Hartree-Fock exchange scaling    ...    0.158
Number of operators              ...    1
Number of atoms                  ...   14
Basis set dimensions             ...  106
Integral neglect threshold       ... 2.5e-11
Integral primitive cutoff        ... 2.5e-12
SHARK Integral package           ... ON

Nuc. rep. gradient       (SHARK) ... done (  0.0 sec)
HCore & Overlap gradient (SHARK) ... done (  0.1 sec)
RI-J gradient            (SHARK) ... done (  0.5 sec)
COSX-gradient                    ... done (  8.5 sec)
Exchange-correlation gradient    ... done
Dispersion correction            ... Starting D4


------------------- 
Dispersion Gradient 
------------------- 
   1  :   -0.000004114   -0.000016146   -0.000000764
   2  :    0.000003286   -0.000003505    0.000000895
   3  :   -0.000000578   -0.000004509   -0.000000068
   4  :   -0.000000197   -0.000004971    0.000000458
   5  :    0.000000004   -0.000004985   -0.000000334
   6  :   -0.000004940   -0.000000306   -0.000001248
   7  :   -0.000001173   -0.000001225    0.000000390
   8  :   -0.000000855   -0.000001246   -0.000000862
   9  :    0.000001433    0.000014956    0.000000104
  10  :    0.000001978    0.000002384   -0.000000475
  11  :    0.000001532    0.000002415    0.000001282
  12  :    0.000002461    0.000003895    0.000004965
  13  :   -0.000003400    0.000009491   -0.000001028
  14  :    0.000004563    0.000003751   -0.000003315

  |G| =    0.000028568

done

------------------
CARTESIAN GRADIENT
------------------

   1   C   :   -0.000553119    0.001504825   -0.000066932
   2   C   :    0.002051188   -0.000906351    0.000296984
   3   H   :    0.005965419   -0.004244391    0.001568248
   4   H   :   -0.000850249    0.001457564   -0.006464724
   5   H   :   -0.003788685    0.001696482    0.005247821
   6   C   :    0.008766398    0.028075221    0.001811032
   7   H   :    0.002499056   -0.002181633   -0.005479394
   8   H   :   -0.000319110   -0.002026579    0.006101810
   9   N   :   -0.001084649   -0.015416716   -0.000247457
  10   H   :   -0.006687879   -0.003848344    0.005938955
  11   H   :   -0.003217590   -0.004090141   -0.008283897
  12   H   :    0.002294433   -0.003685273    0.015999865
  13   H   :   -0.014808105    0.007916912   -0.003686391
  14   H   :    0.009726057   -0.004213609   -0.012715219

Difference to translation invariance:
           :   -0.0000068351    0.0000379661    0.0000207025

Difference to rotation invariance:
           :    0.0005253518    0.0008516709    0.0004003336

Norm of the cartesian gradient     ...    0.0487629344
RMS gradient                       ...    0.0075242841
MAX gradient                       ...    0.0280752206

-------
TIMINGS
-------

Total SCF gradient time            ...       12.617 sec

One electron gradient       ....       0.090 sec  (  0.7%)
RI-J Coulomb gradient       ....       0.459 sec  (  3.6%)
COSX gradient               ....       8.509 sec  ( 67.4%)
XC gradient                 ....       2.746 sec  ( 21.8%)
CPCM gradient               ....       0.266 sec  (  2.1%)
   A-Matrix (El+Nuc)        ....       0.037 sec  (  0.3%)
   Potential                ....       0.230 sec  (  1.8%)

Maximum memory used throughout the entire SCFGRAD-calculation: 43.0 MB
------------------------------------------------------------------------------
                         ORCA GEOMETRY RELAXATION STEP
------------------------------------------------------------------------------

Reading the OPT-File                    .... done
Getting information on internals        .... done
Copying old internal coords+grads       .... done
Making the new internal coordinates     .... (new redundants).... done
Validating the new internal coordinates .... (new redundants).... done
Calculating the B-matrix                .... done
Calculating the G,G- and P matrices     .... done
Transforming gradient to internals      .... done
Projecting the internal gradient        .... done
Number of atoms                         ....  14
Number of internal coordinates          ....  64
Current Energy                          ....  -174.788109233 Eh
Current gradient norm                   ....     0.048762934 Eh/bohr
Maximum allowed component of the step   ....  0.300
Current trust radius                    ....  0.300
Evaluating the initial hessian          ....  (Almloef) done
Projecting the Hessian                  .... done
Forming the augmented Hessian           .... done
Diagonalizing the augmented Hessian     .... done
Last element of RFO vector              ....  0.992366597
Lowest eigenvalues of augmented Hessian:
 -0.004893593  0.010831845  0.011470191  0.016793793  0.078010435
Length of the computed step             ....  0.124271511
The final length of the internal step   ....  0.124271511
Converting the step to cartesian space:
 Initial RMS(Int)=    0.0155339388
Transforming coordinates:
 Iter   0:  RMS(Cart)=    0.0221652904 RMS(Int)=    1.3577490062
 Iter   1:  RMS(Cart)=    0.0003247558 RMS(Int)=    0.0002259207
 Iter   2:  RMS(Cart)=    0.0000098085 RMS(Int)=    0.0000083357
 Iter   3:  RMS(Cart)=    0.0000003170 RMS(Int)=    0.0000002485
 Iter   4:  RMS(Cart)=    0.0000000090 RMS(Int)=    0.0000000067
done
Storing new coordinates                 .... done

                                .--------------------.
          ----------------------|Geometry convergence|-------------------------
          Item                value                   Tolerance       Converged
          ---------------------------------------------------------------------
          RMS gradient        0.0051452618            0.0001000000      NO
          MAX gradient        0.0156144601            0.0003000000      NO
          RMS step            0.0155339388            0.0020000000      NO
          MAX step            0.0406024230            0.0040000000      NO
          ........................................................
          Max(Bonds)      0.0215      Max(Angles)    1.54
          Max(Dihed)        1.07      Max(Improp)    0.00
          ---------------------------------------------------------------------

The optimization has not yet converged - more geometry cycles are needed


    ---------------------------------------------------------------------------
                         Redundant Internal Coordinates
                            (Angstroem and degrees)

        Definition                    Value    dE/dq     Step     New-Value
    ----------------------------------------------------------------------------
     1. B(C   1,C   0)                1.5258 -0.000770  0.0011    1.5269   
     2. B(H   2,C   0)                1.1104  0.007128 -0.0111    1.0993   
     3. B(H   3,C   0)                1.1109  0.006245 -0.0098    1.1011   
     4. B(H   4,C   0)                1.1109  0.006246 -0.0098    1.1011   
     5. B(C   5,C   1)                1.5341  0.006823 -0.0097    1.5244   
     6. B(H   6,C   1)                1.1117  0.005433 -0.0085    1.1032   
     7. B(H   7,C   1)                1.1117  0.005526 -0.0087    1.1030   
     8. B(N   8,C   5)                1.4625 -0.015050  0.0184    1.4809   
     9. B(H   9,C   5)                1.1130  0.008920 -0.0141    1.0989   
    10. B(H  10,C   5)                1.1129  0.009008 -0.0142    1.0987   
    11. B(H  11,N   8)                1.0460  0.015555 -0.0214    1.0246   
    12. B(H  12,N   8)                1.0456  0.015614 -0.0215    1.0241   
    13. B(H  13,N   8)                1.0460  0.015572 -0.0215    1.0245   
    14. A(H   3,C   0,H   4)          109.19  0.002759   -0.60    108.59   
    15. A(C   1,C   0,H   4)          110.34 -0.002379    0.43    110.76   
    16. A(H   2,C   0,H   3)          108.67  0.002258   -0.38    108.29   
    17. A(C   1,C   0,H   2)          109.59 -0.002452    0.49    110.08   
    18. A(H   2,C   0,H   4)          108.67  0.002282   -0.38    108.29   
    19. A(C   1,C   0,H   3)          110.34 -0.002312    0.41    110.75   
    20. A(C   0,C   1,C   5)          111.19  0.000027    0.23    111.42   
    21. A(H   6,C   1,H   7)          108.71  0.001418   -0.81    107.90   
    22. A(C   5,C   1,H   7)          109.56  0.000883   -0.28    109.28   
    23. A(C   0,C   1,H   7)          108.89 -0.001652    0.59    109.48   
    24. A(C   5,C   1,H   6)          109.56  0.000882   -0.30    109.26   
    25. A(C   0,C   1,H   6)          108.89 -0.001547    0.55    109.43   
    26. A(N   8,C   5,H   9)          109.21  0.003259   -0.88    108.33   
    27. A(C   1,C   5,H   9)          109.52 -0.001215    0.63    110.15   
    28. A(C   1,C   5,N   8)          110.93 -0.003599    0.64    111.57   
    29. A(H   9,C   5,H  10)          108.40 -0.000499   -0.11    108.29   
    30. A(N   8,C   5,H  10)          109.21  0.003375   -0.93    108.29   
    31. A(C   1,C   5,H  10)          109.52 -0.001233    0.62    110.14   
    32. A(H  12,N   8,H  13)          108.87  0.006112   -1.02    107.85   
    33. A(H  11,N   8,H  13)          109.72  0.006065   -1.32    108.40   
    34. A(C   5,N   8,H  13)          110.11 -0.004879    0.84    110.95   
    35. A(H  11,N   8,H  12)          108.87  0.005998   -0.95    107.92   
    36. A(C   5,N   8,H  12)          109.12 -0.008065    1.54    110.66   
    37. A(C   5,N   8,H  11)          110.11 -0.005057    0.89    111.00   
    38. D(H   6,C   1,C   0,H   4)    178.82 -0.000261   -0.09    178.73   
    39. D(H   7,C   1,C   0,H   3)   -178.82  0.000261    0.02   -178.80   
    40. D(C   5,C   1,C   0,H   3)     60.37  0.000229   -0.17     60.21   
    41. D(H   7,C   1,C   0,H   2)    -59.19  0.000071    0.12    -59.07   
    42. D(C   5,C   1,C   0,H   2)    180.00  0.000040   -0.07    179.93   
    43. D(H   6,C   1,C   0,H   3)    -60.43  0.000130   -0.29    -60.73   
    44. D(H   7,C   1,C   0,H   4)     60.43 -0.000130    0.23     60.66   
    45. D(H   6,C   1,C   0,H   2)     59.19 -0.000060   -0.20     59.00   
    46. D(C   5,C   1,C   0,H   4)    -60.37 -0.000162    0.04    -60.34   
    47. D(H   9,C   5,C   1,H   6)    179.79 -0.002426    1.07    180.86   
    48. D(N   8,C   5,C   1,H   7)     59.59  0.001344   -0.53     59.05   
    49. D(N   8,C   5,C   1,H   6)    -59.59 -0.001456    0.80    -58.79   
    50. D(N   8,C   5,C   1,C   0)    180.00 -0.000122    0.17    180.17   
    51. D(H   9,C   5,C   1,H   7)    -61.04  0.000373   -0.26    -61.30   
    52. D(H  10,C   5,C   1,H   7)   -179.79  0.002446   -0.87   -180.66   
    53. D(H  10,C   5,C   1,H   6)     61.03 -0.000353    0.46     61.49   
    54. D(H  10,C   5,C   1,C   0)    -59.38  0.000981   -0.17    -59.55   
    55. D(H   9,C   5,C   1,C   0)     59.38 -0.001092    0.44     59.82   
    56. D(H  13,N   8,C   5,H   9)   -178.64 -0.001138    0.39   -178.25   
    57. D(H  13,N   8,C   5,C   1)     60.56  0.000525   -0.24     60.32   
    58. D(H  12,N   8,C   5,H  10)     59.19  0.001701   -0.60     58.59   
    59. D(H  12,N   8,C   5,H   9)    -59.20 -0.001573    0.59    -58.61   
    60. D(H  12,N   8,C   5,C   1)    180.00  0.000090   -0.03    179.97   
    61. D(H  11,N   8,C   5,H  10)    178.64  0.001020   -0.28    178.36   
    62. D(H  11,N   8,C   5,H   9)     60.25 -0.002255    0.91     61.16   
    63. D(H  13,N   8,C   5,H  10)    -60.25  0.002136   -0.81    -61.05   
    64. D(H  11,N   8,C   5,C   1)    -60.56 -0.000591    0.29    -60.27   
    ----------------------------------------------------------------------------

         *************************************************************
         *                GEOMETRY OPTIMIZATION CYCLE   2            *
         *************************************************************
---------------------------------
CARTESIAN COORDINATES (ANGSTROEM)
---------------------------------
  C     -1.662799   -1.392859    0.013497
  C     -0.862581   -0.105403    0.196618
  H     -1.018901   -2.265938    0.191043
  H     -2.063140   -1.461102   -1.010009
  H     -2.503956   -1.433867    0.722890
  C     -1.727422    1.126585   -0.044537
  H     -0.013632   -0.097540   -0.507788
  H     -0.453863   -0.068750    1.220455
  N     -0.953647    2.377345    0.128176
  H     -2.570205    1.141534    0.660493
  H     -2.132734    1.110327   -1.065663
  H     -0.577905    2.448230    1.078707
  H     -1.547416    3.195147   -0.037435
  H     -0.171659    2.418381   -0.532487

----------------------------
CARTESIAN COORDINATES (A.U.)
----------------------------
  NO LB      ZA    FRAG     MASS         X           Y           Z
   0 C     6.0000    0    12.011   -3.142236   -2.632122    0.025506
   1 C     6.0000    0    12.011   -1.630042   -0.199183    0.371555
   2 H     1.0000    0     1.008   -1.925443   -4.282003    0.361018
   3 H     1.0000    0     1.008   -3.898769   -2.761082   -1.908641
   4 H     1.0000    0     1.008   -4.731792   -2.709615    1.366065
   5 C     6.0000    0    12.011   -3.264355    2.128938   -0.084162
   6 H     1.0000    0     1.008   -0.025761   -0.184324   -0.959581
   7 H     1.0000    0     1.008   -0.857676   -0.129918    2.306325
   8 N     7.0000    0    14.007   -1.802132    4.492531    0.242217
   9 H     1.0000    0     1.008   -4.856983    2.157186    1.248152
  10 H     1.0000    0     1.008   -4.030283    2.098214   -2.013812
  11 H     1.0000    0     1.008   -1.092082    4.626483    2.038460
  12 H     1.0000    0     1.008   -2.924193    6.037953   -0.070743
  13 H     1.0000    0     1.008   -0.324389    4.570078   -1.006254

--------------------------------
INTERNAL COORDINATES (ANGSTROEM)
--------------------------------
 C      0   0   0     0.000000000000     0.00000000     0.00000000
 C      1   0   0     1.526900700374     0.00000000     0.00000000
 H      1   2   0     1.099270651357   110.08017170     0.00000000
 H      1   2   3     1.101133502074   110.74883663   240.27455271
 H      1   2   3     1.101119887785   110.76202492   119.73110913
 C      2   1   3     1.524434745660   111.41584188   179.93156313
 H      2   1   3     1.103161438522   109.43525605    58.99594583
 H      2   1   3     1.103011901639   109.48359422   300.92897438
 N      6   2   1     1.480863587661   111.57391113   180.17175167
 H      6   2   1     1.098896317738   110.15720850    59.81980495
 H      6   2   1     1.098745343797   110.14122740   300.45345905
 H      9   6   2     1.024556244922   110.99361145   299.73618804
 H      9   6   2     1.024104205865   110.64997873   179.96778649
 H      9   6   2     1.024531075616   110.94306723    60.31853570

---------------------------
INTERNAL COORDINATES (A.U.)
---------------------------
 C      0   0   0     0.000000000000     0.00000000     0.00000000
 C      1   0   0     2.885424157399     0.00000000     0.00000000
 H      1   2   0     2.077320478122   110.08017170     0.00000000
 H      1   2   3     2.080840755806   110.74883663   240.27455271
 H      1   2   3     2.080815028528   110.76202492   119.73110913
 C      2   1   3     2.880764178332   111.41584188   179.93156313
 H      2   1   3     2.084673000310   109.43525605    58.99594583
 H      2   1   3     2.084390416554   109.48359422   300.92897438
 N      6   2   1     2.798426622376   111.57391113   180.17175167
 H      6   2   1     2.076613090099   110.15720850    59.81980495
 H      6   2   1     2.076327790697   110.14122740   300.45345905
 H      9   6   2     1.936130711702   110.99361145   299.73618804
 H      9   6   2     1.935276481681   110.64997873   179.96778649
 H      9   6   2     1.936083148607   110.94306723    60.31853570

------------------------------------------------------------------------------
                   ___                                                        
                  /   \      - P O W E R E D   B Y -                         
                 /     \                                                     
                 |  |  |   _    _      __       _____    __    __             
                 |  |  |  | |  | |    /  \     |  _  \  |  |  /  |          
                  \  \/   | |  | |   /    \    | | | |  |  | /  /          
                 / \  \   | |__| |  /  /\  \   | |_| |  |  |/  /          
                |  |  |   |  __  | /  /__\  \  |    /   |      \           
                |  |  |   | |  | | |   __   |  |    \   |  |\   \          
                \     /   | |  | | |  |  |  |  | |\  \  |  | \   \       
                 \___/    |_|  |_| |__|  |__|  |_| \__\ |__|  \__/        
                                                                              
                      - O R C A' S   B I G   F R I E N D -                    
                                      &                                       
                       - I N T E G R A L  F E E D E R -                       
                                                                              
 v1 FN, 2020, v2 2021                                                         
------------------------------------------------------------------------------


Reading SHARK input file lys_prot_aq.SHARKINP.tmp ... ok
----------------------
SHARK INTEGRAL PACKAGE
----------------------

Number of atoms                             ...     14
Number of basis functions                   ...    106
Number of shells                            ...     54
Maximum angular momentum                    ...      2
Integral batch strategy                     ... SHARK/LIBINT Hybrid
RI-J (if used) integral strategy            ... SPLIT-RIJ (Revised 2003 algorithm where possible)
Printlevel                                  ...      1
Contraction scheme used                     ... SEGMENTED contraction
Coulomb Range Separation                    ... NOT USED
Exchange Range Separation                   ... Long Range
   Mu parameter                             ...  0.300000
   Scaling (regular/separated)              ...  0.157706  0.842294
Finite Nucleus Model                        ... NOT USED
Auxiliary Coulomb fitting basis             ... AVAILABLE
   # of basis functions in Aux-J            ...    306
   # of shells in Aux-J                     ...    110
   Maximum angular momentum in Aux-J        ...      4
Auxiliary J/K fitting basis                 ... NOT available
Auxiliary Correlation fitting basis         ... NOT available
Auxiliary 'external' fitting basis          ... NOT available
Integral threshold                          ...     2.500000e-11
Primitive cut-off                           ...     2.500000e-12
Primitive pair pre-selection threshold      ...     2.500000e-12

Calculating pre-screening integrals         ... done (  0.0 sec) Dimension = 54
Organizing shell pair data                  ... done (  0.0 sec)
Shell pair information
Total number of shell pairs                 ...      1485
Shell pairs after pre-screening             ...      1458
Total number of primitive shell pairs       ...      4933
Primitive shell pairs kept                  ...      3962
          la=0 lb=0:    522 shell pairs
          la=1 lb=0:    566 shell pairs
          la=1 lb=1:    163 shell pairs
          la=2 lb=0:    126 shell pairs
          la=2 lb=1:     71 shell pairs
          la=2 lb=2:     10 shell pairs

Calculating one electron integrals          ... done (  0.0 sec)
Calculating RI/J V-Matrix + Cholesky decomp.... done (  0.0 sec)
Calculating Nuclear repulsion               ... done (  0.0 sec) ENN=    139.637944992297 Eh

SHARK setup successfully completed in   0.1 seconds

Maximum memory used throughout the entire GTOINT-calculation: 10.7 MB

Diagonalization of the overlap matrix:
Smallest eigenvalue                        ... 2.054e-03
Time for diagonalization                   ...    0.002 sec
Threshold for overlap eigenvalues          ... 1.000e-08
Number of eigenvalues below threshold      ... 0
Time for construction of square roots      ...    0.001 sec
Total time needed                          ...    0.003 sec

-------------------
DFT GRID GENERATION
-------------------

General Integration Accuracy     IntAcc      ... 4.388
Radial Grid Type                 RadialGrid  ... OptM3 with GC (2021)
Angular Grid (max. ang.)         AngularGrid ... 4 (Lebedev-302)
Angular grid pruning method      GridPruning ... 4 (adaptive)
Weight generation scheme         WeightScheme... Becke
Basis function cutoff            BFCut       ... 1.0000e-11
Integration weight cutoff        WCut        ... 1.0000e-14
Angular grids for H and He will be reduced by one unit
Partially contracted basis set               ... off
Rotationally invariant grid construction     ... off

Total number of grid points                  ...    56362
Total number of batches                      ...      888
Average number of points per batch           ...       63
Average number of grid points per atom       ...     4026
Time for grid setup =    0.424 sec

--------------------
COSX GRID GENERATION
--------------------

GRIDX 1
-------
General Integration Accuracy     IntAcc      ... 3.816
Radial Grid Type                 RadialGrid  ... OptM3 with GC (2021)
Angular Grid (max. ang.)         AngularGrid ... 1 (Lebedev-50)
Angular grid pruning method      GridPruning ... 4 (adaptive)
Weight generation scheme         WeightScheme... Becke
Basis function cutoff            BFCut       ... 1.0000e-11
Integration weight cutoff        WCut        ... 1.0000e-14
Angular grids for H and He will be reduced by one unit
Partially contracted basis set               ... on
[...]
     10       0.126374   0.184250  -0.449622   0.082705   0.048798  -0.005312
     11       0.086092  -0.162367  -0.052788   0.125664   0.122293   0.007935
     12      -0.180042   0.301647  -0.033395  -0.185301  -0.188415  -0.010821
     13       0.183809  -0.200128   0.435827  -0.031462  -0.007131  -0.008553
     14      -0.198333   0.350990   0.035836  -0.242697  -0.241759  -0.014361
     15       0.022744  -0.019776  -0.016441  -0.072857   0.023868  -0.002903
     16      -0.147778  -0.002885   0.011328   0.020965   0.063218  -0.013237
     17       0.010756  -0.003424  -0.005119  -0.018340   0.004843  -0.002094
     18      -0.102612  -0.236705  -0.156106   0.000483  -0.278531  -0.008991
     19      -0.296675  -0.073248  -0.038944   0.093334   0.114052   0.022082
     20      -0.156829  -0.338611  -0.175816  -0.013724  -0.404274  -0.017598
     21      -0.157364  -0.400671  -0.151445  -0.012155  -0.446794  -0.016190
     22      -0.274222  -0.075965   0.036143   0.080282   0.136769   0.017911
     23       0.095434   0.176029   0.094706   0.008778   0.214016   0.009810
     24      -0.029469  -0.004189   0.000573  -0.004338   0.010161   0.060586
     25       0.016789  -0.002256  -0.002945  -0.006899  -0.012041   0.102081
     26      -0.010152  -0.000375  -0.003635  -0.002107   0.003924   0.014314
     27      -0.002224   0.129707   0.089638   0.351795  -0.175702   0.003050
     28       0.462053   0.042688  -0.054513  -0.002200  -0.161102   0.024728
     29      -0.056778   0.165945   0.124691   0.478562  -0.213509   0.005823
     30      -0.008390   0.199835   0.132335   0.539218  -0.260269  -0.000178
     31       0.495037   0.017076   0.020218   0.007937  -0.182592   0.019091
     32       0.029255  -0.088068  -0.060595  -0.255655   0.112023  -0.005563
     33       0.058751  -0.000155  -0.015660  -0.026972  -0.014917  -0.230889
     34      -0.062279  -0.003218   0.001347   0.017400   0.036736  -0.492698
     35      -0.041648  -0.002705   0.002190   0.003306   0.011800   0.173817
     36       0.059601  -0.001035  -0.005922   0.010105  -0.005532  -0.454380
     37       0.083579  -0.000233  -0.004729   0.005375  -0.023462  -0.294557
     38       0.020898  -0.000063   0.009855   0.004583  -0.002889  -0.104709
     39       0.039993  -0.003194   0.001316  -0.018316  -0.010799  -0.127901
     40      -0.057291  -0.005351   0.005467   0.018510   0.035592  -0.524437
     41       0.072101   0.001925  -0.001782  -0.015200  -0.020161  -0.245253
                 30         31         32         33         34         35    
      0      -0.000558   0.000574  -0.032311   0.009805   0.000117  -0.004827
      1       0.000320  -0.000517  -0.039326   0.005631  -0.000025   0.000311
      2       0.001312   0.000910  -0.007332   0.001859  -0.000624   0.020357
      3       0.001827  -0.005362  -0.010464  -0.068934   0.001499   0.018911
      4      -0.003005   0.005726   0.001578  -0.003101   0.001354  -0.001529
      5       0.000796  -0.001413  -0.002008  -0.012144   0.002651  -0.089639
      6       0.002628  -0.007663  -0.298356   0.026278   0.000450  -0.001483
      7       0.002861  -0.006963   0.392954  -0.039439  -0.002784  -0.000059
      8       0.002151  -0.001255  -0.079652   0.006713   0.000006   0.004844
      9      -0.000801   0.005371   0.215699  -0.039414   0.001291  -0.059567
     10       0.004448   0.002639   0.032781  -0.007053  -0.001060  -0.007153
     11       0.001065  -0.001138   0.555748  -0.104711   0.004120  -0.147616
     12      -0.003093   0.002758   0.459374  -0.090571  -0.004302   0.118394
     13      -0.005520  -0.001533   0.023825  -0.005332  -0.001505   0.004251
     14      -0.002176   0.003288  -0.390596   0.078598   0.003059  -0.097792
     15      -0.002284   0.019497   0.000521   0.003709   0.069010  -0.000395
     16       0.008133  -0.018070   0.000072  -0.002164  -0.002958   0.000019
     17      -0.019558  -0.002592   0.000127   0.000602   0.013937   0.010827
     18       0.002060  -0.004122   0.092414   0.562838  -0.013710  -0.498063
     19       0.022007   0.007003  -0.000320   0.009080   0.000887  -0.008265
     20      -0.004115   0.000600  -0.077745  -0.469910   0.010094   0.400012
     21       0.004910  -0.001074   0.039267   0.234607  -0.019263   0.271576
     22      -0.018627  -0.011843   0.002160   0.023968  -0.001069   0.026760
     23      -0.002019  -0.005352   0.103102   0.608660  -0.045403   0.667468
     24      -0.005416   0.034279   0.000087  -0.000330  -0.001790  -0.000024
     25       0.008635  -0.024384  -0.000106   0.000168  -0.000657  -0.000023
     26      -0.039330  -0.007151   0.000017  -0.000138  -0.000408  -0.000386
     27       0.026310   0.020160  -0.004592  -0.024550  -0.551605   0.044703
     28       0.015932   0.054348  -0.001080   0.002188   0.027627   0.000223
     29       0.009634  -0.012636   0.004781   0.022291   0.475111  -0.036930
     30      -0.031095  -0.011501  -0.001768  -0.008981  -0.243042  -0.037778
     31      -0.055807   0.025778  -0.001280   0.001447   0.003666  -0.001670
     32      -0.013866   0.010898  -0.006233  -0.025713  -0.634161  -0.095246
     33       0.090126  -0.593779   0.000035   0.001422   0.002429   0.001607
     34       0.399982   0.304413   0.000940   0.002311  -0.000529   0.002674
     35      -0.099329   0.218935   0.000290   0.004049   0.009199   0.004425
     36      -0.280592   0.249387   0.000148   0.000575   0.004159  -0.000198
     37      -0.066750   0.207823  -0.000640   0.003309   0.004383   0.000408
     38       0.585802   0.339738   0.000030   0.000015   0.000853   0.001096
     39       0.276901  -0.311141   0.000051   0.002745   0.006920  -0.001960
     40      -0.483430  -0.089585   0.001067   0.002822  -0.001076  -0.002566
     41       0.277301  -0.416832  -0.000176  -0.002699  -0.007428   0.001641
                 36         37         38         39         40         41    
      0       0.025040   0.073372  -0.000264  -0.000151   0.000034   0.000079
      1      -0.003047  -0.053945  -0.000151   0.000033   0.000014  -0.000040
      2      -0.088119   0.022578   0.002182   0.000065   0.000023   0.000066
      3       0.004788   0.003370  -0.002620   0.000737  -0.000101   0.000087
      4      -0.000328   0.000166   0.000228   0.000195   0.000069  -0.000409
      5      -0.020368   0.001583   0.011342   0.000143   0.000571   0.000076
      6      -0.017072  -0.505226  -0.001388  -0.000301   0.000060   0.000178
      7       0.027005   0.686207   0.002117   0.001570   0.000137  -0.000307
      8      -0.016623  -0.134843  -0.001347  -0.000019  -0.000026   0.000011
      9       0.253656  -0.129563  -0.007817  -0.000044   0.000022  -0.000111
     10       0.040989  -0.028828  -0.003101   0.000075   0.000087   0.000092
     11       0.625354  -0.349433  -0.018014   0.000336  -0.000566  -0.000132
     12      -0.535326  -0.242318   0.013065   0.000229   0.000362   0.000087
     13      -0.031832  -0.020653   0.002520   0.000142  -0.000163   0.000067
     14       0.442516   0.214574  -0.010122   0.000047  -0.000502   0.000159
     15      -0.001204  -0.000015  -0.021120  -0.000681   0.000055  -0.000125
     16       0.000106   0.000484   0.001800   0.000104   0.000023  -0.000178
     17       0.004966  -0.000567   0.093805  -0.000288  -0.000808  -0.000145
     18      -0.114828  -0.020601   0.065511  -0.002385   0.001271  -0.000243
     19      -0.004354  -0.000796  -0.002565  -0.000776   0.000856  -0.000141
     20       0.093078   0.015362  -0.052278   0.002059  -0.001228  -0.000042
     21       0.058713  -0.014280  -0.034368  -0.001200  -0.000759  -0.000376
     22       0.008226  -0.001965   0.000298  -0.000964  -0.001025  -0.000589
     23       0.145909  -0.032519  -0.083676  -0.003847  -0.002678  -0.001485
     24       0.000016  -0.000012   0.000385  -0.030807   0.028982  -0.059956
     25      -0.000005   0.000040  -0.000091  -0.033613  -0.010870   0.046049
     26      -0.000108   0.000007  -0.001939  -0.003488  -0.075300  -0.029888
     27       0.027222  -0.002873   0.514711   0.008379  -0.009858   0.002980
     28       0.000784   0.000856  -0.030162   0.003553  -0.003080   0.000494
     29      -0.023622   0.002128  -0.434183  -0.005000   0.007152  -0.001275
     30      -0.013119   0.001307  -0.265006   0.004644   0.004967   0.003497
     31      -0.001859   0.000822   0.008901   0.003323   0.003435   0.001767
     32      -0.034448   0.003840  -0.670632   0.008074   0.010296   0.006129
     33       0.000695  -0.000371   0.001953   0.215282   0.252331   0.166747
     34       0.000738  -0.000314  -0.005111   0.039452   0.045988   0.037696
     35       0.001744  -0.000744   0.011541   0.540592   0.612716   0.428609
     36      -0.000048   0.000321   0.000221  -0.287361  -0.092194   0.489066
     37       0.000040  -0.000538   0.000335   0.394663   0.132280  -0.685678
     38       0.000140   0.000075  -0.001454  -0.080219  -0.036143   0.135802
     39      -0.001184  -0.000486  -0.006227   0.491970  -0.558786   0.170816
     40      -0.000711  -0.000292   0.005665   0.022079  -0.028726   0.014189
     41       0.000978   0.000335   0.008215  -0.412597   0.459869  -0.152418


-----------
IR SPECTRUM
-----------

 Mode   freq       eps      Int      T**2         TX        TY        TZ
       cm**-1   L/(mol*cm) km/mol    a.u.
----------------------------------------------------------------------------
  6:    115.55   0.001217    6.15  0.003288  (-0.013319  0.000496  0.055767)
  7:    219.16   0.000184    0.93  0.000262  ( 0.010192 -0.002908 -0.012230)
  8:    269.97   0.001406    7.11  0.001626  (-0.034286  0.018115 -0.011045)
  9:    295.99   0.000064    0.32  0.000068  ( 0.006452 -0.002281  0.004551)
 10:    443.99   0.002216   11.20  0.001558  ( 0.003785 -0.039265  0.001210)
 11:    757.05   0.003389   17.13  0.001397  (-0.009023  0.000377  0.036267)
 12:    855.20   0.000959    4.85  0.000350  ( 0.005314 -0.000509 -0.017927)
 13:    885.54   0.000096    0.49  0.000034  (-0.001929  0.005490 -0.000284)
 14:    983.77   0.004460   22.54  0.001415  (-0.011190  0.000973  0.035896)
 15:   1009.65   0.008243   41.66  0.002548  ( 0.032241 -0.037497  0.010111)
 16:   1047.87   0.001608    8.13  0.000479  ( 0.021146  0.000859  0.005572)
 17:   1093.41   0.000924    4.67  0.000264  (-0.004272 -0.015645 -0.000748)
 18:   1198.82   0.001964    9.93  0.000511  ( 0.019519 -0.010333  0.004845)
 19:   1213.70   0.000380    1.92  0.000098  ( 0.002771  0.000054 -0.009482)
 20:   1313.24   0.000524    2.65  0.000125  ( 0.003123  0.000194 -0.010711)
 21:   1343.56   0.001366    6.90  0.000317  (-0.015319  0.009079  0.000455)
 22:   1348.23   0.002503   12.65  0.000579  (-0.003713 -0.001731  0.023719)
 23:   1403.60   0.001076    5.44  0.000239  ( 0.000393  0.015458 -0.000274)
 24:   1437.55   0.000721    3.64  0.000157  (-0.005572 -0.011092 -0.001571)
 25:   1452.77   0.001309    6.62  0.000281  ( 0.002472 -0.013074  0.010209)
 26:   1458.89   0.001773    8.96  0.000379  ( 0.006509 -0.004366 -0.017830)
 27:   1470.15   0.000377    1.91  0.000080  ( 0.007219  0.002352  0.004730)
 28:   1486.06   0.004331   21.89  0.000910  (-0.024784  0.016192 -0.005757)
 29:   1516.79   0.036023  182.04  0.007411  (-0.044445 -0.073151 -0.009205)
 30:   1612.69   0.013017   65.78  0.002519  ( 0.003494 -0.009950  0.049067)
 31:   1620.10   0.011671   58.98  0.002248  (-0.037713  0.026765  0.010462)
 32:   3066.50   0.006309   31.89  0.000642  (-0.017280 -0.018157 -0.003713)
 33:   3072.57   0.003561   17.99  0.000362  (-0.018587 -0.001889 -0.003545)
 34:   3123.79   0.001878    9.49  0.000188  ( 0.013298  0.000237  0.003272)
 35:   3128.46   0.001926    9.73  0.000192  ( 0.002731 -0.000461 -0.013582)
 36:   3162.58   0.006606   33.38  0.000652  ( 0.006781 -0.000796 -0.024601)
 37:   3176.68   0.004120   20.82  0.000405  ( 0.016092 -0.010960  0.005066)
 38:   3196.79   0.001207    6.10  0.000118  (-0.002200  0.000144  0.010629)
 39:   3469.07   0.015514   78.40  0.001396  ( 0.022196  0.029943  0.002524)
 40:   3554.28   0.035940  181.63  0.003156  (-0.019766  0.008171  0.051943)
 41:   3568.16   0.037990  191.99  0.003323  ( 0.041642 -0.033891  0.020974)

* The epsilon (eps) is given for a Dirac delta lineshape.
** The dipole moment derivative (T) already includes vibrational overlap.

The first frequency considered to be a vibration is 6
The total number of vibrations considered is 36


--------------------------
THERMOCHEMISTRY AT 298.15K
--------------------------

Temperature         ... 298.15 K
Pressure            ... 1.00 atm
Total Mass          ... 60.12 AMU

Throughout the following assumptions are being made:
  (1) The electronic state is orbitally nondegenerate
  (2) There are no thermally accessible electronically excited states
  (3) Hindered rotations indicated by low frequency modes are not
      treated as such but are treated as vibrations and this may
      cause some error
  (4) All equations used are the standard statistical mechanics
      equations for an ideal gas
  (5) All vibrations are strictly harmonic

freq.     115.55  E(vib)   ...       0.44 
freq.     219.16  E(vib)   ...       0.33 
freq.     269.97  E(vib)   ...       0.29 
freq.     295.99  E(vib)   ...       0.27 
freq.     443.99  E(vib)   ...       0.17 
freq.     757.05  E(vib)   ...       0.06 
freq.     855.20  E(vib)   ...       0.04 
freq.     885.54  E(vib)   ...       0.04 
freq.     983.77  E(vib)   ...       0.02 
freq.    1009.65  E(vib)   ...       0.02 
freq.    1047.87  E(vib)   ...       0.02 
freq.    1093.41  E(vib)   ...       0.02 
freq.    1198.82  E(vib)   ...       0.01 
freq.    1213.70  E(vib)   ...       0.01 
freq.    1313.24  E(vib)   ...       0.01 
freq.    1343.56  E(vib)   ...       0.01 
freq.    1348.23  E(vib)   ...       0.01 
freq.    1403.60  E(vib)   ...       0.00 
freq.    1437.55  E(vib)   ...       0.00 
freq.    1452.77  E(vib)   ...       0.00 
freq.    1458.89  E(vib)   ...       0.00 
freq.    1470.15  E(vib)   ...       0.00 
freq.    1486.06  E(vib)   ...       0.00 
freq.    1516.79  E(vib)   ...       0.00 
freq.    1612.69  E(vib)   ...       0.00 
freq.    1620.10  E(vib)   ...       0.00 
freq.    3066.50  E(vib)   ...       0.00 
freq.    3072.57  E(vib)   ...       0.00 
freq.    3123.79  E(vib)   ...       0.00 
freq.    3128.46  E(vib)   ...       0.00 
freq.    3162.58  E(vib)   ...       0.00 
freq.    3176.68  E(vib)   ...       0.00 
freq.    3196.79  E(vib)   ...       0.00 
freq.    3469.07  E(vib)   ...       0.00 
freq.    3554.28  E(vib)   ...       0.00 
freq.    3568.16  E(vib)   ...       0.00 

------------
INNER ENERGY
------------

The inner energy is: U= E(el) + E(ZPE) + E(vib) + E(rot) + E(trans)
    E(el)   - is the total energy from the electronic structure calculation
              = E(kin-el) + E(nuc-el) + E(el-el) + E(nuc-nuc)
    E(ZPE)  - the the zero temperature vibrational energy from the frequency calculation
    E(vib)  - the the finite temperature correction to E(ZPE) due to population
              of excited vibrational states
    E(rot)  - is the rotational thermal energy
    E(trans)- is the translational thermal energy

Summary of contributions to the inner energy U:
Electronic energy                ...   -174.79133426 Eh
Zero point energy                ...      0.13753791 Eh      86.31 kcal/mol
Thermal vibrational correction   ...      0.00284231 Eh       1.78 kcal/mol
Thermal rotational correction    ...      0.00141627 Eh       0.89 kcal/mol
Thermal translational correction ...      0.00141627 Eh       0.89 kcal/mol
-----------------------------------------------------------------------
Total thermal energy                   -174.64812150 Eh


Summary of corrections to the electronic energy:
(perhaps to be used in another calculation)
Total thermal correction                  0.00567485 Eh       3.56 kcal/mol
Non-thermal (ZPE) correction              0.13753791 Eh      86.31 kcal/mol
-----------------------------------------------------------------------
Total correction                          0.14321276 Eh      89.87 kcal/mol


--------
ENTHALPY
--------

The enthalpy is H = U + kB*T
                kB is Boltzmann's constant
Total free energy                 ...   -174.64812150 Eh 
Thermal Enthalpy correction       ...      0.00094421 Eh       0.59 kcal/mol
-----------------------------------------------------------------------
Total Enthalpy                    ...   -174.64717729 Eh


Note: Only C1 symmetry has been detected, increase convergence thresholds 
      if your molecule has a higher symmetry. Symmetry factor of 1.0 is   
      used for the rotational entropy correction. 
 

Note: Rotational entropy computed according to Herzberg 
Infrared and Raman Spectra, Chapter V,1, Van Nostrand Reinhold, 1945 
Point Group:  C1, Symmetry Number:   1  
Rotational constants in cm-1:     0.785270     0.119657     0.112349 

Vibrational entropy computed according to the QRRHO of S. Grimme
Chem.Eur.J. 2012 18 9955


-------
ENTROPY
-------

The entropy contributions are T*S = T*(S(el)+S(vib)+S(rot)+S(trans))
     S(el)   - electronic entropy
     S(vib)  - vibrational entropy
     S(rot)  - rotational entropy
     S(trans)- translational entropy
The entropies will be listed as multiplied by the temperature to get
units of energy

Electronic entropy                ...      0.00000000 Eh      0.00 kcal/mol
Vibrational entropy               ...      0.00474890 Eh      2.98 kcal/mol
Rotational entropy                ...      0.01165929 Eh      7.32 kcal/mol
Translational entropy             ...      0.01815060 Eh     11.39 kcal/mol
-----------------------------------------------------------------------
Final entropy term                ...      0.03455879 Eh     21.69 kcal/mol

In case the symmetry of your molecule has not been determined correctly
or in case you have a reason to use a different symmetry number we print 
out the resulting rotational entropy values for sn=1,12 :
 --------------------------------------------------------
|  sn= 1 | S(rot)=       0.01165929 Eh      7.32 kcal/mol|
|  sn= 2 | S(rot)=       0.01100484 Eh      6.91 kcal/mol|
|  sn= 3 | S(rot)=       0.01062200 Eh      6.67 kcal/mol|
|  sn= 4 | S(rot)=       0.01035038 Eh      6.49 kcal/mol|
|  sn= 5 | S(rot)=       0.01013969 Eh      6.36 kcal/mol|
|  sn= 6 | S(rot)=       0.00996755 Eh      6.25 kcal/mol|
|  sn= 7 | S(rot)=       0.00982200 Eh      6.16 kcal/mol|
|  sn= 8 | S(rot)=       0.00969592 Eh      6.08 kcal/mol|
|  sn= 9 | S(rot)=       0.00958472 Eh      6.01 kcal/mol|
|  sn=10 | S(rot)=       0.00948524 Eh      5.95 kcal/mol|
|  sn=11 | S(rot)=       0.00939525 Eh      5.90 kcal/mol|
|  sn=12 | S(rot)=       0.00931309 Eh      5.84 kcal/mol|
 --------------------------------------------------------


-------------------
GIBBS FREE ENERGY
-------------------

The Gibbs free energy is G = H - T*S

Total enthalpy                    ...   -174.64717729 Eh 
Total entropy correction          ...     -0.03455879 Eh    -21.69 kcal/mol
-----------------------------------------------------------------------
Final Gibbs free energy         ...   -174.68173608 Eh

For completeness - the Gibbs free energy minus the electronic energy
G-E(el)                           ...      0.10959818 Eh     68.77 kcal/mol


Timings for individual modules:

Sum of individual times         ...      487.125 sec (=   8.119 min)
GTO integral calculation        ...        1.064 sec (=   0.018 min)   0.2 %
SCF iterations                  ...      239.313 sec (=   3.989 min)  49.1 %
SCF Gradient evaluation         ...       63.623 sec (=   1.060 min)  13.1 %
Geometry relaxation             ...        0.205 sec (=   0.003 min)   0.0 %
Analytical frequency calculation...      182.920 sec (=   3.049 min)  37.6 %
                             ****ORCA TERMINATED NORMALLY****
TOTAL RUN TIME: 0 days 0 hours 8 minutes 7 seconds 824 msec
