34
	Energy:      56.2242992
N         -1.98010       -0.41861        0.34173
C         -0.99539       -1.40029       -0.05438
N          0.21320       -0.67769       -0.37612
H         -1.12733       -2.50066       -0.10655
C         -0.05910        0.69678       -0.17239
C         -1.35869        0.84832        0.25279
C         -3.36279       -0.65854        0.75971
C          1.46676       -1.28698       -0.82587
C         -3.70217       -2.16489        0.73873
C         -4.31972        0.07383       -0.19992
C         -3.56084       -0.13047        2.19320
C          1.97414       -2.25950        0.25536
C          2.55661       -0.22232       -1.08085
C          1.21508       -2.05537       -2.13681
H          0.63593        1.51118       -0.32335
H         -1.83174        1.79353        0.48352
H         -3.58325       -2.58023       -0.28520
H         -4.75334       -2.33585        1.05747
H         -3.03895       -2.72677        1.43122
H         -3.35555        0.95959        2.24796
H         -2.87161       -0.64944        2.89368
H         -4.60474       -0.30010        2.53542
H          2.23210        0.49193       -1.86799
H          3.50091       -0.70004       -1.42126
H          2.77687        0.34542       -0.15122
H         -4.18196       -0.29667       -1.23857
H         -4.12977        1.16802       -0.19354
H         -5.37831       -0.09185        0.09594
H          2.92477       -2.74079       -0.06133
H          1.23153       -3.06240        0.44863
H          2.15434       -1.71646        1.20806
H          0.84337       -1.36390       -2.92340
H          0.45752       -2.85425       -1.99075
H          2.15080       -2.53263       -2.50049
