
                                 *****************
                                 * O   R   C   A *
                                 *****************

                                            #,                                       
                                            ###                                      
                                            ####                                     
                                            #####                                    
                                            ######                                   
                                           ########,                                 
                                     ,,################,,,,,                         
                               ,,#################################,,                 
                          ,,##########################################,,             
                       ,#########################################, ''#####,          
                    ,#############################################,,   '####,        
                  ,##################################################,,,,####,       
                ,###########''''           ''''###############################       
              ,#####''   ,,,,##########,,,,          '''####'''          '####       
            ,##' ,,,,###########################,,,                        '##       
           ' ,,###''''                  '''############,,,                           
         ,,##''                                '''############,,,,        ,,,,,,###''
      ,#''                                            '''#######################'''  
     '                                                          ''''####''''         
             ,#######,   #######,   ,#######,      ##                                
            ,#'     '#,  ##    ##  ,#'     '#,    #''#        ######   ,####,        
            ##       ##  ##   ,#'  ##            #'  '#       #        #'  '#        
            ##       ##  #######   ##           ,######,      #####,   #    #        
            '#,     ,#'  ##    ##  '#,     ,#' ,#      #,         ##   #,  ,#        
             '#######'   ##     ##  '#######'  #'      '#     #####' # '####'        



                  #######################################################
                  #                        -***-                        #
                  #          Department of theory and spectroscopy      #
                  #    Directorship and core code : Frank Neese         #
                  #        Max Planck Institute fuer Kohlenforschung    #
                  #                Kaiser Wilhelm Platz 1               #
                  #                 D-45470 Muelheim/Ruhr               #
                  #                      Germany                        #
                  #                                                     #
                  #                  All rights reserved                #
                  #                        -***-                        #
                  #######################################################


                         Program Version 5.0.4 -  RELEASE  -


 With contributions from (in alphabetic order):
   Daniel Aravena         : Magnetic Suceptibility
   Michael Atanasov       : Ab Initio Ligand Field Theory (pilot matlab implementation)
   Alexander A. Auer      : GIAO ZORA, VPT2 properties, NMR spectrum
   Ute Becker             : Parallelization
   Giovanni Bistoni       : ED, misc. LED, open-shell LED, HFLD
   Martin Brehm           : Molecular dynamics
   Dmytro Bykov           : SCF Hessian
   Vijay G. Chilkuri      : MRCI spin determinant printing, contributions to CSF-ICE
   Dipayan Datta          : RHF DLPNO-CCSD density
   Achintya Kumar Dutta   : EOM-CC, STEOM-CC
   Dmitry Ganyushin       : Spin-Orbit,Spin-Spin,Magnetic field MRCI
   Miquel Garcia          : C-PCM and meta-GGA Hessian, CC/C-PCM, Gaussian charge scheme
   Yang Guo               : DLPNO-NEVPT2, F12-NEVPT2, CIM, IAO-localization
   Andreas Hansen         : Spin unrestricted coupled pair/coupled cluster methods
   Benjamin Helmich-Paris : MC-RPA, TRAH-SCF, COSX integrals
   Lee Huntington         : MR-EOM, pCC
   Robert Izsak           : Overlap fitted RIJCOSX, COSX-SCS-MP3, EOM
   Marcus Kettner         : VPT2
   Christian Kollmar      : KDIIS, OOCD, Brueckner-CCSD(T), CCSD density, CASPT2, CASPT2-K
   Simone Kossmann        : Meta GGA functionals, TD-DFT gradient, OOMP2, MP2 Hessian
   Martin Krupicka        : Initial AUTO-CI
   Lucas Lang             : DCDCAS
   Marvin Lechner         : AUTO-CI (C++ implementation), FIC-MRCC
   Dagmar Lenk            : GEPOL surface, SMD
   Dimitrios Liakos       : Extrapolation schemes; Compound Job, initial MDCI parallelization
   Dimitrios Manganas     : Further ROCIS development; embedding schemes
   Dimitrios Pantazis     : SARC Basis sets
   Anastasios Papadopoulos: AUTO-CI, single reference methods and gradients
   Taras Petrenko         : DFT Hessian,TD-DFT gradient, ASA, ECA, R-Raman, ABS, FL, XAS/XES, NRVS
   Peter Pinski           : DLPNO-MP2, DLPNO-MP2 Gradient
   Christoph Reimann      : Effective Core Potentials
   Marius Retegan         : Local ZFS, SOC
   Christoph Riplinger    : Optimizer, TS searches, QM/MM, DLPNO-CCSD(T), (RO)-DLPNO pert. Triples
   Tobias Risthaus        : Range-separated hybrids, TD-DFT gradient, RPA, STAB
   Michael Roemelt        : Original ROCIS implementation
   Masaaki Saitow         : Open-shell DLPNO-CCSD energy and density
   Barbara Sandhoefer     : DKH picture change effects
   Avijit Sen             : IP-ROCIS
   Kantharuban Sivalingam : CASSCF convergence, NEVPT2, FIC-MRCI
   Bernardo de Souza      : ESD, SOC TD-DFT
   Georgi Stoychev        : AutoAux, RI-MP2 NMR, DLPNO-MP2 response
   Willem Van den Heuvel  : Paramagnetic NMR
   Boris Wezisla          : Elementary symmetry handling
   Frank Wennmohs         : Technical directorship


 We gratefully acknowledge several colleagues who have allowed us to
 interface, adapt or use parts of their codes:
   Stefan Grimme, W. Hujo, H. Kruse, P. Pracht,  : VdW corrections, initial TS optimization,
                  C. Bannwarth, S. Ehlert          DFT functionals, gCP, sTDA/sTD-DF
   Ed Valeev, F. Pavosevic, A. Kumar             : LibInt (2-el integral package), F12 methods
   Garnet Chan, S. Sharma, J. Yang, R. Olivares  : DMRG
   Ulf Ekstrom                                   : XCFun DFT Library
   Mihaly Kallay                                 : mrcc  (arbitrary order and MRCC methods)
   Jiri Pittner, Ondrej Demel                    : Mk-CCSD
   Frank Weinhold                                : gennbo (NPA and NBO analysis)
   Christopher J. Cramer and Donald G. Truhlar   : smd solvation model
   Lars Goerigk                                  : TD-DFT with DH, B97 family of functionals
   V. Asgeirsson, H. Jonsson                     : NEB implementation
   FAccTs GmbH                                   : IRC, NEB, NEB-TS, DLPNO-Multilevel, CI-OPT
                                                   MM, QMMM, 2- and 3-layer-ONIOM, Crystal-QMMM,
                                                   LR-CPCM, SF, NACMEs, symmetry and pop. for TD-DFT,
                                                   nearIR, NL-DFT gradient (VV10), updates on ESD,
                                                   ML-optimized integration grids
   S Lehtola, MJT Oliveira, MAL Marques          : LibXC Library
   Liviu Ungur et al                             : ANISO software


 Your calculation uses the libint2 library for the computation of 2-el integrals
 For citations please refer to: http://libint.valeyev.net

 Your ORCA version has been built with support for libXC version: 5.1.0
 For citations please refer to: https://tddft.org/programs/libxc/

 This ORCA versions uses:
   CBLAS   interface :  Fast vector & matrix operations
   LAPACKE interface :  Fast linear algebra routines
   SCALAPACK package :  Parallel linear algebra routines
   Shared memory     :  Shared parallel matrices
   BLAS/LAPACK       :  OpenBLAS 0.3.15  USE64BITINT DYNAMIC_ARCH NO_AFFINITY SkylakeX SINGLE_THREADED
        Core in use  :  SkylakeX
   Copyright (c) 2011-2014, The OpenBLAS Project




***************************************
The coordinates will be read from file: 11.xyz
***************************************


Your calculation utilizes the atom-pairwise dispersion correction
based on tight binding partial charges (D4)
Cite in your paper:
E.Caldeweyher, C.Bannwarth, S.Grimme, J.Chem.Phys., (2017), 147, 034112.
E.Caldeweyher, S.Ehlert, A.Hansen, H.Neugebauer, S.Grimme, J.Chem.Phys., (2018), in progress.
   

XCFun DFT library Copyright 2009-2010 Ulf Ekstrom and contributors.
See http://admol.org/xcfun for more information.
This is free software; see the source code for copying conditions.
There is ABSOLUTELY NO WARRANTY; not even for MERCHANTABILITY or FITNESS FOR A PARTICULAR PURPOSE.
For details see the documentation.
Scientific users of this library should cite U. Ekstrom, L. Visscher, R. Bast, A. J. Thorvaldsen and K. Ruud;
J.Chem.Theor.Comp. 2010, DOI: 10.1021/ct100117s
XCFun Version 0.99 

================================================================================

----- Orbital basis set information -----
Your calculation utilizes the basis: def2-SVP
   F. Weigend and R. Ahlrichs, Phys. Chem. Chem. Phys. 7, 3297 (2005).

----- AuxJ basis set information -----
Your calculation utilizes the auxiliary basis: def2/J
   F. Weigend, Phys. Chem. Chem. Phys. 8, 1057 (2006).

================================================================================
                                        WARNINGS
                       Please study these warnings very carefully!
================================================================================


WARNING: Geometry Optimization
  ===> : Switching off AutoStart
         For restart on a previous wavefunction, please use MOREAD

INFO   : the flag for use of the SHARK integral package has been found!

================================================================================
                                       INPUT FILE
================================================================================
NAME = 11_Gas.inp
|  1> # ORCAForces - ../2023_04/pKa_prediction/extra_carbenes/Gas/11_Gas.inp
|  2> # Basic Mode
|  3> #
|  4> ! Opt FREQ wB97X D4 Def2-SVP SlowConv TightSCF DEFGRID2 Def2/J RIJCOSX 
|  5> 
|  6> %maxcore 4500
|  7> 
|  8> %PAL NPROCS 4 END
|  9> 
| 10> %geom 
| 11> Maxiter 150
| 12> END
| 13> 
| 14> * xyzfile 0 1 11.xyz
| 15> 
| 16>                          ****END OF INPUT****
================================================================================

                       *****************************
                       * Geometry Optimization Run *
                       *****************************

Geometry optimization settings:
Update method            Update   .... BFGS
Choice of coordinates    CoordSys .... Z-matrix Internals
Initial Hessian          InHess   .... Almoef's Model

Convergence Tolerances:
Energy Change            TolE     ....  5.0000e-06 Eh
Max. Gradient            TolMAXG  ....  3.0000e-04 Eh/bohr
RMS Gradient             TolRMSG  ....  1.0000e-04 Eh/bohr
Max. Displacement        TolMAXD  ....  4.0000e-03 bohr
RMS Displacement         TolRMSD  ....  2.0000e-03 bohr
Strict Convergence                ....  False
------------------------------------------------------------------------------
                        ORCA OPTIMIZATION COORDINATE SETUP
------------------------------------------------------------------------------

The optimization will be done in new redundant internal coordinates
Making redundant internal coordinates   ...  (new redundants) done
Evaluating the initial hessian          ...  (Almloef) done
Evaluating the coordinates              ...  done
Calculating the B-matrix                .... done
Calculating the G-matrix                .... done
Diagonalizing the G-matrix              .... done
Small eigenvalue found = 1.052e-02
Small eigenvalue found = 2.826e-02
The first mode is                       ....   26
The number of degrees of freedom        ....   51

    -----------------------------------------------------------------
                    Redundant Internal Coordinates


    -----------------------------------------------------------------
         Definition                    Initial Value    Approx d2E/dq
    -----------------------------------------------------------------
      1. B(N   1,C   0)                  1.3485         0.651671   
      2. B(N   2,C   0)                  1.3485         0.651671   
      3. B(C   3,N   1)                  1.4732         0.412223   
      4. B(C   4,N   2)                  1.4732         0.412223   
      5. B(H   5,C   3)                  1.0939         0.355024   
      6. B(H   6,C   4)                  1.0939         0.355024   
      7. B(H   7,C   3)                  1.0867         0.364467   
      8. B(H   8,C   4)                  1.0867         0.364467   
      9. B(H   9,C   3)                  1.0967         0.351392   
     10. B(H  10,C   4)                  1.0967         0.351392   
     11. B(C  11,N   1)                  1.4616         0.430240   
     12. B(C  12,N   2)                  1.4616         0.430240   
     13. B(H  13,C  11)                  1.0868         0.364420   
     14. B(H  14,C  12)                  1.0868         0.364420   
     15. B(H  15,C  11)                  1.0980         0.349667   
     16. B(H  16,C  12)                  1.0980         0.349667   
     17. B(H  17,C  11)                  1.0970         0.350984   
     18. B(H  18,C  12)                  1.0970         0.350984   
     19. A(N   1,C   0,N   2)          120.0880         0.436152   
     20. A(C   3,N   1,C  11)          112.8397         0.373898   
     21. A(C   0,N   1,C   3)          130.6192         0.401970   
     22. A(C   0,N   1,C  11)          115.9845         0.405015   
     23. A(C   4,N   2,C  12)          112.8397         0.373898   
     24. A(C   0,N   2,C  12)          115.9845         0.405015   
     25. A(C   0,N   2,C   4)          130.6192         0.401970   
     26. A(H   5,C   3,H   7)          107.5992         0.290742   
     27. A(N   1,C   3,H   9)          113.0192         0.326323   
     28. A(H   5,C   3,H   9)          107.5278         0.289080   
     29. A(H   7,C   3,H   9)          109.2443         0.290273   
     30. A(N   1,C   3,H   7)          110.8284         0.328293   
     31. A(N   1,C   3,H   5)          108.4225         0.326876   
     32. A(H   6,C   4,H  10)          107.5278         0.289080   
     33. A(H   8,C   4,H  10)          109.2443         0.290273   
     34. A(N   2,C   4,H  10)          113.0192         0.326323   
     35. A(N   2,C   4,H   6)          108.4225         0.326876   
     36. A(H   6,C   4,H   8)          107.5992         0.290742   
     37. A(N   2,C   4,H   8)          110.8284         0.328293   
     38. A(H  15,C  11,H  17)          108.0412         0.288341   
     39. A(H  13,C  11,H  17)          109.3150         0.290214   
     40. A(N   1,C  11,H  17)          110.9000         0.328569   
     41. A(H  13,C  11,H  15)          109.6619         0.290043   
     42. A(N   1,C  11,H  15)          111.0554         0.328365   
     43. A(N   1,C  11,H  13)          107.8537         0.330614   
     44. A(H  14,C  12,H  18)          109.3150         0.290214   
     45. A(N   2,C  12,H  18)          110.9000         0.328569   
     46. A(H  14,C  12,H  16)          109.6619         0.290043   
     47. A(N   2,C  12,H  16)          111.0554         0.328365   
     48. A(H  16,C  12,H  18)          108.0412         0.288341   
     49. A(N   2,C  12,H  14)          107.8537         0.330614   
     50. D(C  11,N   1,C   0,N   2)    172.7521         0.031399   
     51. D(C   3,N   1,C   0,N   2)    -16.5295         0.031399   
     52. D(C   4,N   2,C   0,N   1)    -16.5295         0.031399   
     53. D(C  12,N   2,C   0,N   1)    172.7521         0.031399   
     54. D(H   5,C   3,N   1,C  11)     33.7231         0.014494   
     55. D(H   7,C   3,N   1,C   0)    -19.3412         0.014494   
     56. D(H   9,C   3,N   1,C  11)    -85.3824         0.014494   
     57. D(H   9,C   3,N   1,C   0)    103.6688         0.014494   
     58. D(H   5,C   3,N   1,C   0)   -137.2257         0.014494   
     59. D(H   7,C   3,N   1,C  11)    151.6076         0.014494   
     60. D(H   8,C   4,N   2,C  12)    151.6076         0.014494   
     61. D(H   8,C   4,N   2,C   0)    -19.3412         0.014494   
     62. D(H   6,C   4,N   2,C  12)     33.7231         0.014494   
     63. D(H  10,C   4,N   2,C   0)    103.6688         0.014494   
     64. D(H   6,C   4,N   2,C   0)   -137.2257         0.014494   
     65. D(H  10,C   4,N   2,C  12)    -85.3824         0.014494   
     66. D(H  17,C  11,N   1,C   3)     64.5667         0.015782   
     67. D(H  17,C  11,N   1,C   0)   -123.0671         0.015782   
     68. D(H  15,C  11,N   1,C   3)    -55.5815         0.015782   
     69. D(H  15,C  11,N   1,C   0)    116.7847         0.015782   
     70. D(H  13,C  11,N   1,C   3)   -175.7658         0.015782   
     71. D(H  13,C  11,N   1,C   0)     -3.3995         0.015782   
     72. D(H  18,C  12,N   2,C   4)     64.5667         0.015782   
     73. D(H  18,C  12,N   2,C   0)   -123.0671         0.015782   
     74. D(H  16,C  12,N   2,C   4)    -55.5815         0.015782   
     75. D(H  16,C  12,N   2,C   0)    116.7847         0.015782   
     76. D(H  14,C  12,N   2,C   4)   -175.7658         0.015782   
     77. D(H  14,C  12,N   2,C   0)     -3.3995         0.015782   
    -----------------------------------------------------------------

Number of atoms                         .... 19
Number of degrees of freedom            .... 77

         *************************************************************
         *                GEOMETRY OPTIMIZATION CYCLE   1            *
         *************************************************************
---------------------------------
CARTESIAN COORDINATES (ANGSTROEM)
---------------------------------
  C      0.000000    0.000000    0.809913
  N      0.000000    1.168384    0.136542
  N      0.000000   -1.168384    0.136542
  C      0.318148    1.464055   -1.271181
  C     -0.318148   -1.464055   -1.271181
  H      0.927361    2.371956   -1.304571
  H     -0.927361   -2.371956   -1.304571
  H      0.901600    0.660443   -1.712485
  H     -0.901600   -0.660443   -1.712485
  H     -0.573643    1.641985   -1.884141
  H      0.573643   -1.641985   -1.884141
  C     -0.165753    2.373979    0.945996
  C      0.165753   -2.373979    0.945996
  H     -0.321465    2.064834    1.976150
  H      0.321465   -2.064834    1.976150
  H      0.722474    3.016422    0.883307
  H     -0.722474   -3.016422    0.883307
  H     -1.031182    2.956810    0.607314
  H      1.031182   -2.956810    0.607314

----------------------------
CARTESIAN COORDINATES (A.U.)
----------------------------
  NO LB      ZA    FRAG     MASS         X           Y           Z
   0 C     6.0000    0    12.011    0.000000    0.000000    1.530514
   1 N     7.0000    0    14.007    0.000000    2.207926    0.258027
   2 N     7.0000    0    14.007    0.000000   -2.207926    0.258027
   3 C     6.0000    0    12.011    0.601213    2.766663   -2.402184
   4 C     6.0000    0    12.011   -0.601213   -2.766663   -2.402184
   5 H     1.0000    0     1.008    1.752458    4.482347   -2.465282
   6 H     1.0000    0     1.008   -1.752458   -4.482347   -2.465282
   7 H     1.0000    0     1.008    1.703777    1.248056   -3.236128
   8 H     1.0000    0     1.008   -1.703777   -1.248056   -3.236128
   9 H     1.0000    0     1.008   -1.084028    3.102902   -3.560510
  10 H     1.0000    0     1.008    1.084028   -3.102902   -3.560510
  11 C     6.0000    0    12.011   -0.313228    4.486170    1.787673
  12 C     6.0000    0    12.011    0.313228   -4.486170    1.787673
  13 H     1.0000    0     1.008   -0.607481    3.901971    3.734382
  14 H     1.0000    0     1.008    0.607481   -3.901971    3.734382
  15 H     1.0000    0     1.008    1.365278    5.700211    1.669208
  16 H     1.0000    0     1.008   -1.365278   -5.700211    1.669208
  17 H     1.0000    0     1.008   -1.948652    5.587561    1.147657
  18 H     1.0000    0     1.008    1.948652   -5.587561    1.147657

--------------------------------
INTERNAL COORDINATES (ANGSTROEM)
--------------------------------
 C      0   0   0     0.000000000000     0.00000000     0.00000000
 N      1   0   0     1.348536123023     0.00000000     0.00000000
 N      1   2   0     1.348536123023   120.08800055     0.00000000
 C      2   1   3     1.473201797064   130.61923039   343.47054022
 C      3   1   2     1.473201797064   130.61923039   343.47054022
 H      4   2   1     1.093864524185   108.42250803   222.77429360
 H      5   3   1     1.093864524185   108.42250803   222.77429360
 H      4   2   1     1.086718778371   110.82842715   340.65878662
 H      5   3   1     1.086718778371   110.82842715   340.65878662
 H      4   2   1     1.096663227331   113.01916681   103.66879175
 H      5   3   1     1.096663227331   113.01916681   103.66879175
 C      2   1   3     1.461557094044   115.98453936   172.75213990
 C      3   1   2     1.461557094044   115.98453936   172.75213990
 H     12   2   1     1.086753937966   107.85366644   356.60047185
 H     13   3   1     1.086753937966   107.85366644   356.60047185
 H     12   2   1     1.098002788020   111.05543455   116.78472027
 H     13   3   1     1.098002788020   111.05543455   116.78472027
 H     12   2   1     1.096979865689   110.90001992   236.93287223
 H     13   3   1     1.096979865689   110.90001992   236.93287223

---------------------------
INTERNAL COORDINATES (A.U.)
---------------------------
 C      0   0   0     0.000000000000     0.00000000     0.00000000
 N      1   0   0     2.548363954213     0.00000000     0.00000000
 N      1   2   0     2.548363954213   120.08800055     0.00000000
 C      2   1   3     2.783947936452   130.61923039   343.47054022
 C      3   1   2     2.783947936452   130.61923039   343.47054022
 H      4   2   1     2.067104378321   108.42250803   222.77429360
 H      5   3   1     2.067104378321   108.42250803   222.77429360
 H      4   2   1     2.053600875711   110.82842715   340.65878662
 H      5   3   1     2.053600875711   110.82842715   340.65878662
 H      4   2   1     2.072393160799   113.01916681   103.66879175
 H      5   3   1     2.072393160799   113.01916681   103.66879175
 C      2   1   3     2.761942636833   115.98453936   172.75213990
 C      3   1   2     2.761942636833   115.98453936   172.75213990
 H     12   2   1     2.053667317717   107.85366644   356.60047185
 H     13   3   1     2.053667317717   107.85366644   356.60047185
 H     12   2   1     2.074924563639   111.05543455   116.78472027
 H     13   3   1     2.074924563639   111.05543455   116.78472027
 H     12   2   1     2.072991520577   110.90001992   236.93287223
 H     13   3   1     2.072991520577   110.90001992   236.93287223

---------------------
BASIS SET INFORMATION
---------------------
There are 3 groups of distinct atoms

 Group   1 Type C   : 7s4p1d contracted to 3s2p1d pattern {511/31/1}
 Group   2 Type N   : 7s4p1d contracted to 3s2p1d pattern {511/31/1}
 Group   3 Type H   : 4s1p contracted to 2s1p pattern {31/1}

Atom   0C    basis set group =>   1
Atom   1N    basis set group =>   2
Atom   2N    basis set group =>   2
Atom   3C    basis set group =>   1
Atom   4C    basis set group =>   1
Atom   5H    basis set group =>   3
Atom   6H    basis set group =>   3
Atom   7H    basis set group =>   3
Atom   8H    basis set group =>   3
Atom   9H    basis set group =>   3
Atom  10H    basis set group =>   3
Atom  11C    basis set group =>   1
Atom  12C    basis set group =>   1
Atom  13H    basis set group =>   3
Atom  14H    basis set group =>   3
Atom  15H    basis set group =>   3
Atom  16H    basis set group =>   3
Atom  17H    basis set group =>   3
Atom  18H    basis set group =>   3
---------------------------------
AUXILIARY/J BASIS SET INFORMATION
---------------------------------
There are 3 groups of distinct atoms

 Group   1 Type C   : 12s5p4d2f1g contracted to 6s4p3d1f1g pattern {711111/2111/211/2/1}
 Group   2 Type N   : 12s5p4d2f1g contracted to 6s4p3d1f1g pattern {711111/2111/211/2/1}
 Group   3 Type H   : 5s2p1d contracted to 3s1p1d pattern {311/2/1}

Atom   0C    basis set group =>   1
Atom   1N    basis set group =>   2
Atom   2N    basis set group =>   2
Atom   3C    basis set group =>   1
Atom   4C    basis set group =>   1
Atom   5H    basis set group =>   3
Atom   6H    basis set group =>   3
Atom   7H    basis set group =>   3
Atom   8H    basis set group =>   3
Atom   9H    basis set group =>   3
Atom  10H    basis set group =>   3
Atom  11C    basis set group =>   1
Atom  12C    basis set group =>   1
Atom  13H    basis set group =>   3
Atom  14H    basis set group =>   3
Atom  15H    basis set group =>   3
Atom  16H    basis set group =>   3
Atom  17H    basis set group =>   3
Atom  18H    basis set group =>   3


           ************************************************************
           *        Program running with 4 parallel MPI-processes     *
           *              working on a common directory               *
           ************************************************************
------------------------------------------------------------------------------
                           ORCA GTO INTEGRAL CALCULATION
                           -- RI-GTO INTEGRALS CHOSEN --
------------------------------------------------------------------------------
------------------------------------------------------------------------------
                   ___                                                        
                  /   \      - P O W E R E D   B Y -                         
                 /     \                                                     
                 |  |  |   _    _      __       _____    __    __             
                 |  |  |  | |  | |    /  \     |  _  \  |  |  /  |          
                  \  \/   | |  | |   /    \    | | | |  |  | /  /          
                 / \  \   | |__| |  /  /\  \   | |_| |  |  |/  /          
                |  |  |   |  __  | /  /__\  \  |    /   |      \           
                |  |  |   | |  | | |   __   |  |    \   |  |\   \          
                \     /   | |  | | |  |  |  |  | |\  \  |  | \   \       
                 \___/    |_|  |_| |__|  |__|  |_| \__\ |__|  \__/        
                                                                              
                      - O R C A' S   B I G   F R I E N D -                    
                                      &                                       
                       - I N T E G R A L  F E E D E R -                       
                                                                              
 v1 FN, 2020, v2 2021                                                         
------------------------------------------------------------------------------


Reading SHARK input file 11_Gas.SHARKINP.tmp ... ok
----------------------
SHARK INTEGRAL PACKAGE
----------------------

Number of atoms                             ...     19
Number of basis functions                   ...    158
Number of shells                            ...     78
Maximum angular momentum                    ...      2
Integral batch strategy                     ... SHARK/LIBINT Hybrid
RI-J (if used) integral strategy            ... SPLIT-RIJ (Revised 2003 algorithm where possible)
Printlevel                                  ...      1
Contraction scheme used                     ... SEGMENTED contraction
Coulomb Range Separation                    ... NOT USED
Exchange Range Separation                   ... Long Range
   Mu parameter                             ...  0.300000
   Scaling (regular/separated)              ...  0.157706  0.842294
Finite Nucleus Model                        ... NOT USED
Auxiliary Coulomb fitting basis             ... AVAILABLE
   # of basis functions in Aux-J            ...    475
   # of shells in Aux-J                     ...    165
   Maximum angular momentum in Aux-J        ...      4
Auxiliary J/K fitting basis                 ... NOT available
Auxiliary Correlation fitting basis         ... NOT available
Auxiliary 'external' fitting basis          ... NOT available
Integral threshold                          ...     2.500000e-11
Primitive cut-off                           ...     2.500000e-12
Primitive pair pre-selection threshold      ...     2.500000e-12

Calculating pre-screening integrals         ... done (  0.0 sec) Dimension = 78
Organizing shell pair data                  ... done (  0.0 sec)
Shell pair information
Total number of shell pairs                 ...      3081
Shell pairs after pre-screening             ...      2903
Total number of primitive shell pairs       ...     10567
Primitive shell pairs kept                  ...      7436
          la=0 lb=0:    992 shell pairs
          la=1 lb=0:   1094 shell pairs
          la=1 lb=1:    320 shell pairs
          la=2 lb=0:    301 shell pairs
          la=2 lb=1:    168 shell pairs
          la=2 lb=2:     28 shell pairs

Calculating one electron integrals          ... done (  0.0 sec)
Calculating RI/J V-Matrix + Cholesky decomp.... done (  0.0 sec)
Calculating Nuclear repulsion               ... done (  0.0 sec) ENN=    319.612378403966 Eh

SHARK setup successfully completed in   0.6 seconds

Maximum memory used throughout the entire GTOINT-calculation: 11.5 MB


           ************************************************************
           *        Program running with 4 parallel MPI-processes     *
           *              working on a common directory               *
           ************************************************************
-------------------------------------------------------------------------------
                                 ORCA SCF
-------------------------------------------------------------------------------

------------
SCF SETTINGS
------------
Hamiltonian:
 Density Functional     Method          .... DFT(GTOs)
 Exchange Functional    Exchange        .... WB97X
 Correlation Functional Correlation     .... WB97X
 Gradients option       PostSCFGGA      .... off
 Hybrid DFT is turned on
   Fraction HF Exchange ScalHFX         ....  0.157706
   Scaling of DF-GGA-X  ScalDFX         ....  0.000000
   Scaling of DF-GGA-C  ScalDFC         ....  1.000000
   Scaling of DF-LDA-C  ScalLDAC        ....  1.000000
   Perturbative correction              ....  0.000000
   Density functional embedding theory  .... OFF
 Long-range corrected/Screened/Range-Separated Hybrid DFT is turned on
   Amount of maximum screened exact exchange              ....  0.842294
   Range separation parameter mu (erf(mu*r12)/r12)        ....  0.300000
 RI-approximation to the Coulomb term is turned on
   Number of AuxJ basis functions       .... 475
   RIJ-COSX (HFX calculated with COS-X)).... on


General Settings:
 Integral files         IntName         .... 11_Gas
 Hartree-Fock type      HFTyp           .... RHF
 Total Charge           Charge          ....    0
 Multiplicity           Mult            ....    1
 Number of Electrons    NEL             ....   56
 Basis Dimension        Dim             ....  158
 Nuclear Repulsion      ENuc            ....    319.6123784040 Eh

Convergence Acceleration:
 DIIS                   CNVDIIS         .... on
   Start iteration      DIISMaxIt       ....     0
   Startup error        DIISStart       ....  0.200000
   # of expansion vecs  DIISMaxEq       ....     5
   Bias factor          DIISBfac        ....   1.050
   Max. coefficient     DIISMaxC        ....  10.000
 Trust-Rad. Augm. Hess. CNVTRAH         .... auto
   Auto Start mean grad. ratio tolernc. ....  1.125000
   Auto Start start iteration           ....    20
   Auto Start num. interpolation iter.  ....    10
   Max. Number of Micro iterations      ....    16
   Max. Number of Macro iterations      .... Maxiter - #DIIS iter
   Number of Davidson start vectors     ....     2
   Converg. threshold I  (grad. norm)   ....   1.000e-05
   Converg. threshold II (energy diff.) ....   1.000e-08
   Grad. Scal. Fac. for Micro threshold ....   0.100
   Minimum threshold for Micro iter.    ....   0.010
   NR start threshold (gradient norm)   ....   0.001
   Initial trust radius                 ....   0.400
   Minimum AH scaling param. (alpha)    ....   1.000
   Maximum AH scaling param. (alpha)    .... 1000.000
   Orbital update algorithm             .... Taylor
   White noise on init. David. guess    .... on
   Maximum white noise                  ....   0.010
   Quad. conv. algorithm                .... NR
 SOSCF                  CNVSOSCF        .... on
   Start iteration      SOSCFMaxIt      ....   150
   Startup grad/error   SOSCFStart      ....  0.001000
 Level Shifting         CNVShift        .... on
   Level shift para.    LevelShift      ....    0.2500
   Turn off err/grad.   ShiftErr        ....    0.0000
 Zerner damping         CNVZerner       .... off
 Static damping         CNVDamp         .... on
   Fraction old density DampFac         ....    0.8500
   Max. Damping (<1)    DampMax         ....    0.9800
   Min. Damping (>=0)   DampMin         ....    0.0000
   Turn off err/grad.   DampErr         ....    0.0300
 Fernandez-Rico         CNVRico         .... off

SCF Procedure:
 Maximum # iterations   MaxIter         ....   125
 SCF integral mode      SCFMode         .... Direct
   Integral package                     .... SHARK and LIBINT hybrid scheme
 Reset frequency        DirectResetFreq ....    20
 Integral Threshold     Thresh          ....  2.500e-11 Eh
 Primitive CutOff       TCut            ....  2.500e-12 Eh

Convergence Tolerance:
 Convergence Check Mode ConvCheckMode   .... Total+1el-Energy
 Convergence forced     ConvForced      .... 0
 Energy Change          TolE            ....  1.000e-08 Eh
 1-El. energy change                    ....  1.000e-05 Eh
 Orbital Gradient       TolG            ....  1.000e-05
 Orbital Rotation angle TolX            ....  1.000e-05
 DIIS Error             TolErr          ....  5.000e-07


Diagonalization of the overlap matrix:
Smallest eigenvalue                        ... 5.463e-03
Time for diagonalization                   ...    0.005 sec
Threshold for overlap eigenvalues          ... 1.000e-08
Number of eigenvalues below threshold      ... 0
Time for construction of square roots      ...    0.003 sec
Total time needed                          ...    0.008 sec

Time for model grid setup =    0.090 sec

------------------------------
INITIAL GUESS: MODEL POTENTIAL
------------------------------
Loading Hartree-Fock densities                     ... done
Calculating cut-offs                               ... done
Initializing the effective Hamiltonian             ... done
Setting up the integral package (SHARK)            ... done
Starting the Coulomb interaction                   ... done (   0.1 sec)
Reading the grid                                   ... done
Mapping shells                                     ... done
Starting the XC term evaluation                    ... done (   0.1 sec)
  promolecular density results
     # of electrons  =     55.988853576
     EX              =    -42.167622431
     EC              =     -1.829000778
     EX+EC           =    -43.996623209
Transforming the Hamiltonian                       ... done (   0.4 sec)
Diagonalizing the Hamiltonian                      ... done (   0.0 sec)
Back transforming the eigenvectors                 ... done (   0.0 sec)
Now organizing SCF variables                       ... done
                      ------------------
                      INITIAL GUESS DONE (   0.6 sec)
                      ------------------
-------------------
DFT GRID GENERATION
-------------------

General Integration Accuracy     IntAcc      ... 4.388
Radial Grid Type                 RadialGrid  ... OptM3 with GC (2021)
Angular Grid (max. ang.)         AngularGrid ... 4 (Lebedev-302)
Angular grid pruning method      GridPruning ... 4 (adaptive)
Weight generation scheme         WeightScheme... Becke
Basis function cutoff            BFCut       ... 1.0000e-11
Integration weight cutoff        WCut        ... 1.0000e-14
Angular grids for H and He will be reduced by one unit
Partially contracted basis set               ... off
Rotationally invariant grid construction     ... off

Total number of grid points                  ...    80760
Total number of batches                      ...     1275
Average number of points per batch           ...       63
Average number of grid points per atom       ...     4251
Time for grid setup =    0.407 sec

--------------------
COSX GRID GENERATION
--------------------

GRIDX 1
-------
General Integration Accuracy     IntAcc      ... 3.816
Radial Grid Type                 RadialGrid  ... OptM3 with GC (2021)
Angular Grid (max. ang.)         AngularGrid ... 1 (Lebedev-50)
Angular grid pruning method      GridPruning ... 4 (adaptive)
Weight generation scheme         WeightScheme... Becke
Basis function cutoff            BFCut       ... 1.0000e-11
Integration weight cutoff        WCut        ... 1.0000e-14
Angular grids for H and He will be reduced by one unit
Partially contracted basis set               ... on
Rotationally invariant grid construction     ... off

Total number of grid points                  ...    10392
Total number of batches                      ...      172
Average number of points per batch           ...       60
Average number of grid points per atom       ...      547
UseSFitting                                  ... on

GRIDX 2
-------
General Integration Accuracy     IntAcc      ... 4.020
Radial Grid Type                 RadialGrid  ... OptM3 with GC (2021)
Angular Grid (max. ang.)         AngularGrid ... 2 (Lebedev-110)
Angular grid pruning method      GridPruning ... 4 (adaptive)
Weight generation scheme         WeightScheme... Becke
Basis function cutoff            BFCut       ... 1.0000e-11
Integration weight cutoff        WCut        ... 1.0000e-14
Angular grids for H and He will be reduced by one unit
Partially contracted basis set               ... on
Rotationally invariant grid construction     ... off

Total number of grid points                  ...    21696
Total number of batches                      ...      349
Average number of points per batch           ...       62
Average number of grid points per atom       ...     1142
UseSFitting                                  ... on

GRIDX 3
-------
General Integration Accuracy     IntAcc      ... 4.338
Radial Grid Type                 RadialGrid  ... OptM3 with GC (2021)
Angular Grid (max. ang.)         AngularGrid ... 3 (Lebedev-194)
Angular grid pruning method      GridPruning ... 4 (adaptive)
Weight generation scheme         WeightScheme... Becke
Basis function cutoff            BFCut       ... 1.0000e-11
Integration weight cutoff        WCut        ... 1.0000e-14
Angular grids for H and He will be reduced by one unit
Partially contracted basis set               ... on
Rotationally invariant grid construction     ... off

Total number of grid points                  ...    47367
Total number of batches                      ...      750
Average number of points per batch           ...       63
Average number of grid points per atom       ...     2493
UseSFitting                                  ... on

Time for X-Grid setup             =    0.385 sec

--------------
SCF ITERATIONS
--------------
ITER       Energy         Delta-E        Max-DP      RMS-DP      [F,P]     Damp
               ***  Starting incremental Fock matrix formation  ***
  0   -306.7195186816   0.000000000000 0.03683284  0.00085898  0.1326971 0.8500
  1   -306.7517724420  -0.032253760379 0.03944612  0.00084837  0.1081226 0.8500
                               ***Turning on DIIS***
  2   -306.7765888970  -0.024816455014 0.03439298  0.00070432  0.0841620 0.8500
  3   -306.7951725388  -0.018583641797 0.02705619  0.00049797  0.0647708 0.8500
  4   -306.8095827655  -0.014410226735 0.02169425  0.00037330  0.0519990 0.8500
  5   -306.8209713532  -0.011388587723 0.01798451  0.00030172  0.0431918 0.8500
  6   -306.8302456394  -0.009274286132 0.01520036  0.00025289  0.0364457 0.8500
  7   -306.8379303677  -0.007684728361 0.01306226  0.00021773  0.0309481 0.8500
  8   -306.8443644575  -0.006434089796 0.07522520  0.00125016  0.0262408 0.0000
  9   -306.8791216569  -0.034757199378 0.00130676  0.00005412  0.0015534 0.0000
                      *** Initiating the SOSCF procedure ***
                           *** Shutting down DIIS ***
                      *** Re-Reading the Fockian *** 
                      *** Removing any level shift *** 
ITER      Energy       Delta-E        Grad      Rot      Max-DP    RMS-DP
 10   -306.87913939  -0.0000177345  0.000407  0.000407  0.000768  0.000027
               *** Restarting incremental Fock matrix formation ***
 11   -306.87914410  -0.0000047038  0.000384  0.000706  0.000958  0.000019
 12   -306.87914516  -0.0000010624  0.000081  0.000317  0.000416  0.000014
 13   -306.87914542  -0.0000002662  0.000032  0.000058  0.000166  0.000004
 14   -306.87914545  -0.0000000304  0.000003  0.000004  0.000027  0.000001
                  ***Gradient check signals convergence***
              ***Rediagonalizing the Fockian in SOSCF/NRSCF***

               *****************************************************
               *                     SUCCESS                       *
               *           SCF CONVERGED AFTER  15 CYCLES          *
               *****************************************************

Old exchange energy                            =    -14.192036033 Eh
New exchange energy                            =    -14.192064875 Eh
Exchange energy change after final integration =     -0.000028842 Eh
Total energy after final integration           =   -306.879174302 Eh
Final COS-X integration done in                =     4.556 sec

----------------
TOTAL SCF ENERGY
----------------

Total Energy       :         -306.87917430 Eh           -8350.60687 eV

Components:
Nuclear Repulsion  :          319.61237840 Eh            8697.09497 eV
Electronic Energy  :         -626.49155271 Eh          -17047.70184 eV
One Electron Energy:        -1046.30278749 Eh          -28471.34630 eV
Two Electron Energy:          419.81123478 Eh           11423.64447 eV
Max COSX asymmetry :            0.00000215 Eh               0.00006 eV

Virial components:
Potential Energy   :         -610.10934955 Eh          -16601.91943 eV
Kinetic Energy     :          303.23017524 Eh            8251.31256 eV
Virial Ratio       :            2.01203376


DFT components:
N(Alpha)           :       28.000014046767 electrons
N(Beta)            :       28.000014046767 electrons
N(Total)           :       56.000028093533 electrons
E(XC)              :      -31.094876352087 Eh       
DFET-embed. en.    :        0.000000000000 Eh       

---------------
SCF CONVERGENCE
---------------

  Last Energy change         ...   -6.4417e-09  Tolerance :   1.0000e-08
  Last MAX-Density change    ...    3.9968e-15  Tolerance :   1.0000e-07
  Last RMS-Density change    ...    4.9503e-17  Tolerance :   5.0000e-09
  Last Orbital Gradient      ...    1.3925e-06  Tolerance :   1.0000e-05
  Last Orbital Rotation      ...    2.1755e-06  Tolerance :   1.0000e-05

             **** THE GBW FILE WAS UPDATED (11_Gas.gbw) ****
             **** DENSITY 11_Gas.scfp WAS UPDATED ****
             **** ENERGY FILE WAS UPDATED (11_Gas.en.tmp) ****
             **** THE GBW FILE WAS UPDATED (11_Gas.gbw) ****
             **** DENSITY 11_Gas.scfp WAS UPDATED ****
----------------
ORBITAL ENERGIES
----------------

  NO   OCC          E(Eh)            E(eV) 
   0   2.0000     -14.418842      -392.3566 
   1   2.0000     -14.418834      -392.3564 
   2   2.0000     -10.300045      -280.2785 
   3   2.0000     -10.300023      -280.2779 
   4   2.0000     -10.282379      -279.7978 
   5   2.0000     -10.282351      -279.7970 
   6   2.0000     -10.267212      -279.3850 
   7   2.0000      -1.074928       -29.2503 
   8   2.0000      -1.022455       -27.8224 
   9   2.0000      -0.845082       -22.9959 
  10   2.0000      -0.828538       -22.5457 
  11   2.0000      -0.825100       -22.4521 
  12   2.0000      -0.750179       -20.4134 
  13   2.0000      -0.654877       -17.8201 
  14   2.0000      -0.606355       -16.4998 
  15   2.0000      -0.583109       -15.8672 
  16   2.0000      -0.580807       -15.8046 
  17   2.0000      -0.561156       -15.2698 
  18   2.0000      -0.538186       -14.6448 
  19   2.0000      -0.528042       -14.3688 
  20   2.0000      -0.506548       -13.7839 
  21   2.0000      -0.497787       -13.5455 
  22   2.0000      -0.478658       -13.0250 
  23   2.0000      -0.476340       -12.9619 
  24   2.0000      -0.460489       -12.5306 
  25   2.0000      -0.406389       -11.0584 
  26   2.0000      -0.319423        -8.6920 
  27   2.0000      -0.268139        -7.2964 
  28   0.0000       0.137581         3.7438 
  29   0.0000       0.140134         3.8132 
  30   0.0000       0.164638         4.4800 
  31   0.0000       0.190349         5.1797 
  32   0.0000       0.194001         5.2790 
  33   0.0000       0.211913         5.7665 
  34   0.0000       0.226252         6.1566 
  35   0.0000       0.229478         6.2444 
  36   0.0000       0.231938         6.3114 
  37   0.0000       0.238021         6.4769 
  38   0.0000       0.254703         6.9308 
  39   0.0000       0.260208         7.0806 
  40   0.0000       0.261277         7.1097 
  41   0.0000       0.263118         7.1598 
  42   0.0000       0.285621         7.7722 
  43   0.0000       0.324347         8.8259 
  44   0.0000       0.340836         9.2746 
  45   0.0000       0.416670        11.3382 
  46   0.0000       0.475015        12.9258 
  47   0.0000       0.489586        13.3223 
  48   0.0000       0.503406        13.6984 
  49   0.0000       0.536098        14.5880 
  50   0.0000       0.539379        14.6773 
  51   0.0000       0.565976        15.4010 
  52   0.0000       0.574939        15.6449 
  53   0.0000       0.597170        16.2498 
  54   0.0000       0.620271        16.8784 
  55   0.0000       0.652540        17.7565 
  56   0.0000       0.686922        18.6921 
  57   0.0000       0.716693        19.5022 
  58   0.0000       0.720089        19.5946 
  59   0.0000       0.724704        19.7202 
  60   0.0000       0.727453        19.7950 
  61   0.0000       0.733008        19.9462 
  62   0.0000       0.736990        20.0545 
  63   0.0000       0.763257        20.7693 
  64   0.0000       0.767918        20.8961 
  65   0.0000       0.778725        21.1902 
  66   0.0000       0.778821        21.1928 
  67   0.0000       0.787672        21.4336 
  68   0.0000       0.794928        21.6311 
  69   0.0000       0.801458        21.8088 
  70   0.0000       0.808467        21.9995 
  71   0.0000       0.817223        22.2378 
  72   0.0000       0.825860        22.4728 
  73   0.0000       0.840702        22.8767 
  74   0.0000       0.842444        22.9241 
  75   0.0000       0.870369        23.6839 
  76   0.0000       0.900074        24.4922 
  77   0.0000       0.922716        25.1084 
  78   0.0000       0.978119        26.6160 
  79   0.0000       1.011011        27.5110 
  80   0.0000       1.088559        29.6212 
  81   0.0000       1.100498        29.9461 
  82   0.0000       1.187106        32.3028 
  83   0.0000       1.217652        33.1340 
  84   0.0000       1.240993        33.7691 
  85   0.0000       1.270564        34.5738 
  86   0.0000       1.307965        35.5915 
  87   0.0000       1.334983        36.3267 
  88   0.0000       1.392854        37.9015 
  89   0.0000       1.412245        38.4291 
  90   0.0000       1.465353        39.8743 
  91   0.0000       1.492057        40.6009 
  92   0.0000       1.624257        44.1983 
  93   0.0000       1.648447        44.8565 
  94   0.0000       1.649899        44.8960 
  95   0.0000       1.652141        44.9570 
  96   0.0000       1.655395        45.0456 
  97   0.0000       1.663872        45.2763 
  98   0.0000       1.688476        45.9458 
  99   0.0000       1.725568        46.9551 
 100   0.0000       1.747384        47.5487 
 101   0.0000       1.797052        48.9003 
 102   0.0000       1.810008        49.2528 
 103   0.0000       1.856951        50.5302 
 104   0.0000       1.875908        51.0460 
 105   0.0000       1.882850        51.2350 
 106   0.0000       1.894339        51.5476 
 107   0.0000       1.910874        51.9975 
 108   0.0000       1.917145        52.1682 
 109   0.0000       1.917889        52.1884 
 110   0.0000       1.942678        52.8630 
 111   0.0000       1.943520        52.8859 
 112   0.0000       1.957611        53.2693 
 113   0.0000       1.998307        54.3767 
 114   0.0000       2.013647        54.7941 
 115   0.0000       2.044571        55.6356 
 116   0.0000       2.091388        56.9095 
 117   0.0000       2.095863        57.0313 
 118   0.0000       2.117554        57.6216 
 119   0.0000       2.152229        58.5651 
 120   0.0000       2.159916        58.7743 
 121   0.0000       2.166564        58.9552 
 122   0.0000       2.220812        60.4314 
 123   0.0000       2.233200        60.7685 
 124   0.0000       2.297798        62.5263 
 125   0.0000       2.305734        62.7422 
 126   0.0000       2.361496        64.2596 
 127   0.0000       2.399053        65.2815 
 128   0.0000       2.419194        65.8296 
 129   0.0000       2.427887        66.0662 
 130   0.0000       2.439077        66.3707 
 131   0.0000       2.472694        67.2854 
 132   0.0000       2.523992        68.6813 
 133   0.0000       2.558265        69.6139 
 134   0.0000       2.572362        69.9975 
 135   0.0000       2.614832        71.1532 
 136   0.0000       2.741821        74.6087 
 137   0.0000       2.742749        74.6340 
 138   0.0000       2.754930        74.9655 
 139   0.0000       2.767308        75.3023 
 140   0.0000       2.769763        75.3691 
 141   0.0000       2.795634        76.0731 
 142   0.0000       2.851149        77.5837 
 143   0.0000       2.908385        79.1412 
 144   0.0000       2.927167        79.6523 
 145   0.0000       2.994948        81.4967 
 146   0.0000       3.022874        82.2566 
 147   0.0000       3.025763        82.3352 
 148   0.0000       3.036416        82.6251 
 149   0.0000       3.047370        82.9232 
 150   0.0000       3.062675        83.3396 
 151   0.0000       3.075063        83.6767 
 152   0.0000       3.131078        85.2010 
 153   0.0000       3.134029        85.2813 
 154   0.0000       3.203525        87.1724 
 155   0.0000       3.229269        87.8729 
 156   0.0000       3.390356        92.2563 
 157   0.0000       3.530592        96.0723 

                    ********************************
                    * MULLIKEN POPULATION ANALYSIS *
                    ********************************

-----------------------
MULLIKEN ATOMIC CHARGES
-----------------------
   0 C :   -0.097298
   1 N :   -0.347877
   2 N :   -0.347877
   3 C :    0.087887
   4 C :    0.087887
   5 H :    0.026862
   6 H :    0.026862
   7 H :    0.034571
   8 H :    0.034571
   9 H :    0.038139
  10 H :    0.038139
  11 C :    0.128201
  12 C :    0.128201
  13 H :    0.046761
  14 H :    0.046760
  15 H :    0.016052
  16 H :    0.016052
  17 H :    0.018054
  18 H :    0.018055
Sum of atomic charges:    0.0000000

--------------------------------
MULLIKEN REDUCED ORBITAL CHARGES
--------------------------------
  0 C s       :     3.545315  s :     3.545315
      pz      :     1.236447  p :     2.483475
      px      :     0.572997
      py      :     0.674031
      dz2     :     0.006158  d :     0.068508
      dxz     :     0.007159
      dyz     :     0.025499
      dx2y2   :     0.010496
      dxy     :     0.019195
  1 N s       :     3.414963  s :     3.414963
      pz      :     1.130341  p :     3.904410
      px      :     1.627691
      py      :     1.146379
      dz2     :     0.007821  d :     0.028504
      dxz     :     0.003170
      dyz     :     0.009920
      dx2y2   :     0.003980
      dxy     :     0.003614
  2 N s       :     3.414963  s :     3.414963
      pz      :     1.130341  p :     3.904411
      px      :     1.627691
      py      :     1.146379
      dz2     :     0.007821  d :     0.028504
      dxz     :     0.003170
      dyz     :     0.009920
      dx2y2   :     0.003980
      dxy     :     0.003614
  3 C s       :     2.989383  s :     2.989383
      pz      :     0.837895  p :     2.883451
      px      :     1.014616
      py      :     1.030940
      dz2     :     0.011728  d :     0.039280
      dxz     :     0.011941
      dyz     :     0.005759
      dx2y2   :     0.002703
      dxy     :     0.007148
  4 C s       :     2.989383  s :     2.989383
      pz      :     0.837895  p :     2.883451
      px      :     1.014615
      py      :     1.030940
      dz2     :     0.011728  d :     0.039280
      dxz     :     0.011941
      dyz     :     0.005759
      dx2y2   :     0.002703
      dxy     :     0.007148
  5 H s       :     0.949817  s :     0.949817
      pz      :     0.002878  p :     0.023321
      px      :     0.008348
      py      :     0.012095
  6 H s       :     0.949817  s :     0.949817
      pz      :     0.002878  p :     0.023321
      px      :     0.008348
      py      :     0.012095
  7 H s       :     0.941479  s :     0.941479
      pz      :     0.004775  p :     0.023950
      px      :     0.008189
      py      :     0.010986
  8 H s       :     0.941479  s :     0.941479
      pz      :     0.004775  p :     0.023950
      px      :     0.008189
      py      :     0.010986
  9 H s       :     0.938862  s :     0.938862
      pz      :     0.006243  p :     0.022999
      px      :     0.011557
      py      :     0.005199
 10 H s       :     0.938862  s :     0.938862
      pz      :     0.006243  p :     0.022999
      px      :     0.011557
      py      :     0.005199
 11 C s       :     2.980899  s :     2.980899
      pz      :     0.989820  p :     2.850724
      px      :     1.002235
      py      :     0.858669
      dz2     :     0.007830  d :     0.040176
      dxz     :     0.003045
      dyz     :     0.009980
      dx2y2   :     0.005497
      dxy     :     0.013825
 12 C s       :     2.980899  s :     2.980899
      pz      :     0.989820  p :     2.850724
      px      :     1.002235
      py      :     0.858669
      dz2     :     0.007830  d :     0.040176
      dxz     :     0.003045
      dyz     :     0.009980
      dx2y2   :     0.005497
      dxy     :     0.013825
 13 H s       :     0.929512  s :     0.929512
      pz      :     0.014074  p :     0.023727
      px      :     0.004833
      py      :     0.004820
 14 H s       :     0.929513  s :     0.929513
      pz      :     0.014074  p :     0.023727
      px      :     0.004833
      py      :     0.004820
 15 H s       :     0.961075  s :     0.961075
      pz      :     0.004101  p :     0.022873
      px      :     0.011664
      py      :     0.007108
 16 H s       :     0.961075  s :     0.961075
      pz      :     0.004101  p :     0.022873
      px      :     0.011664
      py      :     0.007108
 17 H s       :     0.959106  s :     0.959106
      pz      :     0.004916  p :     0.022840
      px      :     0.011539
      py      :     0.006385
 18 H s       :     0.959105  s :     0.959105
      pz      :     0.004916  p :     0.022840
      px      :     0.011539
      py      :     0.006385


                     *******************************
                     * LOEWDIN POPULATION ANALYSIS *
                     *******************************

----------------------
LOEWDIN ATOMIC CHARGES
----------------------
   0 C :   -0.203084
   1 N :   -0.065583
   2 N :   -0.065583
   3 C :    0.017445
   4 C :    0.017445
   5 H :    0.022838
   6 H :    0.022838
   7 H :    0.025037
   8 H :    0.025037
   9 H :    0.017566
  10 H :    0.017566
  11 C :    0.030738
  12 C :    0.030738
  13 H :    0.029506
  14 H :    0.029506
  15 H :    0.011203
  16 H :    0.011203
  17 H :    0.012794
  18 H :    0.012794

-------------------------------
LOEWDIN REDUCED ORBITAL CHARGES
-------------------------------
  0 C s       :     3.150243  s :     3.150243
      pz      :     1.410420  p :     2.898559
      px      :     0.626741
      py      :     0.861398
      dz2     :     0.012697  d :     0.154282
      dxz     :     0.010167
      dyz     :     0.057480
      dx2y2   :     0.031950
      dxy     :     0.041988
  1 N s       :     3.073951  s :     3.073951
      pz      :     1.171189  p :     3.925687
      px      :     1.555498
      py      :     1.199000
      dz2     :     0.018260  d :     0.065945
      dxz     :     0.005677
      dyz     :     0.027096
      dx2y2   :     0.008623
      dxy     :     0.006289
  2 N s       :     3.073951  s :     3.073951
      pz      :     1.171189  p :     3.925687
      px      :     1.555498
      py      :     1.199000
      dz2     :     0.018260  d :     0.065945
      dxz     :     0.005677
      dyz     :     0.027096
      dx2y2   :     0.008623
      dxy     :     0.006289
  3 C s       :     2.832303  s :     2.832303
      pz      :     0.914865  p :     3.053109
      px      :     1.067867
      py      :     1.070377
      dz2     :     0.028594  d :     0.097143
      dxz     :     0.029113
      dyz     :     0.013591
      dx2y2   :     0.006890
      dxy     :     0.018955
  4 C s       :     2.832303  s :     2.832303
      pz      :     0.914865  p :     3.053109
      px      :     1.067867
      py      :     1.070377
      dz2     :     0.028594  d :     0.097143
      dxz     :     0.029113
      dyz     :     0.013591
      dx2y2   :     0.006890
      dxy     :     0.018955
  5 H s       :     0.911987  s :     0.911987
      pz      :     0.009895  p :     0.065176
      px      :     0.022424
      py      :     0.032857
  6 H s       :     0.911987  s :     0.911987
      pz      :     0.009895  p :     0.065176
      px      :     0.022424
      py      :     0.032857
  7 H s       :     0.907910  s :     0.907910
      pz      :     0.015708  p :     0.067053
      px      :     0.021972
      py      :     0.029373
  8 H s       :     0.907910  s :     0.907910
      pz      :     0.015708  p :     0.067053
      px      :     0.021972
      py      :     0.029373
  9 H s       :     0.916924  s :     0.916924
      pz      :     0.020483  p :     0.065510
      px      :     0.031355
      py      :     0.013672
 10 H s       :     0.916924  s :     0.916924
      pz      :     0.020483  p :     0.065510
      px      :     0.031355
      py      :     0.013672
 11 C s       :     2.835972  s :     2.835972
      pz      :     1.028305  p :     3.034774
      px      :     1.064138
      py      :     0.942330
      dz2     :     0.019947  d :     0.098517
      dxz     :     0.006392
      dyz     :     0.023961
      dx2y2   :     0.012404
      dxy     :     0.035812
 12 C s       :     2.835972  s :     2.835972
      pz      :     1.028305  p :     3.034774
      px      :     1.064138
      py      :     0.942330
      dz2     :     0.019947  d :     0.098517
      dxz     :     0.006392
      dyz     :     0.023961
      dx2y2   :     0.012404
      dxy     :     0.035812
 13 H s       :     0.902425  s :     0.902425
      pz      :     0.041565  p :     0.068069
      px      :     0.012873
      py      :     0.013631
 14 H s       :     0.902425  s :     0.902425
      pz      :     0.041565  p :     0.068069
      px      :     0.012873
      py      :     0.013631
 15 H s       :     0.924685  s :     0.924685
      pz      :     0.011753  p :     0.064112
      px      :     0.031305
      py      :     0.021054
 16 H s       :     0.924685  s :     0.924685
      pz      :     0.011753  p :     0.064112
      px      :     0.031305
      py      :     0.021054
 17 H s       :     0.923049  s :     0.923049
      pz      :     0.014323  p :     0.064158
      px      :     0.030924
      py      :     0.018911
 18 H s       :     0.923049  s :     0.923049
      pz      :     0.014323  p :     0.064158
      px      :     0.030924
      py      :     0.018911


                      *****************************
                      * MAYER POPULATION ANALYSIS *
                      *****************************

  NA   - Mulliken gross atomic population
  ZA   - Total nuclear charge
  QA   - Mulliken gross atomic charge
  VA   - Mayer's total valence
  BVA  - Mayer's bonded valence
  FA   - Mayer's free valence

  ATOM       NA         ZA         QA         VA         BVA        FA
  0 C      6.0973     6.0000    -0.0973     2.7571     2.7571     0.0000
  1 N      7.3479     7.0000    -0.3479     3.2754     3.2754     0.0000
  2 N      7.3479     7.0000    -0.3479     3.2754     3.2754     0.0000
  3 C      5.9121     6.0000     0.0879     3.9359     3.9359     0.0000
  4 C      5.9121     6.0000     0.0879     3.9359     3.9359     0.0000
  5 H      0.9731     1.0000     0.0269     0.9975     0.9975    -0.0000
  6 H      0.9731     1.0000     0.0269     0.9975     0.9975     0.0000
  7 H      0.9654     1.0000     0.0346     1.0038     1.0038    -0.0000
  8 H      0.9654     1.0000     0.0346     1.0038     1.0038     0.0000
  9 H      0.9619     1.0000     0.0381     0.9834     0.9834     0.0000
 10 H      0.9619     1.0000     0.0381     0.9834     0.9834     0.0000
 11 C      5.8718     6.0000     0.1282     3.8822     3.8822     0.0000
 12 C      5.8718     6.0000     0.1282     3.8822     3.8822    -0.0000
 13 H      0.9532     1.0000     0.0468     1.0355     1.0355    -0.0000
 14 H      0.9532     1.0000     0.0468     1.0355     1.0355     0.0000
 15 H      0.9839     1.0000     0.0161     0.9906     0.9906     0.0000
 16 H      0.9839     1.0000     0.0161     0.9906     0.9906     0.0000
 17 H      0.9819     1.0000     0.0181     0.9874     0.9874     0.0000
 18 H      0.9819     1.0000     0.0181     0.9874     0.9874     0.0000

  Mayer bond orders larger than 0.100000
B(  0-C ,  1-N ) :   1.2875 B(  0-C ,  2-N ) :   1.2875 B(  1-N ,  3-C ) :   0.9357 
B(  1-N , 11-C ) :   0.9767 B(  2-N ,  4-C ) :   0.9357 B(  2-N , 12-C ) :   0.9767 
B(  3-C ,  5-H ) :   0.9718 B(  3-C ,  7-H ) :   0.9753 B(  3-C ,  9-H ) :   0.9732 
B(  4-C ,  6-H ) :   0.9718 B(  4-C ,  8-H ) :   0.9753 B(  4-C , 10-H ) :   0.9732 
B( 11-C , 13-H ) :   0.9704 B( 11-C , 15-H ) :   0.9730 B( 11-C , 17-H ) :   0.9773 
B( 12-C , 14-H ) :   0.9704 B( 12-C , 16-H ) :   0.9730 B( 12-C , 18-H ) :   0.9773 


-------
TIMINGS
-------

Total SCF time: 0 days 0 hours 0 min 33 sec 

Total time                  ....      33.752 sec
Sum of individual times     ....      33.486 sec  ( 99.2%)

Fock matrix formation       ....      31.911 sec  ( 94.5%)
  Split-RI-J                ....       1.658 sec  (  5.2% of F)
  Chain of spheres X        ....      25.607 sec  ( 80.2% of F)
  XC integration            ....       4.452 sec  ( 14.0% of F)
    Basis function eval.    ....       1.363 sec  ( 30.6% of XC)
    Density eval.           ....       0.771 sec  ( 17.3% of XC)
    XC-Functional eval.     ....       0.739 sec  ( 16.6% of XC)
    XC-Potential eval.      ....       0.798 sec  ( 17.9% of XC)
Diagonalization             ....       0.057 sec  (  0.2%)
Density matrix formation    ....       0.004 sec  (  0.0%)
Population analysis         ....       0.008 sec  (  0.0%)
Initial guess               ....       0.557 sec  (  1.6%)
Orbital Transformation      ....       0.000 sec  (  0.0%)
Orbital Orthonormalization  ....       0.000 sec  (  0.0%)
DIIS solution               ....       0.044 sec  (  0.1%)
SOSCF solution              ....       0.023 sec  (  0.1%)
Grid generation             ....       0.882 sec  (  2.6%)

Maximum memory used throughout the entire SCF-calculation: 53.0 MB


-------------------------------------------------------------------------------
                          DFT DISPERSION CORRECTION                            
                                                                               
                                 DFTD4 V2.5                                    
-------------------------------------------------------------------------------
The WB97X functional is recognized
Active option DFTDOPT                   ...         5   

Starting D4
-------------------------   ----------------
Dispersion correction           -0.002167133
-------------------------   ----------------


-------------------------   --------------------
FINAL SINGLE POINT ENERGY      -306.881341435090
-------------------------   --------------------



           ************************************************************
           *        Program running with 4 parallel MPI-processes     *
           *              working on a common directory               *
           ************************************************************
------------------------------------------------------------------------------
                         ORCA SCF GRADIENT CALCULATION
------------------------------------------------------------------------------

 ... reading COSX grid (gridx3)
Gradient of the Kohn-Sham DFT energy:
Kohn-Sham wavefunction type      ... RKS
Hartree-Fock exchange scaling    ...    0.158
Number of operators              ...    1
Number of atoms                  ...   19
Basis set dimensions             ...  158
Integral neglect threshold       ... 2.5e-11
Integral primitive cutoff        ... 2.5e-12
SHARK Integral package           ... ON

Nuc. rep. gradient       (SHARK) ... done (  0.0 sec)
HCore & Overlap gradient (SHARK) ... done (  0.1 sec)
RI-J gradient            (SHARK) ... done (  0.3 sec)
COSX-gradient                    ... done (  5.1 sec)
Exchange-correlation gradient    ... done
Dispersion correction            ... Starting D4
Starting D4
Starting D4
Starting D4


------------------- 
Dispersion Gradient 
------------------- 
   1  :    0.000000000   -0.000000000    0.000009973
   2  :   -0.000000172    0.000018499   -0.000000196
   3  :    0.000000172   -0.000018499   -0.000000196
   4  :    0.000007110    0.000026141   -0.000032714
   5  :   -0.000007110   -0.000026141   -0.000032714
   6  :    0.000000088    0.000006071   -0.000000940
   7  :   -0.000000088   -0.000006071   -0.000000940
   8  :   -0.000000698    0.000006539    0.000000416
   9  :    0.000000698   -0.000006539    0.000000416
  10  :    0.000001811    0.000006801   -0.000000874
  11  :   -0.000001811   -0.000006801   -0.000000874
  12  :   -0.000002972    0.000045774    0.000019878
  13  :    0.000002972   -0.000045774    0.000019878
  14  :   -0.000000362    0.000009260    0.000002575
  15  :    0.000000362   -0.000009260    0.000002575
  16  :   -0.000001310    0.000006643    0.000003224
  17  :    0.000001310   -0.000006643    0.000003224
  18  :    0.000000572    0.000007091    0.000003644
  19  :   -0.000000572   -0.000007091    0.000003644

  |G| =    0.000083573

done

------------------
CARTESIAN GRADIENT
------------------

   1   C   :   -0.000000001    0.000000043    0.002367586
   2   N   :   -0.000226154   -0.004388085    0.003545699
   3   N   :    0.000226151    0.004388012    0.003545619
   4   C   :    0.004309509    0.003571732   -0.013552882
   5   C   :   -0.004309493   -0.003571685   -0.013552874
   6   H   :   -0.002950023   -0.004140113    0.000037670
   7   H   :    0.002950023    0.004140108    0.000037666
   8   H   :   -0.003519799    0.004667942    0.002736181
   9   H   :    0.003519791   -0.004667928    0.002736195
  10   H   :    0.004144887   -0.000556902    0.002696538
  11   H   :   -0.004144888    0.000556899    0.002696573
  12   C   :   -0.001771129    0.007979944    0.007932672
  13   C   :    0.001771123   -0.007979913    0.007932653
  14   H   :    0.000839267    0.001426275   -0.005936549
  15   H   :   -0.000839267   -0.001426280   -0.005936542
  16   H   :   -0.003840043   -0.002665593    0.000081084
  17   H   :    0.003840042    0.002665582    0.000081104
  18   H   :    0.003759526   -0.002512161    0.001366161
  19   H   :   -0.003759513    0.002512141    0.001366158

Difference to translation invariance:
           :    0.0000000096    0.0000000190    0.0001807093

Difference to rotation invariance:
           :    0.0000001023    0.0000000110    0.0004465997

Norm of the cartesian gradient     ...    0.0332822808
RMS gradient                       ...    0.0044083458
MAX gradient                       ...    0.0135528824

-------
TIMINGS
-------

Total SCF gradient time            ...        7.006 sec

One electron gradient       ....       0.053 sec  (  0.8%)
RI-J Coulomb gradient       ....       0.294 sec  (  4.2%)
COSX gradient               ....       5.072 sec  ( 72.4%)
XC gradient                 ....       1.306 sec  ( 18.6%)

Maximum memory used throughout the entire SCFGRAD-calculation: 41.0 MB
------------------------------------------------------------------------------
                         ORCA GEOMETRY RELAXATION STEP
------------------------------------------------------------------------------

Reading the OPT-File                    .... done
Getting information on internals        .... done
Copying old internal coords+grads       .... done
Making the new internal coordinates     .... (new redundants).... done
Validating the new internal coordinates .... (new redundants).... done
Calculating the B-matrix                .... done
Calculating the G,G- and P matrices     .... done
Transforming gradient to internals      .... done
Projecting the internal gradient        .... done
Number of atoms                         ....  19
Number of internal coordinates          ....  77
Current Energy                          ....  -306.881341435 Eh
Current gradient norm                   ....     0.033282281 Eh/bohr
Maximum allowed component of the step   ....  0.300
Current trust radius                    ....  0.300
Evaluating the initial hessian          ....  (Almloef) done
Projecting the Hessian                  .... done
Forming the augmented Hessian           .... done
Diagonalizing the augmented Hessian     .... done
Last element of RFO vector              ....  0.996234665
Lowest eigenvalues of augmented Hessian:
 -0.001880322  0.014494416  0.014495956  0.015781684  0.015781878
Length of the computed step             ....  0.087025388
The final length of the internal step   ....  0.087025388
Converting the step to cartesian space:
 Initial RMS(Int)=    0.0099174634
Transforming coordinates:
 Iter   0:  RMS(Cart)=    0.0524051264 RMS(Int)=    0.0100007640
 Iter   1:  RMS(Cart)=    0.0007719372 RMS(Int)=    0.0003638470
 Iter   2:  RMS(Cart)=    0.0000198912 RMS(Int)=    0.0000061176
 Iter   3:  RMS(Cart)=    0.0000005455 RMS(Int)=    0.0000002932
 Iter   4:  RMS(Cart)=    0.0000000148 RMS(Int)=    0.0000000069
done
Storing new coordinates                 .... done

                                .--------------------.
          ----------------------|Geometry convergence|-------------------------
          Item                value                   Tolerance       Converged
          ---------------------------------------------------------------------
          RMS gradient        0.0030187914            0.0001000000      NO
          MAX gradient        0.0089019238            0.0003000000      NO
          RMS step            0.0099174634            0.0020000000      NO
          MAX step            0.0268658485            0.0040000000      NO
          ........................................................
          Max(Bonds)      0.0114      Max(Angles)    1.05
          Max(Dihed)        1.54      Max(Improp)    0.00
          ---------------------------------------------------------------------

The optimization has not yet converged - more geometry cycles are needed


    ---------------------------------------------------------------------------
                         Redundant Internal Coordinates
                            (Angstroem and degrees)

        Definition                    Value    dE/dq     Step     New-Value
    ----------------------------------------------------------------------------
     1. B(N   1,C   0)                1.3485  0.003518 -0.0028    1.3457   
     2. B(N   2,C   0)                1.3485  0.003518 -0.0028    1.3457   
     3. B(C   3,N   1)                1.4732  0.008902 -0.0114    1.4618   
     4. B(C   4,N   2)                1.4732  0.008902 -0.0114    1.4618   
     5. B(H   5,C   3)                1.0939 -0.005079  0.0075    1.1014   
     6. B(H   6,C   4)                1.0939 -0.005079  0.0075    1.1014   
     7. B(H   7,C   3)                1.0867 -0.006446  0.0093    1.0960   
     8. B(H   8,C   4)                1.0867 -0.006446  0.0093    1.0960   
     9. B(H   9,C   3)                1.0967 -0.004966  0.0074    1.1041   
    10. B(H  10,C   4)                1.0967 -0.004966  0.0074    1.1041   
    11. B(C  11,N   1)                1.4616  0.005487 -0.0067    1.4548   
    12. B(C  12,N   2)                1.4616  0.005487 -0.0067    1.4548   
    13. B(H  13,C  11)                1.0868 -0.006163  0.0089    1.0957   
    14. B(H  14,C  12)                1.0868 -0.006163  0.0089    1.0957   
    15. B(H  15,C  11)                1.0980 -0.004665  0.0070    1.1050   
    16. B(H  16,C  12)                1.0980 -0.004665  0.0070    1.1050   
    17. B(H  17,C  11)                1.0970 -0.004724  0.0071    1.1041   
    18. B(H  18,C  12)                1.0970 -0.004724  0.0071    1.1041   
    19. A(N   1,C   0,N   2)          120.09  0.008013   -1.05    119.04   
    20. A(C   3,N   1,C  11)          112.84 -0.000922    0.14    112.98   
    21. A(C   0,N   1,C   3)          130.62  0.003564   -0.52    130.10   
    22. A(C   0,N   1,C  11)          115.98 -0.002633    0.37    116.36   
    23. A(C   4,N   2,C  12)          112.84 -0.000922    0.14    112.98   
    24. A(C   0,N   2,C  12)          115.98 -0.002633    0.37    116.36   
    25. A(C   0,N   2,C   4)          130.62  0.003563   -0.52    130.10   
    26. A(H   5,C   3,H   7)          107.60  0.000081   -0.02    107.58   
    27. A(N   1,C   3,H   9)          113.02  0.000246   -0.04    112.98   
    28. A(H   5,C   3,H   9)          107.53 -0.000271    0.07    107.59   
    29. A(H   7,C   3,H   9)          109.24  0.000041   -0.02    109.23   
    30. A(N   1,C   3,H   7)          110.83 -0.000239    0.03    110.86   
    31. A(N   1,C   3,H   5)          108.42  0.000136   -0.02    108.40   
    32. A(H   6,C   4,H  10)          107.53 -0.000271    0.07    107.59   
    33. A(H   8,C   4,H  10)          109.24  0.000041   -0.02    109.23   
    34. A(N   2,C   4,H  10)          113.02  0.000246   -0.04    112.98   
    35. A(N   2,C   4,H   6)          108.42  0.000136   -0.02    108.40   
    36. A(H   6,C   4,H   8)          107.60  0.000081   -0.02    107.58   
    37. A(N   2,C   4,H   8)          110.83 -0.000239    0.03    110.86   
    38. A(H  15,C  11,H  17)          108.04 -0.000028    0.02    108.06   
    39. A(H  13,C  11,H  17)          109.31  0.000211   -0.03    109.28   
    40. A(N   1,C  11,H  17)          110.90 -0.000047    0.02    110.92   
    41. A(H  13,C  11,H  15)          109.66  0.000295   -0.07    109.59   
    42. A(N   1,C  11,H  15)          111.06  0.000017   -0.00    111.05   
    43. A(N   1,C  11,H  13)          107.85 -0.000435    0.07    107.93   
    44. A(H  14,C  12,H  18)          109.31  0.000211   -0.03    109.28   
    45. A(N   2,C  12,H  18)          110.90 -0.000047    0.02    110.92   
    46. A(H  14,C  12,H  16)          109.66  0.000295   -0.07    109.59   
    47. A(N   2,C  12,H  16)          111.06  0.000017   -0.00    111.05   
    48. A(H  16,C  12,H  18)          108.04 -0.000028    0.02    108.06   
    49. A(N   2,C  12,H  14)          107.85 -0.000435    0.07    107.93   
    50. D(C  11,N   1,C   0,N   2)    172.75 -0.000834    1.54    174.29   
    51. D(C   3,N   1,C   0,N   2)    -16.53 -0.000943    1.52    -15.01   
    52. D(C   4,N   2,C   0,N   1)    -16.53 -0.000943    1.52    -15.01   
    53. D(C  12,N   2,C   0,N   1)    172.75 -0.000834    1.54    174.29   
    54. D(H   5,C   3,N   1,C  11)     33.72 -0.000125   -0.14     33.58   
    55. D(H   7,C   3,N   1,C   0)    -19.34  0.000167   -0.16    -19.50   
    56. D(H   9,C   3,N   1,C  11)    -85.38 -0.000029   -0.18    -85.57   
    57. D(H   9,C   3,N   1,C   0)    103.67  0.000220   -0.19    103.48   
    58. D(H   5,C   3,N   1,C   0)   -137.23  0.000125   -0.14   -137.37   
    59. D(H   7,C   3,N   1,C  11)    151.61 -0.000082   -0.16    151.45   
    60. D(H   8,C   4,N   2,C  12)    151.61 -0.000082   -0.16    151.45   
    61. D(H   8,C   4,N   2,C   0)    -19.34  0.000167   -0.16    -19.50   
    62. D(H   6,C   4,N   2,C  12)     33.72 -0.000125   -0.14     33.58   
    63. D(H  10,C   4,N   2,C   0)    103.67  0.000220   -0.19    103.48   
    64. D(H   6,C   4,N   2,C   0)   -137.23  0.000125   -0.14   -137.37   
    65. D(H  10,C   4,N   2,C  12)    -85.38 -0.000029   -0.18    -85.57   
    66. D(H  17,C  11,N   1,C   3)     64.57 -0.000174   -0.01     64.56   
    67. D(H  17,C  11,N   1,C   0)   -123.07  0.000198   -0.09   -123.16   
    68. D(H  15,C  11,N   1,C   3)    -55.58 -0.000118   -0.04    -55.62   
    69. D(H  15,C  11,N   1,C   0)    116.78  0.000254   -0.12    116.67   
    70. D(H  13,C  11,N   1,C   3)   -175.77 -0.000215    0.00   -175.76   
    71. D(H  13,C  11,N   1,C   0)     -3.40  0.000157   -0.08     -3.48   
    72. D(H  18,C  12,N   2,C   4)     64.57 -0.000174   -0.01     64.56   
    73. D(H  18,C  12,N   2,C   0)   -123.07  0.000198   -0.09   -123.16   
    74. D(H  16,C  12,N   2,C   4)    -55.58 -0.000118   -0.04    -55.62   
    75. D(H  16,C  12,N   2,C   0)    116.78  0.000254   -0.12    116.67   
    76. D(H  14,C  12,N   2,C   4)   -175.77 -0.000215    0.00   -175.76   
    77. D(H  14,C  12,N   2,C   0)     -3.40  0.000157   -0.08     -3.48   
    ----------------------------------------------------------------------------

         *************************************************************
         *                GEOMETRY OPTIMIZATION CYCLE   2            *
         *************************************************************
---------------------------------
CARTESIAN COORDINATES (ANGSTROEM)
---------------------------------
  C     -0.000000    0.000000    0.829520
  N     -0.010015    1.159678    0.146935
  N      0.010015   -1.159678    0.146935
  C      0.277262    1.425875   -1.261449
  C     -0.277262   -1.425876   -1.261449
  H      0.893722    2.336409   -1.324496
  H     -0.893722   -2.336410   -1.324496
  H      0.852971    0.605070   -1.704304
  H     -0.852971   -0.605071   -1.704305
  H     -0.633168    1.596966   -1.862188
  H      0.633168   -1.596966   -1.862188
  C     -0.150164    2.373105    0.937191
  C      0.150164   -2.373105    0.937191
  H     -0.286568    2.079917    1.984044
  H      0.286568   -2.079917    1.984044
  H      0.746424    3.012447    0.845255
  H     -0.746424   -3.012447    0.845254
[...]
     51       0.183605  -0.156371  -0.127893   0.326990   0.320881   0.034320
     52       0.250862  -0.242309  -0.275608  -0.215529  -0.212169  -0.023192
     53       0.019306  -0.015114  -0.154865   0.142724   0.139920   0.013780
     54      -0.183604   0.156371  -0.127893   0.326980  -0.320894   0.034318
     55      -0.250859   0.242309  -0.275607  -0.215521   0.212177  -0.023191
     56       0.019300  -0.015114   0.154865  -0.142720   0.139926  -0.013780
                 48         49         50         51         52         53    
      0      -0.000000   0.000000   0.000596  -0.000000  -0.000584   0.000167
      1       0.000000   0.000000   0.000308  -0.000000  -0.000282   0.000348
      2       0.000998   0.000198  -0.000000  -0.000383   0.000000   0.000000
      3       0.000647  -0.000448  -0.000475   0.000391   0.000404   0.000351
      4       0.000546   0.000112   0.000189   0.000098   0.000060  -0.000136
      5      -0.000750  -0.000125  -0.000074  -0.000040  -0.000259  -0.000342
      6      -0.000647   0.000448  -0.000475  -0.000391   0.000404   0.000351
      7      -0.000546  -0.000112   0.000190  -0.000098   0.000060  -0.000136
      8      -0.000751  -0.000125   0.000075  -0.000040   0.000259   0.000342
      9      -0.009599   0.006147   0.004228  -0.056235  -0.054084  -0.034602
     10       0.016799   0.003563   0.002651  -0.029442  -0.033331   0.054358
     11      -0.033766   0.001524   0.001167  -0.015281  -0.016251   0.011395
     12       0.009599  -0.006146   0.004230   0.056233  -0.054086  -0.034594
     13      -0.016799  -0.003562   0.002652   0.029441  -0.033332   0.054343
     14      -0.033766   0.001523  -0.001167  -0.015280   0.016251  -0.011392
     15      -0.196296  -0.035009  -0.025026   0.299946   0.308998  -0.098850
     16      -0.294022  -0.056428  -0.040571   0.481683   0.493350  -0.140733
     17       0.003887   0.002985   0.002700  -0.009786  -0.010312   0.002830
     18       0.196300   0.035004  -0.025034  -0.299935   0.309009  -0.098819
     19       0.294027   0.056420  -0.040584  -0.481665   0.493367  -0.140688
     20       0.003887   0.002985  -0.002701  -0.009786   0.010312  -0.002829
     21      -0.129739  -0.005650  -0.002359   0.047303   0.021204   0.368991
     22       0.163944   0.008059   0.003218  -0.081601  -0.043180  -0.494316
     23       0.076074   0.004117   0.001822  -0.039749  -0.022234  -0.235939
     24       0.129741   0.005650  -0.002360  -0.047302   0.021206   0.368893
     25      -0.163946  -0.008059   0.003220   0.081599  -0.043184  -0.494186
     26       0.076075   0.004117  -0.001823  -0.039748   0.022236   0.235878
     27       0.438362  -0.032357  -0.023549   0.313884   0.308157   0.138816
     28      -0.062133   0.005107   0.003678  -0.055322  -0.054553  -0.010310
     29       0.324451  -0.026426  -0.019600   0.235127   0.229544   0.103497
     30      -0.438371   0.032352  -0.023556  -0.313872   0.308168   0.138790
     31       0.062135  -0.005106   0.003680   0.055320  -0.054555  -0.010308
     32       0.324457  -0.026422   0.019606   0.235118  -0.229552  -0.103477
     33       0.000545   0.064915   0.065094   0.007544   0.005613  -0.000203
     34       0.008333  -0.002727  -0.002809  -0.000306   0.000010  -0.000107
     35       0.001318   0.011819   0.011817   0.000654   0.000215  -0.000002
     36      -0.000545  -0.064900   0.065109  -0.007544   0.005613  -0.000203
     37      -0.008333   0.002726  -0.002810   0.000306   0.000010  -0.000107
     38       0.001318   0.011817  -0.011819   0.000654  -0.000215   0.000002
     39       0.008423   0.003909   0.003991   0.000531   0.000375  -0.000099
     40       0.011753  -0.009281  -0.009277  -0.001595  -0.001650   0.000398
     41      -0.044642   0.032647   0.033124   0.009598   0.008831  -0.001127
     42      -0.008423  -0.003909   0.003992  -0.000531   0.000375  -0.000099
     43      -0.011753   0.009279  -0.009279   0.001595  -0.001650   0.000399
     44      -0.044643   0.032639  -0.033131   0.009598  -0.008831   0.001130
     45      -0.090460  -0.360891  -0.361427  -0.039584  -0.029361  -0.001137
     46      -0.062373  -0.253035  -0.253342  -0.025795  -0.018658  -0.001097
     47       0.001909   0.021456   0.021656   0.004823   0.004163  -0.000710
     48       0.090460   0.360809  -0.361509   0.039583  -0.029362  -0.001137
     49       0.062374   0.252978  -0.253401   0.025794  -0.018659  -0.001096
     50       0.001909   0.021451  -0.021661   0.004823  -0.004163   0.000710
     51       0.071492  -0.413006  -0.414591  -0.048135  -0.033940   0.001132
     52      -0.048609   0.292570   0.293706   0.032873   0.022589  -0.000569
     53       0.029440  -0.193204  -0.193895  -0.022881  -0.016222  -0.000327
     54      -0.071493   0.412912  -0.414685   0.048134  -0.033942   0.001131
     55       0.048609  -0.292503   0.293771  -0.032872   0.022591  -0.000568
     56       0.029440  -0.193159   0.193939  -0.022881   0.016223   0.000327
                 54         55         56    
      0       0.000000   0.000114   0.000001
      1       0.000000  -0.000939  -0.000006
      2      -0.000477  -0.000001   0.000149
      3      -0.000414  -0.000076  -0.000019
      4      -0.000191  -0.000527  -0.000600
      5       0.000400   0.000343  -0.000028
      6       0.000414  -0.000076   0.000018
      7       0.000191  -0.000534   0.000593
      8       0.000400  -0.000343  -0.000032
      9       0.030916  -0.000305  -0.001241
     10      -0.055001  -0.000372   0.001510
     11      -0.013776  -0.000344   0.000184
     12      -0.030925  -0.000321   0.001237
     13       0.055016  -0.000352  -0.001514
     14      -0.013779   0.000341   0.000189
     15       0.113884   0.002980  -0.000830
     16       0.166759   0.003811  -0.001903
     17      -0.001063  -0.001097  -0.001436
     18      -0.113910   0.002969   0.000869
     19      -0.166796   0.003785   0.001952
     20      -0.001064   0.001115  -0.001421
     21      -0.371425   0.000080   0.012475
     22       0.496322   0.000390  -0.015886
     23       0.234975   0.000021  -0.007658
     24       0.371522   0.000242  -0.012474
     25      -0.496452   0.000183   0.015891
     26       0.235037   0.000079  -0.007659
     27      -0.095811   0.002812   0.005154
     28       0.007542  -0.000619  -0.000472
     29      -0.075420   0.001959   0.003482
     30       0.095847   0.002878  -0.005118
     31      -0.007545  -0.000625   0.000464
     32      -0.075446  -0.002004   0.003457
     33       0.000046  -0.010163  -0.010330
     34      -0.000677  -0.026476  -0.026892
     35       0.001950   0.057898   0.058612
     36      -0.000046  -0.010295   0.010198
     37       0.000678  -0.026820   0.026550
     38       0.001950  -0.058646   0.057863
     39       0.004160   0.123133   0.124619
     40       0.005453   0.175950   0.177902
     41      -0.019458  -0.633131  -0.640810
     42      -0.004160   0.124724  -0.123026
     43      -0.005454   0.178222  -0.175627
     44      -0.019461   0.641313  -0.632621
     45       0.003092   0.116517   0.118593
     46       0.002263   0.075450   0.076705
     47       0.000772  -0.002920  -0.003070
     48      -0.003093   0.118031  -0.117086
     49      -0.002263   0.076430  -0.075729
     50       0.000772   0.002959  -0.003032
     51      -0.005442  -0.120419  -0.122294
     52       0.003325   0.077809   0.079058
     53      -0.001607  -0.050755  -0.051578
     54       0.005443  -0.121981   0.120736
     55      -0.003325   0.078819  -0.078051
     56      -0.001607   0.051414  -0.050921


-----------
IR SPECTRUM
-----------

 Mode   freq       eps      Int      T**2         TX        TY        TZ
       cm**-1   L/(mol*cm) km/mol    a.u.
----------------------------------------------------------------------------
  6:     66.40   0.000013    0.07  0.000063  (-0.000000  0.000000  0.007926)
  7:    157.96   0.000943    4.77  0.001863  ( 0.042595  0.006989  0.000000)
  8:    180.32   0.000000    0.00  0.000000  (-0.000000  0.000000  0.000008)
  9:    188.11   0.000032    0.16  0.000053  ( 0.000000  0.000000  0.007265)
 10:    197.98   0.000370    1.87  0.000584  ( 0.019880  0.013725 -0.000000)
 11:    243.23   0.001388    7.01  0.001781  ( 0.039807 -0.013999 -0.000000)
 12:    283.85   0.000368    1.86  0.000404  ( 0.000000 -0.000000  0.020108)
 13:    327.49   0.000033    0.17  0.000032  ( 0.000000 -0.000000  0.005636)
 14:    358.42   0.002359   11.92  0.002054  (-0.022970  0.039072  0.000000)
 15:    430.79   0.000030    0.15  0.000022  (-0.000000 -0.000000  0.004647)
 16:    441.51   0.001971    9.96  0.001393  (-0.012601 -0.035133 -0.000000)
 17:    500.00   0.000568    2.87  0.000354  ( 0.005751 -0.017922  0.000000)
 18:    624.42   0.000453    2.29  0.000226  ( 0.000000 -0.000000  0.015041)
 19:    897.30   0.001611    8.14  0.000560  (-0.000000  0.000000  0.023670)
 20:    922.81   0.006540   33.05  0.002212  (-0.002703 -0.046951  0.000000)
 21:   1066.40   0.000496    2.51  0.000145  ( 0.000000 -0.000001  0.012052)
 22:   1070.85   0.001090    5.51  0.000318  (-0.001918  0.017718  0.000000)
 23:   1093.31   0.000719    3.64  0.000205  ( 0.000000 -0.000000  0.014329)
 24:   1111.28   0.000306    1.54  0.000086  ( 0.008808 -0.002871  0.000000)
 25:   1114.56   0.000366    1.85  0.000103  (-0.000000  0.000000  0.010130)
 26:   1161.98   0.006808   34.41  0.001828  ( 0.011310  0.041238  0.000000)
 27:   1165.35   0.000152    0.77  0.000041  (-0.000000  0.000000  0.006386)
 28:   1170.84   0.011381   57.51  0.003033  (-0.009366  0.054273  0.000000)
 29:   1274.25   0.000350    1.77  0.000086  ( 0.002809 -0.008826  0.000000)
 30:   1334.74   0.004407   22.27  0.001030  (-0.000000  0.000000  0.032101)
 31:   1412.09   0.000012    0.06  0.000003  ( 0.000000 -0.000000  0.001615)
 32:   1414.22   0.001935    9.78  0.000427  ( 0.007380  0.019303 -0.000000)
 33:   1421.18   0.019662   99.36  0.004317  ( 0.002563 -0.065657 -0.000000)
 34:   1421.89   0.000083    0.42  0.000018  (-0.000000  0.000003 -0.004260)
 35:   1451.33   0.000559    2.83  0.000120  (-0.000000  0.000000 -0.010967)
 36:   1457.56   0.000294    1.49  0.000063  ( 0.006991 -0.003754 -0.000000)
 37:   1474.17   0.000067    0.34  0.000014  ( 0.000001  0.000001 -0.003761)
 38:   1475.39   0.005232   26.44  0.001107  ( 0.032867  0.005137 -0.000000)
 39:   1476.07   0.011003   55.61  0.002326  ( 0.004325 -0.048037  0.000000)
 40:   1478.20   0.002086   10.54  0.000440  (-0.000000 -0.000001 -0.020986)
 41:   1492.06   0.001971    9.96  0.000412  (-0.018770 -0.007747 -0.000001)
 42:   1492.54   0.001313    6.64  0.000275  ( 0.000001  0.000000 -0.016569)
 43:   1515.37   0.001163    5.88  0.000239  ( 0.000000  0.000000  0.015473)
 44:   1591.87   0.065492  330.97  0.012839  (-0.007596 -0.113053  0.000000)
 45:   3030.35   0.028948  146.29  0.002981  ( 0.003392  0.054493  0.000000)
 46:   3032.05   0.002450   12.38  0.000252  (-0.000000 -0.000001  0.015878)
 47:   3046.10   0.007683   38.83  0.000787  (-0.002083  0.027979 -0.000000)
 48:   3051.23   0.011670   58.98  0.001194  ( 0.000000 -0.000000 -0.034548)
 49:   3108.78   0.000461    2.33  0.000046  ( 0.000005 -0.000000  0.006803)
 50:   3109.09   0.017018   86.00  0.001708  ( 0.041326 -0.000527 -0.000001)
 51:   3127.99   0.000268    1.35  0.000027  (-0.000000 -0.000000 -0.005168)
 52:   3130.94   0.008117   41.02  0.000809  (-0.023009 -0.016722  0.000000)
 53:   3203.93   0.003920   19.81  0.000382  (-0.012200  0.015264  0.000001)
 54:   3206.84   0.000258    1.30  0.000025  (-0.000002  0.000002 -0.005009)
 55:   3216.12   0.000316    1.60  0.000031  (-0.002396 -0.004993 -0.000052)
 56:   3216.13   0.000678    3.43  0.000066  (-0.000015 -0.000032  0.008111)

* The epsilon (eps) is given for a Dirac delta lineshape.
** The dipole moment derivative (T) already includes vibrational overlap.

The first frequency considered to be a vibration is 6
The total number of vibrations considered is 51


--------------------------
THERMOCHEMISTRY AT 298.15K
--------------------------

Temperature         ... 298.15 K
Pressure            ... 1.00 atm
Total Mass          ... 100.16 AMU

Throughout the following assumptions are being made:
  (1) The electronic state is orbitally nondegenerate
  (2) There are no thermally accessible electronically excited states
  (3) Hindered rotations indicated by low frequency modes are not
      treated as such but are treated as vibrations and this may
      cause some error
  (4) All equations used are the standard statistical mechanics
      equations for an ideal gas
  (5) All vibrations are strictly harmonic

freq.      66.40  E(vib)   ...       0.50 
freq.     157.96  E(vib)   ...       0.40 
freq.     180.32  E(vib)   ...       0.37 
freq.     188.11  E(vib)   ...       0.36 
freq.     197.98  E(vib)   ...       0.35 
freq.     243.23  E(vib)   ...       0.31 
freq.     283.85  E(vib)   ...       0.28 
freq.     327.49  E(vib)   ...       0.24 
freq.     358.42  E(vib)   ...       0.22 
freq.     430.79  E(vib)   ...       0.18 
freq.     441.51  E(vib)   ...       0.17 
freq.     500.00  E(vib)   ...       0.14 
freq.     624.42  E(vib)   ...       0.09 
freq.     897.30  E(vib)   ...       0.03 
freq.     922.81  E(vib)   ...       0.03 
freq.    1066.40  E(vib)   ...       0.02 
freq.    1070.85  E(vib)   ...       0.02 
freq.    1093.31  E(vib)   ...       0.02 
freq.    1111.28  E(vib)   ...       0.01 
freq.    1114.56  E(vib)   ...       0.01 
freq.    1161.98  E(vib)   ...       0.01 
freq.    1165.35  E(vib)   ...       0.01 
freq.    1170.84  E(vib)   ...       0.01 
freq.    1274.25  E(vib)   ...       0.01 
freq.    1334.74  E(vib)   ...       0.01 
freq.    1412.09  E(vib)   ...       0.00 
freq.    1414.22  E(vib)   ...       0.00 
freq.    1421.18  E(vib)   ...       0.00 
freq.    1421.89  E(vib)   ...       0.00 
freq.    1451.33  E(vib)   ...       0.00 
freq.    1457.56  E(vib)   ...       0.00 
freq.    1474.17  E(vib)   ...       0.00 
freq.    1475.39  E(vib)   ...       0.00 
freq.    1476.07  E(vib)   ...       0.00 
freq.    1478.20  E(vib)   ...       0.00 
freq.    1492.06  E(vib)   ...       0.00 
freq.    1492.54  E(vib)   ...       0.00 
freq.    1515.37  E(vib)   ...       0.00 
freq.    1591.87  E(vib)   ...       0.00 
freq.    3030.35  E(vib)   ...       0.00 
freq.    3032.05  E(vib)   ...       0.00 
freq.    3046.10  E(vib)   ...       0.00 
freq.    3051.23  E(vib)   ...       0.00 
freq.    3108.78  E(vib)   ...       0.00 
freq.    3109.09  E(vib)   ...       0.00 
freq.    3127.99  E(vib)   ...       0.00 
freq.    3130.94  E(vib)   ...       0.00 
freq.    3203.93  E(vib)   ...       0.00 
freq.    3206.84  E(vib)   ...       0.00 
freq.    3216.12  E(vib)   ...       0.00 
freq.    3216.13  E(vib)   ...       0.00 

------------
INNER ENERGY
------------

The inner energy is: U= E(el) + E(ZPE) + E(vib) + E(rot) + E(trans)
    E(el)   - is the total energy from the electronic structure calculation
              = E(kin-el) + E(nuc-el) + E(el-el) + E(nuc-nuc)
    E(ZPE)  - the the zero temperature vibrational energy from the frequency calculation
    E(vib)  - the the finite temperature correction to E(ZPE) due to population
              of excited vibrational states
    E(rot)  - is the rotational thermal energy
    E(trans)- is the translational thermal energy

Summary of contributions to the inner energy U:
Electronic energy                ...   -306.88238019 Eh
Zero point energy                ...      0.17185953 Eh     107.84 kcal/mol
Thermal vibrational correction   ...      0.00615785 Eh       3.86 kcal/mol
Thermal rotational correction    ...      0.00141627 Eh       0.89 kcal/mol
Thermal translational correction ...      0.00141627 Eh       0.89 kcal/mol
-----------------------------------------------------------------------
Total thermal energy                   -306.70153026 Eh


Summary of corrections to the electronic energy:
(perhaps to be used in another calculation)
Total thermal correction                  0.00899040 Eh       5.64 kcal/mol
Non-thermal (ZPE) correction              0.17185953 Eh     107.84 kcal/mol
-----------------------------------------------------------------------
Total correction                          0.18084993 Eh     113.48 kcal/mol


--------
ENTHALPY
--------

The enthalpy is H = U + kB*T
                kB is Boltzmann's constant
Total free energy                 ...   -306.70153026 Eh 
Thermal Enthalpy correction       ...      0.00094421 Eh       0.59 kcal/mol
-----------------------------------------------------------------------
Total Enthalpy                    ...   -306.70058605 Eh


Note: Rotational entropy computed according to Herzberg 
Infrared and Raman Spectra, Chapter V,1, Van Nostrand Reinhold, 1945 
Point Group:  C2, Symmetry Number:   2  
Rotational constants in cm-1:     0.161715     0.057173     0.044883 

Vibrational entropy computed according to the QRRHO of S. Grimme
Chem.Eur.J. 2012 18 9955


-------
ENTROPY
-------

The entropy contributions are T*S = T*(S(el)+S(vib)+S(rot)+S(trans))
     S(el)   - electronic entropy
     S(vib)  - vibrational entropy
     S(rot)  - rotational entropy
     S(trans)- translational entropy
The entropies will be listed as multiplied by the temperature to get
units of energy

Electronic entropy                ...      0.00000000 Eh      0.00 kcal/mol
Vibrational entropy               ...      0.01051522 Eh      6.60 kcal/mol
Rotational entropy                ...      0.01253266 Eh      7.86 kcal/mol
Translational entropy             ...      0.01887358 Eh     11.84 kcal/mol
-----------------------------------------------------------------------
Final entropy term                ...      0.04192146 Eh     26.31 kcal/mol

In case the symmetry of your molecule has not been determined correctly
or in case you have a reason to use a different symmetry number we print 
out the resulting rotational entropy values for sn=1,12 :
 --------------------------------------------------------
|  sn= 1 | S(rot)=       0.01318712 Eh      8.28 kcal/mol|
|  sn= 2 | S(rot)=       0.01253266 Eh      7.86 kcal/mol|
|  sn= 3 | S(rot)=       0.01214983 Eh      7.62 kcal/mol|
|  sn= 4 | S(rot)=       0.01187821 Eh      7.45 kcal/mol|
|  sn= 5 | S(rot)=       0.01166752 Eh      7.32 kcal/mol|
|  sn= 6 | S(rot)=       0.01149537 Eh      7.21 kcal/mol|
|  sn= 7 | S(rot)=       0.01134983 Eh      7.12 kcal/mol|
|  sn= 8 | S(rot)=       0.01122375 Eh      7.04 kcal/mol|
|  sn= 9 | S(rot)=       0.01111254 Eh      6.97 kcal/mol|
|  sn=10 | S(rot)=       0.01101306 Eh      6.91 kcal/mol|
|  sn=11 | S(rot)=       0.01092307 Eh      6.85 kcal/mol|
|  sn=12 | S(rot)=       0.01084092 Eh      6.80 kcal/mol|
 --------------------------------------------------------


-------------------
GIBBS FREE ENERGY
-------------------

The Gibbs free energy is G = H - T*S

Total enthalpy                    ...   -306.70058605 Eh 
Total entropy correction          ...     -0.04192146 Eh    -26.31 kcal/mol
-----------------------------------------------------------------------
Final Gibbs free energy         ...   -306.74250751 Eh

For completeness - the Gibbs free energy minus the electronic energy
G-E(el)                           ...      0.13987267 Eh     87.77 kcal/mol


Timings for individual modules:

Sum of individual times         ...      419.330 sec (=   6.989 min)
GTO integral calculation        ...        8.503 sec (=   0.142 min)   2.0 %
SCF iterations                  ...      231.777 sec (=   3.863 min)  55.3 %
SCF Gradient evaluation         ...       66.438 sec (=   1.107 min)  15.8 %
Geometry relaxation             ...        0.372 sec (=   0.006 min)   0.1 %
Analytical frequency calculation...      112.240 sec (=   1.871 min)  26.8 %
                             ****ORCA TERMINATED NORMALLY****
TOTAL RUN TIME: 0 days 0 hours 7 minutes 3 seconds 120 msec
