
                                 *****************
                                 * O   R   C   A *
                                 *****************

                                            #,                                       
                                            ###                                      
                                            ####                                     
                                            #####                                    
                                            ######                                   
                                           ########,                                 
                                     ,,################,,,,,                         
                               ,,#################################,,                 
                          ,,##########################################,,             
                       ,#########################################, ''#####,          
                    ,#############################################,,   '####,        
                  ,##################################################,,,,####,       
                ,###########''''           ''''###############################       
              ,#####''   ,,,,##########,,,,          '''####'''          '####       
            ,##' ,,,,###########################,,,                        '##       
           ' ,,###''''                  '''############,,,                           
         ,,##''                                '''############,,,,        ,,,,,,###''
      ,#''                                            '''#######################'''  
     '                                                          ''''####''''         
             ,#######,   #######,   ,#######,      ##                                
            ,#'     '#,  ##    ##  ,#'     '#,    #''#        ######   ,####,        
            ##       ##  ##   ,#'  ##            #'  '#       #        #'  '#        
            ##       ##  #######   ##           ,######,      #####,   #    #        
            '#,     ,#'  ##    ##  '#,     ,#' ,#      #,         ##   #,  ,#        
             '#######'   ##     ##  '#######'  #'      '#     #####' # '####'        



                  #######################################################
                  #                        -***-                        #
                  #          Department of theory and spectroscopy      #
                  #    Directorship and core code : Frank Neese         #
                  #        Max Planck Institute fuer Kohlenforschung    #
                  #                Kaiser Wilhelm Platz 1               #
                  #                 D-45470 Muelheim/Ruhr               #
                  #                      Germany                        #
                  #                                                     #
                  #                  All rights reserved                #
                  #                        -***-                        #
                  #######################################################


                         Program Version 5.0.3 -  RELEASE  -


 With contributions from (in alphabetic order):
   Daniel Aravena         : Magnetic Suceptibility
   Michael Atanasov       : Ab Initio Ligand Field Theory (pilot matlab implementation)
   Alexander A. Auer      : GIAO ZORA, VPT2 properties, NMR spectrum
   Ute Becker             : Parallelization
   Giovanni Bistoni       : ED, misc. LED, open-shell LED, HFLD
   Martin Brehm           : Molecular dynamics
   Dmytro Bykov           : SCF Hessian
   Vijay G. Chilkuri      : MRCI spin determinant printing, contributions to CSF-ICE
   Dipayan Datta          : RHF DLPNO-CCSD density
   Achintya Kumar Dutta   : EOM-CC, STEOM-CC
   Dmitry Ganyushin       : Spin-Orbit,Spin-Spin,Magnetic field MRCI
   Miquel Garcia          : C-PCM and meta-GGA Hessian, CC/C-PCM, Gaussian charge scheme
   Yang Guo               : DLPNO-NEVPT2, F12-NEVPT2, CIM, IAO-localization
   Andreas Hansen         : Spin unrestricted coupled pair/coupled cluster methods
   Benjamin Helmich-Paris : MC-RPA, TRAH-SCF, COSX integrals
   Lee Huntington         : MR-EOM, pCC
   Robert Izsak           : Overlap fitted RIJCOSX, COSX-SCS-MP3, EOM
   Marcus Kettner         : VPT2
   Christian Kollmar      : KDIIS, OOCD, Brueckner-CCSD(T), CCSD density, CASPT2, CASPT2-K
   Simone Kossmann        : Meta GGA functionals, TD-DFT gradient, OOMP2, MP2 Hessian
   Martin Krupicka        : Initial AUTO-CI
   Lucas Lang             : DCDCAS
   Marvin Lechner         : AUTO-CI (C++ implementation), FIC-MRCC
   Dagmar Lenk            : GEPOL surface, SMD
   Dimitrios Liakos       : Extrapolation schemes; Compound Job, initial MDCI parallelization
   Dimitrios Manganas     : Further ROCIS development; embedding schemes
   Dimitrios Pantazis     : SARC Basis sets
   Anastasios Papadopoulos: AUTO-CI, single reference methods and gradients
   Taras Petrenko         : DFT Hessian,TD-DFT gradient, ASA, ECA, R-Raman, ABS, FL, XAS/XES, NRVS
   Peter Pinski           : DLPNO-MP2, DLPNO-MP2 Gradient
   Christoph Reimann      : Effective Core Potentials
   Marius Retegan         : Local ZFS, SOC
   Christoph Riplinger    : Optimizer, TS searches, QM/MM, DLPNO-CCSD(T), (RO)-DLPNO pert. Triples
   Tobias Risthaus        : Range-separated hybrids, TD-DFT gradient, RPA, STAB
   Michael Roemelt        : Original ROCIS implementation
   Masaaki Saitow         : Open-shell DLPNO-CCSD energy and density
   Barbara Sandhoefer     : DKH picture change effects
   Avijit Sen             : IP-ROCIS
   Kantharuban Sivalingam : CASSCF convergence, NEVPT2, FIC-MRCI
   Bernardo de Souza      : ESD, SOC TD-DFT
   Georgi Stoychev        : AutoAux, RI-MP2 NMR, DLPNO-MP2 response
   Willem Van den Heuvel  : Paramagnetic NMR
   Boris Wezisla          : Elementary symmetry handling
   Frank Wennmohs         : Technical directorship


 We gratefully acknowledge several colleagues who have allowed us to
 interface, adapt or use parts of their codes:
   Stefan Grimme, W. Hujo, H. Kruse, P. Pracht,  : VdW corrections, initial TS optimization,
                  C. Bannwarth, S. Ehlert          DFT functionals, gCP, sTDA/sTD-DF
   Ed Valeev, F. Pavosevic, A. Kumar             : LibInt (2-el integral package), F12 methods
   Garnet Chan, S. Sharma, J. Yang, R. Olivares  : DMRG
   Ulf Ekstrom                                   : XCFun DFT Library
   Mihaly Kallay                                 : mrcc  (arbitrary order and MRCC methods)
   Jiri Pittner, Ondrej Demel                    : Mk-CCSD
   Frank Weinhold                                : gennbo (NPA and NBO analysis)
   Christopher J. Cramer and Donald G. Truhlar   : smd solvation model
   Lars Goerigk                                  : TD-DFT with DH, B97 family of functionals
   V. Asgeirsson, H. Jonsson                     : NEB implementation
   FAccTs GmbH                                   : IRC, NEB, NEB-TS, DLPNO-Multilevel, CI-OPT
                                                   MM, QMMM, 2- and 3-layer-ONIOM, Crystal-QMMM,
                                                   LR-CPCM, SF, NACMEs, symmetry and pop. for TD-DFT,
                                                   nearIR, NL-DFT gradient (VV10), updates on ESD,
                                                   ML-optimized integration grids
   S Lehtola, MJT Oliveira, MAL Marques          : LibXC Library
   Liviu Ungur et al                             : ANISO software


 Your calculation uses the libint2 library for the computation of 2-el integrals
 For citations please refer to: http://libint.valeyev.net

 Your ORCA version has been built with support for libXC version: 5.1.0
 For citations please refer to: https://tddft.org/programs/libxc/

 This ORCA versions uses:
   CBLAS   interface :  Fast vector & matrix operations
   LAPACKE interface :  Fast linear algebra routines
   SCALAPACK package :  Parallel linear algebra routines
   Shared memory     :  Shared parallel matrices
   BLAS/LAPACK       :  OpenBLAS 0.3.15  USE64BITINT DYNAMIC_ARCH NO_AFFINITY SkylakeX SINGLE_THREADED
        Core in use  :  SkylakeX
   Copyright (c) 2011-2014, The OpenBLAS Project




***************************************
The coordinates will be read from file: PhH.xyz
***************************************


Your calculation utilizes the atom-pairwise dispersion correction
based on tight binding partial charges (D4)
Cite in your paper:
E.Caldeweyher, C.Bannwarth, S.Grimme, J.Chem.Phys., (2017), 147, 034112.
E.Caldeweyher, S.Ehlert, A.Hansen, H.Neugebauer, S.Grimme, J.Chem.Phys., (2018), in progress.
   

XCFun DFT library Copyright 2009-2010 Ulf Ekstrom and contributors.
See http://admol.org/xcfun for more information.
This is free software; see the source code for copying conditions.
There is ABSOLUTELY NO WARRANTY; not even for MERCHANTABILITY or FITNESS FOR A PARTICULAR PURPOSE.
For details see the documentation.
Scientific users of this library should cite U. Ekstrom, L. Visscher, R. Bast, A. J. Thorvaldsen and K. Ruud;
J.Chem.Theor.Comp. 2010, DOI: 10.1021/ct100117s
XCFun Version 0.99 

================================================================================

----- Orbital basis set information -----
Your calculation utilizes the basis: def2-SVP
   F. Weigend and R. Ahlrichs, Phys. Chem. Chem. Phys. 7, 3297 (2005).

----- AuxJ basis set information -----
Your calculation utilizes the auxiliary basis: def2/J
   F. Weigend, Phys. Chem. Chem. Phys. 8, 1057 (2006).

================================================================================
                                        WARNINGS
                       Please study these warnings very carefully!
================================================================================


WARNING: Geometry Optimization
  ===> : Switching off AutoStart
         For restart on a previous wavefunction, please use MOREAD

INFO   : the flag for use of the SHARK integral package has been found!

================================================================================
                                       INPUT FILE
================================================================================
NAME = PhH_Gas.inp
|  1> # ORCAForces - ../2023_02/pKa_prediction/Yates_carbene_xyzs/Our_level/Uncharged/Gas/2/PhH_Gas.inp
|  2> # Basic Mode
|  3> #
|  4> ! Opt FREQ wB97X D4 Def2-SVP SlowConv TightSCF DEFGRID2 Def2/J RIJCOSX
|  5> 
|  6> %maxcore 4500
|  7> 
|  8> %PAL NPROCS 4 END
|  9> 
| 10> %geom 
| 11> Maxiter 150
| 12> END
| 13> 
| 14> * xyzfile 0 1 PhH.xyz
| 15> 
| 16>                          ****END OF INPUT****
================================================================================

                       *****************************
                       * Geometry Optimization Run *
                       *****************************

Geometry optimization settings:
Update method            Update   .... BFGS
Choice of coordinates    CoordSys .... Z-matrix Internals
Initial Hessian          InHess   .... Almoef's Model

Convergence Tolerances:
Energy Change            TolE     ....  5.0000e-06 Eh
Max. Gradient            TolMAXG  ....  3.0000e-04 Eh/bohr
RMS Gradient             TolRMSG  ....  1.0000e-04 Eh/bohr
Max. Displacement        TolMAXD  ....  4.0000e-03 bohr
RMS Displacement         TolRMSD  ....  2.0000e-03 bohr
Strict Convergence                ....  False
------------------------------------------------------------------------------
                        ORCA OPTIMIZATION COORDINATE SETUP
------------------------------------------------------------------------------

The optimization will be done in new redundant internal coordinates
Making redundant internal coordinates   ...  (new redundants) done
Evaluating the initial hessian          ...  (Almloef) done
Evaluating the coordinates              ...  done
Calculating the B-matrix                .... done
Calculating the G-matrix                .... done
Diagonalizing the G-matrix              .... done
Small eigenvalue found = 4.530e-03
Small eigenvalue found = 1.502e-02
The first mode is                       ....   71
The number of degrees of freedom        ....   81

    -----------------------------------------------------------------
                    Redundant Internal Coordinates


    -----------------------------------------------------------------
         Definition                    Initial Value    Approx d2E/dq
    -----------------------------------------------------------------
      1. B(C   1,C   0)                  1.3487         0.727282   
      2. B(H   2,C   0)                  1.0757         0.379548   
      3. B(H   3,C   1)                  1.0757         0.379548   
      4. B(C   5,C   4)                  1.3966         0.609858   
      5. B(C   6,C   4)                  1.3958         0.611618   
      6. B(C   7,C   5)                  1.3901         0.624486   
      7. B(H   8,C   5)                  1.0815         0.371577   
      8. B(C   9,C   6)                  1.3931         0.617693   
      9. B(H  10,C   6)                  1.0831         0.369387   
     10. B(C  11,C   9)                  1.3918         0.620650   
     11. B(C  11,C   7)                  1.3945         0.614463   
     12. B(H  12,C   7)                  1.0842         0.367912   
     13. B(H  13,C   9)                  1.0841         0.368014   
     14. B(H  14,C  11)                  1.0838         0.368417   
     15. B(C  16,C  15)                  1.3966         0.609858   
     16. B(C  17,C  15)                  1.3958         0.611618   
     17. B(C  18,C  16)                  1.3901         0.624486   
     18. B(H  19,C  16)                  1.0815         0.371577   
     19. B(C  20,C  17)                  1.3931         0.617693   
     20. B(H  21,C  17)                  1.0831         0.369387   
     21. B(C  22,C  20)                  1.3918         0.620650   
     22. B(C  22,C  18)                  1.3945         0.614463   
     23. B(H  23,C  18)                  1.0842         0.367912   
     24. B(H  24,C  20)                  1.0841         0.368014   
     25. B(H  25,C  22)                  1.0838         0.368417   
     26. B(N  27,C  26)                  1.3694         0.603544   
     27. B(N  27,C   4)                  1.4268         0.488747   
     28. B(N  27,C   0)                  1.3984         0.542555   
     29. B(N  28,C  26)                  1.3694         0.603544   
     30. B(N  28,C  15)                  1.4268         0.488747   
     31. B(N  28,C   1)                  1.3984         0.542555   
     32. A(C   1,C   0,N  27)          106.2941         0.433259   
     33. A(C   1,C   0,H   2)          130.1421         0.365893   
     34. A(H   2,C   0,N  27)          123.5450         0.345992   
     35. A(C   0,C   1,H   3)          130.1421         0.365893   
     36. A(H   3,C   1,N  28)          123.5450         0.345992   
     37. A(C   0,C   1,N  28)          106.2941         0.433259   
     38. A(C   6,C   4,N  27)          120.5285         0.412291   
     39. A(C   5,C   4,N  27)          119.5052         0.412080   
     40. A(C   5,C   4,C   6)          119.9662         0.431723   
     41. A(C   7,C   5,H   8)          121.7019         0.355224   
     42. A(C   4,C   5,H   8)          118.6102         0.353799   
     43. A(C   4,C   5,C   7)          119.6842         0.433342   
     44. A(C   4,C   6,H  10)          120.3245         0.353618   
     45. A(C   9,C   6,H  10)          119.7939         0.354210   
     46. A(C   4,C   6,C   9)          119.8617         0.432714   
     47. A(C  11,C   7,H  12)          120.0458         0.353656   
     48. A(C   5,C   7,H  12)          119.3083         0.354627   
     49. A(C   5,C   7,C  11)          120.6442         0.433928   
     50. A(C   6,C   9,H  13)          119.3885         0.353987   
     51. A(C   6,C   9,C  11)          120.4079         0.433857   
     52. A(C  11,C   9,H  13)          120.1995         0.354274   
     53. A(C   7,C  11,C   9)          119.4302         0.433448   
     54. A(C   9,C  11,H  14)          120.2561         0.354339   
     55. A(C   7,C  11,H  14)          120.3132         0.353738   
     56. A(C  17,C  15,N  28)          120.5285         0.412291   
     57. A(C  16,C  15,C  17)          119.9662         0.431723   
     58. A(C  16,C  15,N  28)          119.5052         0.412080   
     59. A(C  18,C  16,H  19)          121.7019         0.355224   
     60. A(C  15,C  16,H  19)          118.6102         0.353799   
     61. A(C  15,C  16,C  18)          119.6842         0.433342   
     62. A(C  20,C  17,H  21)          119.7939         0.354210   
     63. A(C  15,C  17,H  21)          120.3245         0.353618   
     64. A(C  15,C  17,C  20)          119.8617         0.432714   
     65. A(C  22,C  18,H  23)          120.0458         0.353656   
     66. A(C  16,C  18,H  23)          119.3083         0.354627   
     67. A(C  16,C  18,C  22)          120.6442         0.433928   
     68. A(C  17,C  20,H  24)          119.3885         0.353987   
     69. A(C  17,C  20,C  22)          120.4079         0.433857   
     70. A(C  22,C  20,H  24)          120.1995         0.354274   
     71. A(C  18,C  22,C  20)          119.4302         0.433448   
     72. A(C  20,C  22,H  25)          120.2561         0.354339   
     73. A(C  18,C  22,H  25)          120.3132         0.353738   
     74. A(N  27,C  26,N  28)          102.3249         0.424302   
     75. A(C   4,N  27,C  26)          122.8604         0.408668   
     76. A(C   0,N  27,C  26)          112.5434         0.416315   
     77. A(C   0,N  27,C   4)          124.5958         0.401052   
     78. A(C  15,N  28,C  26)          122.8604         0.408668   
     79. A(C   1,N  28,C  26)          112.5434         0.416315   
     80. A(C   1,N  28,C  15)          124.5958         0.401052   
     81. D(N  28,C   1,C   0,H   2)   -178.4195         0.037504   
     82. D(H   3,C   1,C   0,N  27)   -178.4195         0.037504   
     83. D(N  28,C   1,C   0,N  27)      0.0140         0.037504   
     84. D(H   3,C   1,C   0,H   2)      3.1470         0.037504   
     85. D(H   8,C   5,C   4,C   6)   -179.2152         0.025686   
     86. D(C   7,C   5,C   4,N  27)    179.9636         0.025686   
     87. D(C   7,C   5,C   4,C   6)      0.0937         0.025686   
     88. D(H   8,C   5,C   4,N  27)      0.6547         0.025686   
     89. D(C   9,C   6,C   4,C   5)     -0.6638         0.025843   
     90. D(H  10,C   6,C   4,C   5)    177.7096         0.025843   
     91. D(C   9,C   6,C   4,N  27)    179.4676         0.025843   
     92. D(H  10,C   6,C   4,N  27)     -2.1589         0.025843   
     93. D(C  11,C   7,C   5,H   8)    179.8309         0.027010   
     94. D(H  12,C   7,C   5,H   8)     -0.6359         0.027010   
     95. D(H  12,C   7,C   5,C   4)   -179.9228         0.027010   
     96. D(C  11,C   7,C   5,C   4)      0.5440         0.027010   
     97. D(H  13,C   9,C   6,H  10)      1.4891         0.026390   
     98. D(H  13,C   9,C   6,C   4)    179.8713         0.026390   
     99. D(C  11,C   9,C   6,C   4)      0.6039         0.026390   
    100. D(C  11,C   9,C   6,H  10)   -177.7782         0.026390   
    101. D(H  14,C  11,C   9,H  13)      0.5288         0.026659   
    102. D(H  14,C  11,C   9,C   6)    179.7901         0.026659   
    103. D(C   7,C  11,C   9,C   6)      0.0273         0.026659   
    104. D(H  14,C  11,C   7,H  12)      0.1029         0.026098   
    105. D(H  14,C  11,C   7,C   5)    179.6326         0.026098   
    106. D(C   7,C  11,C   9,H  13)   -179.2340         0.026659   
    107. D(C   9,C  11,C   7,C   5)     -0.6047         0.026098   
    108. D(C   9,C  11,C   7,H  12)    179.8655         0.026098   
    109. D(C  18,C  16,C  15,C  17)      0.0937         0.025686   
    110. D(C  18,C  16,C  15,N  28)    179.9636         0.025686   
    111. D(H  19,C  16,C  15,C  17)   -179.2152         0.025686   
    112. D(H  19,C  16,C  15,N  28)      0.6547         0.025686   
    113. D(H  21,C  17,C  15,N  28)     -2.1589         0.025843   
    114. D(H  21,C  17,C  15,C  16)    177.7096         0.025843   
    115. D(C  20,C  17,C  15,N  28)    179.4676         0.025843   
    116. D(C  20,C  17,C  15,C  16)     -0.6638         0.025843   
    117. D(H  23,C  18,C  16,H  19)     -0.6359         0.027010   
    118. D(H  23,C  18,C  16,C  15)   -179.9228         0.027010   
    119. D(C  22,C  18,C  16,H  19)    179.8309         0.027010   
    120. D(C  22,C  18,C  16,C  15)      0.5440         0.027010   
    121. D(H  24,C  20,C  17,H  21)      1.4891         0.026390   
    122. D(H  24,C  20,C  17,C  15)    179.8713         0.026390   
    123. D(C  22,C  20,C  17,H  21)   -177.7782         0.026390   
    124. D(C  22,C  20,C  17,C  15)      0.6039         0.026390   
    125. D(H  25,C  22,C  20,H  24)      0.5288         0.026659   
    126. D(H  25,C  22,C  20,C  17)    179.7901         0.026659   
    127. D(C  18,C  22,C  20,H  24)   -179.2340         0.026659   
    128. D(C  18,C  22,C  20,C  17)      0.0273         0.026659   
    129. D(H  25,C  22,C  18,H  23)      0.1029         0.026098   
    130. D(H  25,C  22,C  18,C  16)    179.6326         0.026098   
    131. D(C  20,C  22,C  18,H  23)    179.8655         0.026098   
    132. D(C  20,C  22,C  18,C  16)     -0.6047         0.026098   
    133. D(C   4,N  27,C  26,N  28)    179.7647         0.026625   
    134. D(C   0,N  27,C  26,N  28)      0.0046         0.026625   
    135. D(C  26,N  27,C   4,C   6)    152.4734         0.018860   
    136. D(C  26,N  27,C   4,C   5)    -27.3958         0.018860   
    137. D(C   0,N  27,C   4,C   6)    -27.7957         0.018860   
    138. D(C   0,N  27,C   4,C   5)    152.3351         0.018860   
    139. D(C  26,N  27,C   0,H   2)    178.5510         0.023429   
    140. D(C  26,N  27,C   0,C   1)     -0.0122         0.023429   
    141. D(C   4,N  27,C   0,H   2)     -1.2042         0.023429   
    142. D(C   4,N  27,C   0,C   1)   -179.7674         0.023429   
    143. D(C  15,N  28,C   1,C   0)   -179.7674         0.023429   
    144. D(C  15,N  28,C  26,N  27)    179.7647         0.026625   
    145. D(C  26,N  28,C  15,C  17)    152.4734         0.018860   
    146. D(C  26,N  28,C  15,C  16)    -27.3958         0.018860   
    147. D(C   1,N  28,C  15,C  17)    -27.7957         0.018860   
    148. D(C   1,N  28,C  15,C  16)    152.3351         0.018860   
    149. D(C  26,N  28,C   1,H   3)    178.5510         0.023429   
    150. D(C   1,N  28,C  26,N  27)      0.0046         0.026625   
    151. D(C  26,N  28,C   1,C   0)     -0.0122         0.023429   
    152. D(C  15,N  28,C   1,H   3)     -1.2042         0.023429   
    -----------------------------------------------------------------

Number of atoms                         .... 29
Number of degrees of freedom            .... 152

         *************************************************************
         *                GEOMETRY OPTIMIZATION CYCLE   1            *
         *************************************************************
---------------------------------
CARTESIAN COORDINATES (ANGSTROEM)
---------------------------------
  C      0.001267    0.674326   -1.856613
  C     -0.001267   -0.674326   -1.856613
  H     -0.020010    1.367843   -2.678606
  H      0.020010   -1.367843   -2.678606
  C      0.000000    2.421349   -0.066301
  C     -0.563412    2.735195    1.172458
  C      0.557637    3.429621   -0.854143
  C     -0.566853    4.053681    1.612979
  H     -0.977781    1.935099    1.770538
  C      0.538060    4.749243   -0.408074
  H      1.029036    3.187802   -1.798783
  C     -0.023293    5.067793    0.825032
  H     -1.004701    4.290275    2.576156
  H      0.975219    5.525953   -1.025203
  H     -0.034160    6.094765    1.171151
  C      0.000000   -2.421349   -0.066301
  C      0.563412   -2.735195    1.172458
  C     -0.557637   -3.429621   -0.854143
  C      0.566853   -4.053681    1.612979
  H      0.977781   -1.935099    1.770538
  C     -0.538060   -4.749243   -0.408074
  H     -1.029036   -3.187802   -1.798783
  C      0.023293   -5.067793    0.825032
  H      1.004701   -4.290275    2.576156
  H     -0.975219   -5.525953   -1.025203
  H      0.034160   -6.094765    1.171151
  C      0.000000    0.000000    0.344420
  N      0.002168    1.066677   -0.514363
  N     -0.002168   -1.066677   -0.514363

----------------------------
CARTESIAN COORDINATES (A.U.)
----------------------------
  NO LB      ZA    FRAG     MASS         X           Y           Z
   0 C     6.0000    0    12.011    0.002394    1.274291   -3.508490
   1 C     6.0000    0    12.011   -0.002394   -1.274291   -3.508490
   2 H     1.0000    0     1.008   -0.037813    2.584849   -5.061832
   3 H     1.0000    0     1.008    0.037813   -2.584849   -5.061832
   4 C     6.0000    0    12.011    0.000000    4.575686   -0.125291
   5 C     6.0000    0    12.011   -1.064694    5.168769    2.215625
   6 C     6.0000    0    12.011    1.053781    6.481044   -1.614096
   7 C     6.0000    0    12.011   -1.071197    7.660347    3.048089
   8 H     1.0000    0     1.008   -1.847738    3.656807    3.345832
   9 C     6.0000    0    12.011    1.016786    8.974769   -0.771148
  10 H     1.0000    0     1.008    1.944596    6.024073   -3.399207
  11 C     6.0000    0    12.011   -0.044017    9.576741    1.559085
  12 H     1.0000    0     1.008   -1.898610    8.107445    4.868229
  13 H     1.0000    0     1.008    1.842897   10.442538   -1.937353
  14 H     1.0000    0     1.008   -0.064553   11.517437    2.213155
  15 C     6.0000    0    12.011    0.000000   -4.575686   -0.125291
  16 C     6.0000    0    12.011    1.064694   -5.168769    2.215625
  17 C     6.0000    0    12.011   -1.053781   -6.481044   -1.614096
  18 C     6.0000    0    12.011    1.071197   -7.660347    3.048089
  19 H     1.0000    0     1.008    1.847738   -3.656807    3.345832
  20 C     6.0000    0    12.011   -1.016786   -8.974769   -0.771148
  21 H     1.0000    0     1.008   -1.944596   -6.024073   -3.399207
  22 C     6.0000    0    12.011    0.044017   -9.576741    1.559085
  23 H     1.0000    0     1.008    1.898610   -8.107445    4.868229
  24 H     1.0000    0     1.008   -1.842897  -10.442538   -1.937353
  25 H     1.0000    0     1.008    0.064553  -11.517437    2.213155
  26 C     6.0000    0    12.011    0.000000    0.000000    0.650859
  27 N     7.0000    0    14.007    0.004097    2.015727   -0.972005
  28 N     7.0000    0    14.007   -0.004097   -2.015727   -0.972005

--------------------------------
INTERNAL COORDINATES (ANGSTROEM)
--------------------------------
 C      0   0   0     0.000000000000     0.00000000     0.00000000
 C      1   0   0     1.348654380581     0.00000000     0.00000000
 H      1   2   0     1.075681659259   130.14205971     0.00000000
 H      2   1   3     1.075681659259   130.14205971     3.14702068
 C      1   2   3     2.501461178024   134.29868187   178.28089136
 C      5   1   2     1.396587359796   142.37055154   318.87200142
 C      5   1   2     1.395803161881    95.75780930   156.50132609
 C      6   5   1     1.390135217926   119.68415933   200.44818813
 H      6   5   1     1.081459645006   118.61023628    21.13922945
 C      7   5   1     1.393112714239   119.86174202   167.01195943
 H      7   5   1     1.083068869261   120.32446007   345.38537223
 C     10   7   5     1.391812379721   120.40790137     0.60391443
 H      8   6   5     1.084157518661   119.30834462   180.07716748
 H     10   7   5     1.084082385256   119.38851952   179.87125868
 H     12  10   7     1.083784084878   120.25610155   179.79013643
 C      2   1   3     2.501461178024   134.29868187   181.42791204
 C     16   2   1     1.396587359796   142.37055154   318.87200142
 C     16   2   1     1.395803161881    95.75780930   156.50132609
 C     17  16   2     1.390135217926   119.68415933   200.44818813
 H     17  16   2     1.081459645006   118.61023628    21.13922945
 C     18  16   2     1.393112714239   119.86174202   167.01195943
 H     18  16   2     1.083068869261   120.32446007   345.38537223
 C     21  18  16     1.391812379721   120.40790137     0.60391443
 H     19  17  16     1.084157518661   119.30834462   180.07716748
 H     21  18  16     1.084082385256   119.38851952   179.87125868
 H     23  21  18     1.083784084878   120.25610155   179.79013643
 C      1   2   3     2.302012907578    72.96658523   178.42648966
 N     27   1   2     1.369420594135    34.12905798   179.98778460
 N     27   1   2     1.369420594135    68.19588709     0.00000000

---------------------------
INTERNAL COORDINATES (A.U.)
---------------------------
 C      0   0   0     0.000000000000     0.00000000     0.00000000
 C      1   0   0     2.548587428611     0.00000000     0.00000000
 H      1   2   0     2.032743743282   130.14205971     0.00000000
 H      2   1   3     2.032743743282   130.14205971     3.14702068
 C      1   2   3     4.727076561102   134.29868187   178.28089136
 C      5   1   2     2.639167632110   142.37055154   318.87200142
 C      5   1   2     2.637685712816    95.75780930   156.50132609
 C      6   5   1     2.626974850999   119.68415933   200.44818813
 H      6   5   1     2.043662553949   118.61023628    21.13922945
 C      7   5   1     2.632601503595   119.86174202   167.01195943
 H      7   5   1     2.046703547079   120.32446007   345.38537223
 C     10   7   5     2.630144227474   120.40790137     0.60391443
 H      8   6   5     2.048760796301   119.30834462   180.07716748
 H     10   7   5     2.048618814742   119.38851952   179.87125868
 H     12  10   7     2.048055108721   120.25610155   179.79013643
 C      2   1   3     4.727076561102   134.29868187   181.42791204
 C     16   2   1     2.639167632110   142.37055154   318.87200142
 C     16   2   1     2.637685712816    95.75780930   156.50132609
 C     17  16   2     2.626974850999   119.68415933   200.44818813
 H     17  16   2     2.043662553949   118.61023628    21.13922945
 C     18  16   2     2.632601503595   119.86174202   167.01195943
 H     18  16   2     2.046703547079   120.32446007   345.38537223
 C     21  18  16     2.630144227474   120.40790137     0.60391443
 H     19  17  16     2.048760796301   119.30834462   180.07716748
 H     21  18  16     2.048618814742   119.38851952   179.87125868
 H     23  21  18     2.048055108721   120.25610155   179.79013643
 C      1   2   3     4.350173952073    72.96658523   178.42648966
 N     27   1   2     2.587829885068    34.12905798   179.98778460
 N     27   1   2     2.587829885068    68.19588709     0.00000000

---------------------
BASIS SET INFORMATION
---------------------
There are 3 groups of distinct atoms

 Group   1 Type C   : 7s4p1d contracted to 3s2p1d pattern {511/31/1}
 Group   2 Type H   : 4s1p contracted to 2s1p pattern {31/1}
 Group   3 Type N   : 7s4p1d contracted to 3s2p1d pattern {511/31/1}

Atom   0C    basis set group =>   1
Atom   1C    basis set group =>   1
Atom   2H    basis set group =>   2
Atom   3H    basis set group =>   2
Atom   4C    basis set group =>   1
Atom   5C    basis set group =>   1
Atom   6C    basis set group =>   1
Atom   7C    basis set group =>   1
Atom   8H    basis set group =>   2
Atom   9C    basis set group =>   1
Atom  10H    basis set group =>   2
Atom  11C    basis set group =>   1
Atom  12H    basis set group =>   2
Atom  13H    basis set group =>   2
Atom  14H    basis set group =>   2
Atom  15C    basis set group =>   1
Atom  16C    basis set group =>   1
Atom  17C    basis set group =>   1
Atom  18C    basis set group =>   1
Atom  19H    basis set group =>   2
Atom  20C    basis set group =>   1
Atom  21H    basis set group =>   2
Atom  22C    basis set group =>   1
Atom  23H    basis set group =>   2
Atom  24H    basis set group =>   2
Atom  25H    basis set group =>   2
Atom  26C    basis set group =>   1
Atom  27N    basis set group =>   3
Atom  28N    basis set group =>   3
---------------------------------
AUXILIARY/J BASIS SET INFORMATION
---------------------------------
There are 3 groups of distinct atoms

 Group   1 Type C   : 12s5p4d2f1g contracted to 6s4p3d1f1g pattern {711111/2111/211/2/1}
 Group   2 Type H   : 5s2p1d contracted to 3s1p1d pattern {311/2/1}
 Group   3 Type N   : 12s5p4d2f1g contracted to 6s4p3d1f1g pattern {711111/2111/211/2/1}

Atom   0C    basis set group =>   1
Atom   1C    basis set group =>   1
Atom   2H    basis set group =>   2
Atom   3H    basis set group =>   2
Atom   4C    basis set group =>   1
Atom   5C    basis set group =>   1
Atom   6C    basis set group =>   1
Atom   7C    basis set group =>   1
Atom   8H    basis set group =>   2
Atom   9C    basis set group =>   1
Atom  10H    basis set group =>   2
Atom  11C    basis set group =>   1
Atom  12H    basis set group =>   2
Atom  13H    basis set group =>   2
Atom  14H    basis set group =>   2
Atom  15C    basis set group =>   1
Atom  16C    basis set group =>   1
Atom  17C    basis set group =>   1
Atom  18C    basis set group =>   1
Atom  19H    basis set group =>   2
Atom  20C    basis set group =>   1
Atom  21H    basis set group =>   2
Atom  22C    basis set group =>   1
Atom  23H    basis set group =>   2
Atom  24H    basis set group =>   2
Atom  25H    basis set group =>   2
Atom  26C    basis set group =>   1
Atom  27N    basis set group =>   3
Atom  28N    basis set group =>   3


           ************************************************************
           *        Program running with 4 parallel MPI-processes     *
           *              working on a common directory               *
           ************************************************************
------------------------------------------------------------------------------
                           ORCA GTO INTEGRAL CALCULATION
                           -- RI-GTO INTEGRALS CHOSEN --
------------------------------------------------------------------------------
------------------------------------------------------------------------------
                   ___                                                        
                  /   \      - P O W E R E D   B Y -                         
                 /     \                                                     
                 |  |  |   _    _      __       _____    __    __             
                 |  |  |  | |  | |    /  \     |  _  \  |  |  /  |          
                  \  \/   | |  | |   /    \    | | | |  |  | /  /          
                 / \  \   | |__| |  /  /\  \   | |_| |  |  |/  /          
                |  |  |   |  __  | /  /__\  \  |    /   |      \           
                |  |  |   | |  | | |   __   |  |    \   |  |\   \          
                \     /   | |  | | |  |  |  |  | |\  \  |  | \   \       
                 \___/    |_|  |_| |__|  |__|  |_| \__\ |__|  \__/        
                                                                              
                      - O R C A' S   B I G   F R I E N D -                    
                                      &                                       
                       - I N T E G R A L  F E E D E R -                       
                                                                              
 v1 FN, 2020, v2 2021                                                         
------------------------------------------------------------------------------


Reading SHARK input file PhH_Gas.SHARKINP.tmp ... ok
----------------------
SHARK INTEGRAL PACKAGE
----------------------

Number of atoms                             ...     29
Number of basis functions                   ...    298
Number of shells                            ...    138
Maximum angular momentum                    ...      2
Integral batch strategy                     ... SHARK/LIBINT Hybrid
RI-J (if used) integral strategy            ... SPLIT-RIJ (Revised 2003 algorithm where possible)
Printlevel                                  ...      1
Contraction scheme used                     ... SEGMENTED contraction
Coulomb Range Separation                    ... NOT USED
Exchange Range Separation                   ... Long Range
   Mu parameter                             ...  0.300000
   Scaling (regular/separated)              ...  0.157706  0.842294
Finite Nucleus Model                        ... NOT USED
Auxiliary Coulomb fitting basis             ... AVAILABLE
   # of basis functions in Aux-J            ...    965
   # of shells in Aux-J                     ...    315
   Maximum angular momentum in Aux-J        ...      4
Auxiliary J/K fitting basis                 ... NOT available
Auxiliary Correlation fitting basis         ... NOT available
Auxiliary 'external' fitting basis          ... NOT available
Integral threshold                          ...     2.500000e-11
Primitive cut-off                           ...     2.500000e-12
Primitive pair pre-selection threshold      ...     2.500000e-12

Calculating pre-screening integrals         ... done (  0.0 sec) Dimension = 138
Organizing shell pair data                  ... done (  0.0 sec)
Shell pair information
Total number of shell pairs                 ...      9591
Shell pairs after pre-screening             ...      7188
Total number of primitive shell pairs       ...     35237
Primitive shell pairs kept                  ...     17523
          la=0 lb=0:   2163 shell pairs
          la=1 lb=0:   2634 shell pairs
          la=1 lb=1:    844 shell pairs
          la=2 lb=0:    891 shell pairs
          la=2 lb=1:    556 shell pairs
          la=2 lb=2:    100 shell pairs

Calculating one electron integrals          ... done (  0.0 sec)
Calculating RI/J V-Matrix + Cholesky decomp.... done (  0.1 sec)
Calculating Nuclear repulsion               ... done (  0.0 sec) ENN=   1037.910227938159 Eh

SHARK setup successfully completed in   0.4 seconds

Maximum memory used throughout the entire GTOINT-calculation: 15.6 MB


           ************************************************************
           *        Program running with 4 parallel MPI-processes     *
           *              working on a common directory               *
           ************************************************************
-------------------------------------------------------------------------------
                                 ORCA SCF
-------------------------------------------------------------------------------

------------
SCF SETTINGS
------------
Hamiltonian:
 Density Functional     Method          .... DFT(GTOs)
 Exchange Functional    Exchange        .... WB97X
 Correlation Functional Correlation     .... WB97X
 Gradients option       PostSCFGGA      .... off
 Hybrid DFT is turned on
   Fraction HF Exchange ScalHFX         ....  0.157706
   Scaling of DF-GGA-X  ScalDFX         ....  0.000000
   Scaling of DF-GGA-C  ScalDFC         ....  1.000000
   Scaling of DF-LDA-C  ScalLDAC        ....  1.000000
   Perturbative correction              ....  0.000000
   Density functional embedding theory  .... OFF
 Long-range corrected/Screened/Range-Separated Hybrid DFT is turned on
   Amount of maximum screened exact exchange              ....  0.842294
   Range separation parameter mu (erf(mu*r12)/r12)        ....  0.300000
 RI-approximation to the Coulomb term is turned on
   Number of AuxJ basis functions       .... 965
   RIJ-COSX (HFX calculated with COS-X)).... on


General Settings:
 Integral files         IntName         .... PhH_Gas
 Hartree-Fock type      HFTyp           .... RHF
 Total Charge           Charge          ....    0
 Multiplicity           Mult            ....    1
 Number of Electrons    NEL             ....  116
 Basis Dimension        Dim             ....  298
 Nuclear Repulsion      ENuc            ....   1037.9102279382 Eh

Convergence Acceleration:
 DIIS                   CNVDIIS         .... on
   Start iteration      DIISMaxIt       ....     0
   Startup error        DIISStart       ....  0.200000
   # of expansion vecs  DIISMaxEq       ....     5
   Bias factor          DIISBfac        ....   1.050
   Max. coefficient     DIISMaxC        ....  10.000
 Trust-Rad. Augm. Hess. CNVTRAH         .... auto
   Auto Start mean grad. ratio tolernc. ....  1.125000
   Auto Start start iteration           ....    20
   Auto Start num. interpolation iter.  ....    10
   Max. Number of Micro iterations      ....    16
   Max. Number of Macro iterations      .... Maxiter - #DIIS iter
   Number of Davidson start vectors     ....     2
   Converg. threshold I  (grad. norm)   ....   1.000e-05
   Converg. threshold II (energy diff.) ....   1.000e-08
   Grad. Scal. Fac. for Micro threshold ....   0.100
   Minimum threshold for Micro iter.    ....   0.010
   NR start threshold (gradient norm)   ....   0.001
   Initial trust radius                 ....   0.400
   Minimum AH scaling param. (alpha)    ....   1.000
   Maximum AH scaling param. (alpha)    .... 1000.000
   Orbital update algorithm             .... Taylor
   White noise on init. David. guess    .... on
   Maximum white noise                  ....   0.010
   Quad. conv. algorithm                .... NR
 SOSCF                  CNVSOSCF        .... on
   Start iteration      SOSCFMaxIt      ....   150
   Startup grad/error   SOSCFStart      ....  0.001000
 Level Shifting         CNVShift        .... on
   Level shift para.    LevelShift      ....    0.2500
   Turn off err/grad.   ShiftErr        ....    0.0000
 Zerner damping         CNVZerner       .... off
 Static damping         CNVDamp         .... on
   Fraction old density DampFac         ....    0.8500
   Max. Damping (<1)    DampMax         ....    0.9800
   Min. Damping (>=0)   DampMin         ....    0.0000
   Turn off err/grad.   DampErr         ....    0.0300
 Fernandez-Rico         CNVRico         .... off

SCF Procedure:
 Maximum # iterations   MaxIter         ....   125
 SCF integral mode      SCFMode         .... Direct
   Integral package                     .... SHARK and LIBINT hybrid scheme
 Reset frequency        DirectResetFreq ....    20
 Integral Threshold     Thresh          ....  2.500e-11 Eh
 Primitive CutOff       TCut            ....  2.500e-12 Eh

Convergence Tolerance:
 Convergence Check Mode ConvCheckMode   .... Total+1el-Energy
 Convergence forced     ConvForced      .... 0
 Energy Change          TolE            ....  1.000e-08 Eh
 1-El. energy change                    ....  1.000e-05 Eh
 Orbital Gradient       TolG            ....  1.000e-05
 Orbital Rotation angle TolX            ....  1.000e-05
 DIIS Error             TolErr          ....  5.000e-07


Diagonalization of the overlap matrix:
Smallest eigenvalue                        ... 2.762e-04
Time for diagonalization                   ...    0.014 sec
Threshold for overlap eigenvalues          ... 1.000e-08
Number of eigenvalues below threshold      ... 0
Time for construction of square roots      ...    0.008 sec
Total time needed                          ...    0.022 sec

Time for model grid setup =    0.394 sec

------------------------------
INITIAL GUESS: MODEL POTENTIAL
------------------------------
Loading Hartree-Fock densities                     ... done
Calculating cut-offs                               ... done
Initializing the effective Hamiltonian             ... done
Setting up the integral package (SHARK)            ... done
Starting the Coulomb interaction                   ... done (   0.1 sec)
Reading the grid                                   ... done
Mapping shells                                     ... done
Starting the XC term evaluation                    ... done (   0.1 sec)
  promolecular density results
     # of electrons  =    115.993887083
     EX              =    -93.356568653
     EC              =     -3.877423282
     EX+EC           =    -97.233991935
Transforming the Hamiltonian                       ... done (   0.0 sec)
Diagonalizing the Hamiltonian                      ... done (   0.0 sec)
Back transforming the eigenvectors                 ... done (   0.0 sec)
Now organizing SCF variables                       ... done
                      ------------------
                      INITIAL GUESS DONE (   0.7 sec)
                      ------------------
-------------------
DFT GRID GENERATION
-------------------

General Integration Accuracy     IntAcc      ... 4.388
Radial Grid Type                 RadialGrid  ... OptM3 with GC (2021)
Angular Grid (max. ang.)         AngularGrid ... 4 (Lebedev-302)
Angular grid pruning method      GridPruning ... 4 (adaptive)
Weight generation scheme         WeightScheme... Becke
Basis function cutoff            BFCut       ... 1.0000e-11
Integration weight cutoff        WCut        ... 1.0000e-14
Angular grids for H and He will be reduced by one unit
Partially contracted basis set               ... off
Rotationally invariant grid construction     ... off

Total number of grid points                  ...   140403
Total number of batches                      ...     2210
Average number of points per batch           ...       63
Average number of grid points per atom       ...     4841
Time for grid setup =    0.876 sec

--------------------
COSX GRID GENERATION
--------------------

GRIDX 1
-------
General Integration Accuracy     IntAcc      ... 3.816
Radial Grid Type                 RadialGrid  ... OptM3 with GC (2021)
Angular Grid (max. ang.)         AngularGrid ... 1 (Lebedev-50)
Angular grid pruning method      GridPruning ... 4 (adaptive)
Weight generation scheme         WeightScheme... Becke
Basis function cutoff            BFCut       ... 1.0000e-11
Integration weight cutoff        WCut        ... 1.0000e-14
Angular grids for H and He will be reduced by one unit
Partially contracted basis set               ... on
Rotationally invariant grid construction     ... off

Total number of grid points                  ...    17901
Total number of batches                      ...      290
Average number of points per batch           ...       61
Average number of grid points per atom       ...      617
UseSFitting                                  ... on

GRIDX 2
-------
General Integration Accuracy     IntAcc      ... 4.020
Radial Grid Type                 RadialGrid  ... OptM3 with GC (2021)
Angular Grid (max. ang.)         AngularGrid ... 2 (Lebedev-110)
Angular grid pruning method      GridPruning ... 4 (adaptive)
Weight generation scheme         WeightScheme... Becke
Basis function cutoff            BFCut       ... 1.0000e-11
Integration weight cutoff        WCut        ... 1.0000e-14
Angular grids for H and He will be reduced by one unit
Partially contracted basis set               ... on
Rotationally invariant grid construction     ... off

Total number of grid points                  ...    39193
Total number of batches                      ...      626
Average number of points per batch           ...       62
Average number of grid points per atom       ...     1351
UseSFitting                                  ... on

GRIDX 3
-------
General Integration Accuracy     IntAcc      ... 4.338
Radial Grid Type                 RadialGrid  ... OptM3 with GC (2021)
Angular Grid (max. ang.)         AngularGrid ... 3 (Lebedev-194)
Angular grid pruning method      GridPruning ... 4 (adaptive)
Weight generation scheme         WeightScheme... Becke
Basis function cutoff            BFCut       ... 1.0000e-11
Integration weight cutoff        WCut        ... 1.0000e-14
Angular grids for H and He will be reduced by one unit
Partially contracted basis set               ... on
Rotationally invariant grid construction     ... off

Total number of grid points                  ...    86029
Total number of batches                      ...     1362
Average number of points per batch           ...       63
Average number of grid points per atom       ...     2967
UseSFitting                                  ... on

Time for X-Grid setup             =    0.922 sec

--------------
SCF ITERATIONS
--------------
ITER       Energy         Delta-E        Max-DP      RMS-DP      [F,P]     Damp
               ***  Starting incremental Fock matrix formation  ***
  0   -687.3371095990   0.000000000000 0.03288659  0.00079633  0.1145063 0.8500
  1   -687.3900728124  -0.052963213419 0.03606202  0.00076321  0.0913686 0.8500
                               ***Turning on DIIS***
  2   -687.4311699956  -0.041097183123 0.03224608  0.00063774  0.0689274 0.8500
  3   -687.4622266919  -0.031056696291 0.02691329  0.00049080  0.0510940 0.8500
  4   -687.4864841379  -0.024257446074 0.02243556  0.00039004  0.0406744 0.8500
  5   -687.5057663028  -0.019282164845 0.01892537  0.00032240  0.0339052 0.8500
  6   -687.5215095581  -0.015743255298 0.10735180  0.00181255  0.0285882 0.0000
  7   -687.6045735195  -0.083063961421 0.00180754  0.00005597  0.0013056 0.0000
                      *** Initiating the SOSCF procedure ***
                           *** Shutting down DIIS ***
                      *** Re-Reading the Fockian *** 
                      *** Removing any level shift *** 
ITER      Energy       Delta-E        Grad      Rot      Max-DP    RMS-DP
  8   -687.60463434  -0.0000608231  0.000864  0.000864  0.001692  0.000027
               *** Restarting incremental Fock matrix formation ***
  9   -687.60455243   0.0000819085  0.000575  0.001244  0.000803  0.000023
 10   -687.60455791  -0.0000054805  0.000174  0.000909  0.000585  0.000018
 11   -687.60455931  -0.0000013936  0.000086  0.000164  0.000283  0.000006
 12   -687.60455959  -0.0000002825  0.000015  0.000041  0.000121  0.000001
 13   -687.60455961  -0.0000000168  0.000007  0.000018  0.000031  0.000000
                  ***Gradient check signals convergence***
              ***Rediagonalizing the Fockian in SOSCF/NRSCF***

               *****************************************************
               *                     SUCCESS                       *
               *           SCF CONVERGED AFTER  14 CYCLES          *
               *****************************************************

Old exchange energy                            =    -30.251015936 Eh
New exchange energy                            =    -30.251049225 Eh
Exchange energy change after final integration =     -0.000033289 Eh
Total energy after final integration           =   -687.604592908 Eh
Final COS-X integration done in                =    15.960 sec

----------------
TOTAL SCF ENERGY
----------------

Total Energy       :         -687.60459291 Eh          -18710.67221 eV

Components:
Nuclear Repulsion  :         1037.91022794 Eh           28242.97315 eV
Electronic Energy  :        -1725.51482085 Eh          -46953.64535 eV
One Electron Energy:        -2987.12007877 Eh          -81283.66973 eV
Two Electron Energy:         1261.60525793 Eh           34330.02437 eV
Max COSX asymmetry :            0.00000249 Eh               0.00007 eV

Virial components:
Potential Energy   :        -1367.57665077 Eh          -37213.65257 eV
Kinetic Energy     :          679.97205786 Eh           18502.98037 eV
Virial Ratio       :            2.01122478


DFT components:
N(Alpha)           :       58.000064266902 electrons
N(Beta)            :       58.000064266902 electrons
N(Total)           :      116.000128533804 electrons
E(XC)              :      -69.128074964071 Eh       
DFET-embed. en.    :        0.000000000000 Eh       

---------------
SCF CONVERGENCE
---------------

  Last Energy change         ...   -1.1575e-08  Tolerance :   1.0000e-08
  Last MAX-Density change    ...    3.5527e-15  Tolerance :   1.0000e-07
  Last RMS-Density change    ...    3.7613e-17  Tolerance :   5.0000e-09
  Last Orbital Gradient      ...    1.6956e-06  Tolerance :   1.0000e-05
  Last Orbital Rotation      ...    6.6147e-06  Tolerance :   1.0000e-05

             **** THE GBW FILE WAS UPDATED (PhH_Gas.gbw) ****
             **** DENSITY PhH_Gas.scfp WAS UPDATED ****
             **** ENERGY FILE WAS UPDATED (PhH_Gas.en.tmp) ****
             **** THE GBW FILE WAS UPDATED (PhH_Gas.gbw) ****
             **** DENSITY PhH_Gas.scfp WAS UPDATED ****
----------------
ORBITAL ENERGIES
----------------

  NO   OCC          E(Eh)            E(eV) 
   0   2.0000     -14.465114      -393.6158 
   1   2.0000     -14.465113      -393.6157 
   2   2.0000     -10.321348      -280.8581 
   3   2.0000     -10.321294      -280.8567 
   4   2.0000     -10.310106      -280.5523 
   5   2.0000     -10.309488      -280.5354 
   6   2.0000     -10.286734      -279.9163 
   7   2.0000     -10.282078      -279.7896 
   8   2.0000     -10.282075      -279.7895 
   9   2.0000     -10.281224      -279.7663 
  10   2.0000     -10.281222      -279.7663 
  11   2.0000     -10.278506      -279.6924 
  12   2.0000     -10.278503      -279.6923 
  13   2.0000     -10.276083      -279.6264 
  14   2.0000     -10.276083      -279.6264 
  15   2.0000     -10.273619      -279.5594 
  16   2.0000     -10.273617      -279.5593 
  17   2.0000      -1.159022       -31.5386 
  18   2.0000      -1.060683       -28.8626 
  19   2.0000      -0.992980       -27.0204 
  20   2.0000      -0.974807       -26.5258 
  21   2.0000      -0.909636       -24.7525 
  22   2.0000      -0.881462       -23.9858 
  23   2.0000      -0.876524       -23.8514 
  24   2.0000      -0.863532       -23.4979 
  25   2.0000      -0.857823       -23.3426 
  26   2.0000      -0.778535       -21.1850 
  27   2.0000      -0.760222       -20.6867 
  28   2.0000      -0.730892       -19.8886 
  29   2.0000      -0.723419       -19.6852 
  30   2.0000      -0.694688       -18.9034 
  31   2.0000      -0.684692       -18.6314 
  32   2.0000      -0.664977       -18.0949 
  33   2.0000      -0.639954       -17.4140 
  34   2.0000      -0.610225       -16.6051 
  35   2.0000      -0.591814       -16.1041 
  36   2.0000      -0.582824       -15.8595 
  37   2.0000      -0.576459       -15.6862 
  38   2.0000      -0.567775       -15.4499 
  39   2.0000      -0.563618       -15.3368 
  40   2.0000      -0.546665       -14.8755 
  41   2.0000      -0.538393       -14.6504 
  42   2.0000      -0.535261       -14.5652 
  43   2.0000      -0.532864       -14.5000 
  44   2.0000      -0.530334       -14.4311 
  45   2.0000      -0.505855       -13.7650 
  46   2.0000      -0.485368       -13.2075 
  47   2.0000      -0.470412       -12.8006 
  48   2.0000      -0.465132       -12.6569 
  49   2.0000      -0.455818       -12.4034 
  50   2.0000      -0.450171       -12.2498 
  51   2.0000      -0.432173       -11.7600 
  52   2.0000      -0.367712       -10.0060 
  53   2.0000      -0.354130        -9.6364 
  54   2.0000      -0.353587        -9.6216 
  55   2.0000      -0.324405        -8.8275 
  56   2.0000      -0.321885        -8.7589 
  57   2.0000      -0.318313        -8.6617 
  58   0.0000       0.054456         1.4818 
  59   0.0000       0.062366         1.6971 
  60   0.0000       0.068880         1.8743 
  61   0.0000       0.072297         1.9673 
  62   0.0000       0.122743         3.3400 
  63   0.0000       0.140114         3.8127 
  64   0.0000       0.154432         4.2023 
  65   0.0000       0.154605         4.2070 
  66   0.0000       0.171593         4.6693 
  67   0.0000       0.182846         4.9755 
  68   0.0000       0.201032         5.4704 
  69   0.0000       0.208141         5.6638 
  70   0.0000       0.217805         5.9268 
  71   0.0000       0.226564         6.1651 
  72   0.0000       0.240018         6.5312 
  73   0.0000       0.252526         6.8716 
  74   0.0000       0.252920         6.8823 
  75   0.0000       0.255780         6.9601 
  76   0.0000       0.266182         7.2432 
  77   0.0000       0.267956         7.2914 
  78   0.0000       0.270582         7.3629 
  79   0.0000       0.297279         8.0894 
  80   0.0000       0.314872         8.5681 
  81   0.0000       0.333234         9.0678 
  82   0.0000       0.344888         9.3849 
  83   0.0000       0.369602        10.0574 
  84   0.0000       0.378249        10.2927 
  85   0.0000       0.378692        10.3047 
  86   0.0000       0.385030        10.4772 
  87   0.0000       0.396653        10.7935 
  88   0.0000       0.398492        10.8435 
  89   0.0000       0.413564        11.2536 
  90   0.0000       0.427205        11.6249 
  91   0.0000       0.445265        12.1163 
  92   0.0000       0.446483        12.1494 
  93   0.0000       0.455265        12.3884 
  94   0.0000       0.472242        12.8504 
  95   0.0000       0.473716        12.8905 
  96   0.0000       0.496942        13.5225 
  97   0.0000       0.500306        13.6140 
  98   0.0000       0.504862        13.7380 
  99   0.0000       0.507596        13.8124 
 100   0.0000       0.509019        13.8511 
 101   0.0000       0.524888        14.2829 
 102   0.0000       0.544319        14.8117 
 103   0.0000       0.550369        14.9763 
 104   0.0000       0.559984        15.2379 
 105   0.0000       0.574228        15.6255 
 106   0.0000       0.585481        15.9318 
 107   0.0000       0.586676        15.9643 
 108   0.0000       0.589024        16.0282 
 109   0.0000       0.596707        16.2372 
 110   0.0000       0.600724        16.3465 
 111   0.0000       0.602186        16.3863 
 112   0.0000       0.608413        16.5558 
 113   0.0000       0.633866        17.2484 
 114   0.0000       0.634026        17.2527 
 115   0.0000       0.644401        17.5350 
 116   0.0000       0.647959        17.6319 
 117   0.0000       0.655233        17.8298 
 118   0.0000       0.658966        17.9314 
 119   0.0000       0.680222        18.5098 
 120   0.0000       0.684102        18.6153 
 121   0.0000       0.686955        18.6930 
 122   0.0000       0.697914        18.9912 
 123   0.0000       0.720585        19.6081 
 124   0.0000       0.735431        20.0121 
 125   0.0000       0.745860        20.2959 
 126   0.0000       0.752901        20.4875 
 127   0.0000       0.756843        20.5948 
 128   0.0000       0.757770        20.6200 
 129   0.0000       0.761514        20.7219 
 130   0.0000       0.766995        20.8710 
 131   0.0000       0.769207        20.9312 
 132   0.0000       0.781849        21.2752 
 133   0.0000       0.784781        21.3550 
 134   0.0000       0.784880        21.3577 
 135   0.0000       0.802508        21.8374 
 136   0.0000       0.810816        22.0634 
 137   0.0000       0.821685        22.3592 
 138   0.0000       0.821761        22.3613 
 139   0.0000       0.833194        22.6724 
 140   0.0000       0.836875        22.7725 
 141   0.0000       0.841925        22.9099 
 142   0.0000       0.844685        22.9850 
 143   0.0000       0.855536        23.2803 
 144   0.0000       0.856008        23.2932 
 145   0.0000       0.878523        23.9058 
 146   0.0000       0.883246        24.0343 
 147   0.0000       0.903690        24.5907 
 148   0.0000       0.912016        24.8172 
 149   0.0000       0.928003        25.2522 
 150   0.0000       0.936360        25.4796 
 151   0.0000       0.950150        25.8549 
 152   0.0000       0.960163        26.1274 
 153   0.0000       0.972163        26.4539 
 154   0.0000       1.011769        27.5316 
 155   0.0000       1.036468        28.2037 
 156   0.0000       1.042620        28.3711 
 157   0.0000       1.042717        28.3738 
 158   0.0000       1.066784        29.0287 
 159   0.0000       1.088697        29.6249 
 160   0.0000       1.113064        30.2880 
 161   0.0000       1.127923        30.6923 
 162   0.0000       1.174170        31.9508 
 163   0.0000       1.185199        32.2509 
 164   0.0000       1.186735        32.2927 
 165   0.0000       1.271151        34.5898 
 166   0.0000       1.276388        34.7323 
 167   0.0000       1.291241        35.1364 
 168   0.0000       1.307454        35.5776 
 169   0.0000       1.308383        35.6029 
 170   0.0000       1.319154        35.8960 
 171   0.0000       1.337224        36.3877 
 172   0.0000       1.341430        36.5022 
 173   0.0000       1.343335        36.5540 
 174   0.0000       1.359526        36.9946 
 175   0.0000       1.362534        37.0764 
 176   0.0000       1.367005        37.1981 
 177   0.0000       1.371316        37.3154 
 178   0.0000       1.383649        37.6510 
 179   0.0000       1.387074        37.7442 
 180   0.0000       1.405265        38.2392 
 181   0.0000       1.409662        38.3589 
 182   0.0000       1.413151        38.4538 
 183   0.0000       1.414788        38.4983 
 184   0.0000       1.428658        38.8758 
 185   0.0000       1.516192        41.2577 
 186   0.0000       1.575165        42.8624 
 187   0.0000       1.590510        43.2800 
 188   0.0000       1.599437        43.5229 
 189   0.0000       1.638968        44.5986 
 190   0.0000       1.677849        45.6566 
 191   0.0000       1.687554        45.9207 
 192   0.0000       1.729182        47.0534 
 193   0.0000       1.769855        48.1602 
 194   0.0000       1.772914        48.2434 
 195   0.0000       1.777268        48.3619 
 196   0.0000       1.786287        48.6074 
 197   0.0000       1.794450        48.8295 
 198   0.0000       1.807471        49.1838 
 199   0.0000       1.821111        49.5550 
 200   0.0000       1.839343        50.0511 
 201   0.0000       1.852547        50.4104 
 202   0.0000       1.857290        50.5394 
 203   0.0000       1.858720        50.5783 
 204   0.0000       1.866093        50.7790 
 205   0.0000       1.866952        50.8024 
 206   0.0000       1.873589        50.9829 
 207   0.0000       1.878306        51.1113 
 208   0.0000       1.888060        51.3767 
 209   0.0000       1.888939        51.4007 
 210   0.0000       1.893378        51.5214 
 211   0.0000       1.894442        51.5504 
 212   0.0000       1.902763        51.7768 
 213   0.0000       1.905975        51.8642 
 214   0.0000       1.932654        52.5902 
 215   0.0000       1.941534        52.8318 
 216   0.0000       1.953683        53.1624 
 217   0.0000       1.999412        54.4068 
 218   0.0000       1.999808        54.4176 
 219   0.0000       2.007314        54.6218 
 220   0.0000       2.042806        55.5876 
 221   0.0000       2.053326        55.8738 
 222   0.0000       2.059724        56.0479 
 223   0.0000       2.074334        56.4455 
 224   0.0000       2.094748        57.0010 
 225   0.0000       2.095123        57.0112 
 226   0.0000       2.098693        57.1083 
 227   0.0000       2.102509        57.2122 
 228   0.0000       2.110861        57.4395 
 229   0.0000       2.121716        57.7348 
 230   0.0000       2.130752        57.9807 
 231   0.0000       2.131007        57.9877 
 232   0.0000       2.187669        59.5295 
 233   0.0000       2.200497        59.8786 
 234   0.0000       2.217815        60.3498 
 235   0.0000       2.220945        60.4350 
 236   0.0000       2.233739        60.7831 
 237   0.0000       2.245884        61.1136 
 238   0.0000       2.248814        61.1933 
 239   0.0000       2.263265        61.5866 
 240   0.0000       2.266223        61.6671 
 241   0.0000       2.300464        62.5988 
 242   0.0000       2.310674        62.8766 
 243   0.0000       2.324936        63.2647 
 244   0.0000       2.353259        64.0354 
 245   0.0000       2.355446        64.0949 
 246   0.0000       2.387800        64.9754 
 247   0.0000       2.393875        65.1407 
 248   0.0000       2.405374        65.4536 
 249   0.0000       2.412305        65.6422 
 250   0.0000       2.423959        65.9593 
 251   0.0000       2.423969        65.9595 
 252   0.0000       2.451496        66.7086 
 253   0.0000       2.454436        66.7886 
 254   0.0000       2.460813        66.9621 
 255   0.0000       2.461018        66.9677 
 256   0.0000       2.489728        67.7489 
 257   0.0000       2.498186        67.9791 
 258   0.0000       2.503428        68.1217 
 259   0.0000       2.587915        70.4207 
 260   0.0000       2.624123        71.4060 
 261   0.0000       2.629160        71.5431 
 262   0.0000       2.699304        73.4518 
 263   0.0000       2.707712        73.6806 
 264   0.0000       2.710610        73.7594 
 265   0.0000       2.720342        74.0243 
 266   0.0000       2.739482        74.5451 
 267   0.0000       2.753916        74.9379 
 268   0.0000       2.772351        75.4395 
 269   0.0000       2.781200        75.6803 
 270   0.0000       2.828514        76.9678 
 271   0.0000       2.843809        77.3840 
 272   0.0000       2.847608        77.4874 
 273   0.0000       2.854513        77.6752 
 274   0.0000       2.856624        77.7327 
 275   0.0000       2.858811        77.7922 
 276   0.0000       2.865909        77.9853 
 277   0.0000       2.905890        79.0733 
 278   0.0000       2.931017        79.7570 
 279   0.0000       2.943410        80.0943 
 280   0.0000       2.971677        80.8634 
 281   0.0000       2.992721        81.4361 
 282   0.0000       3.001361        81.6712 
 283   0.0000       3.005567        81.7856 
 284   0.0000       3.006148        81.8015 
 285   0.0000       3.079959        83.8100 
 286   0.0000       3.118606        84.8616 
 287   0.0000       3.184351        86.6506 
 288   0.0000       3.191427        86.8432 
 289   0.0000       3.228663        87.8564 
 290   0.0000       3.275566        89.1327 
 291   0.0000       3.304502        89.9201 
 292   0.0000       3.379667        91.9654 
 293   0.0000       3.471158        94.4550 
 294   0.0000       3.512368        95.5764 
 295   0.0000       3.638393        99.0057 
 296   0.0000       3.786229       103.0285 
 297   0.0000       3.800772       103.4243 

                    ********************************
                    * MULLIKEN POPULATION ANALYSIS *
                    ********************************

-----------------------
MULLIKEN ATOMIC CHARGES
-----------------------
   0 C :    0.057226
   1 C :    0.057226
   2 H :    0.038403
   3 H :    0.038402
   4 C :    0.167329
   5 C :   -0.012507
   6 C :   -0.058717
   7 C :   -0.004816
   8 H :    0.020314
   9 C :   -0.007177
  10 H :   -0.003790
  11 C :    0.001480
  12 H :    0.015178
  13 H :    0.011944
  14 H :    0.011016
  15 C :    0.167330
  16 C :   -0.012505
  17 C :   -0.058721
  18 C :   -0.004818
  19 H :    0.020314
  20 C :   -0.007174
  21 H :   -0.003791
  22 C :    0.001480
  23 H :    0.015179
  24 H :    0.011944
  25 H :    0.011016
  26 C :   -0.062914
  27 N :   -0.204426
  28 N :   -0.204425
Sum of atomic charges:   -0.0000000

--------------------------------
MULLIKEN REDUCED ORBITAL CHARGES
--------------------------------
  0 C s       :     3.116337  s :     3.116337
      pz      :     0.791683  p :     2.779572
      px      :     1.071463
      py      :     0.916426
      dz2     :     0.014109  d :     0.046865
      dxz     :     0.007227
      dyz     :     0.012665
      dx2y2   :     0.004778
      dxy     :     0.008087
  1 C s       :     3.116337  s :     3.116337
      pz      :     0.791682  p :     2.779572
      px      :     1.071463
      py      :     0.916427
      dz2     :     0.014109  d :     0.046865
      dxz     :     0.007227
      dyz     :     0.012665
      dx2y2   :     0.004778
      dxy     :     0.008087
  2 H s       :     0.936838  s :     0.936838
      pz      :     0.010662  p :     0.024759
      px      :     0.005644
      py      :     0.008453
  3 H s       :     0.936839  s :     0.936839
      pz      :     0.010662  p :     0.024759
      px      :     0.005644
      py      :     0.008453
  4 C s       :     2.962812  s :     2.962812
      pz      :     0.985733  p :     2.813874
      px      :     0.982499
      py      :     0.845642
      dz2     :     0.011209  d :     0.055986
      dxz     :     0.006780
      dyz     :     0.014405
      dx2y2   :     0.011623
      dxy     :     0.011969
  5 C s       :     3.225968  s :     3.225968
      pz      :     0.947965  p :     2.753345
      px      :     0.961494
      py      :     0.843887
      dz2     :     0.007869  d :     0.033194
      dxz     :     0.004956
      dyz     :     0.009211
      dx2y2   :     0.005235
      dxy     :     0.005922
  6 C s       :     3.211241  s :     3.211241
      pz      :     0.881250  p :     2.814096
      px      :     0.983027
      py      :     0.949819
      dz2     :     0.006204  d :     0.033380
      dxz     :     0.003586
      dyz     :     0.009845
      dx2y2   :     0.006059
      dxy     :     0.007685
  7 C s       :     3.141563  s :     3.141563
      pz      :     0.909830  p :     2.827854
      px      :     0.962242
      py      :     0.955782
      dz2     :     0.007324  d :     0.035400
      dxz     :     0.003867
      dyz     :     0.009882
      dx2y2   :     0.006714
      dxy     :     0.007613
  8 H s       :     0.955190  s :     0.955190
      pz      :     0.007228  p :     0.024496
      px      :     0.005663
      py      :     0.011605
  9 C s       :     3.140163  s :     3.140163
      pz      :     0.941965  p :     2.831585
      px      :     0.965631
      py      :     0.923989
      dz2     :     0.007685  d :     0.035428
      dxz     :     0.005073
      dyz     :     0.010943
      dx2y2   :     0.005254
      dxy     :     0.006473
 10 H s       :     0.980016  s :     0.980016
      pz      :     0.013097  p :     0.023775
      px      :     0.006958
      py      :     0.003721
 11 C s       :     3.138094  s :     3.138094
      pz      :     0.957284  p :     2.825642
      px      :     0.990201
      py      :     0.878158
      dz2     :     0.008875  d :     0.034783
      dxz     :     0.005738
      dyz     :     0.009574
      dx2y2   :     0.006156
      dxy     :     0.004440
 12 H s       :     0.961469  s :     0.961469
      pz      :     0.013414  p :     0.023353
      px      :     0.006157
      py      :     0.003781
 13 H s       :     0.964601  s :     0.964601
      pz      :     0.007461  p :     0.023455
      px      :     0.006241
      py      :     0.009754
 14 H s       :     0.965579  s :     0.965579
      pz      :     0.004665  p :     0.023405
      px      :     0.004232
      py      :     0.014508
 15 C s       :     2.962811  s :     2.962811
      pz      :     0.985733  p :     2.813874
      px      :     0.982499
      py      :     0.845642
      dz2     :     0.011209  d :     0.055986
      dxz     :     0.006780
      dyz     :     0.014405
      dx2y2   :     0.011623
      dxy     :     0.011969
 16 C s       :     3.225965  s :     3.225965
      pz      :     0.947965  p :     2.753346
      px      :     0.961496
      py      :     0.843886
      dz2     :     0.007870  d :     0.033194
      dxz     :     0.004956
      dyz     :     0.009211
      dx2y2   :     0.005235
      dxy     :     0.005922
 17 C s       :     3.211243  s :     3.211243
      pz      :     0.881252  p :     2.814098
      px      :     0.983026
      py      :     0.949820
      dz2     :     0.006204  d :     0.033380
      dxz     :     0.003586
      dyz     :     0.009845
      dx2y2   :     0.006059
      dxy     :     0.007685
 18 C s       :     3.141566  s :     3.141566
      pz      :     0.909829  p :     2.827853
      px      :     0.962242
      py      :     0.955782
      dz2     :     0.007324  d :     0.035400
      dxz     :     0.003867
      dyz     :     0.009882
      dx2y2   :     0.006714
      dxy     :     0.007613
 19 H s       :     0.955190  s :     0.955190
      pz      :     0.007228  p :     0.024496
      px      :     0.005663
      py      :     0.011605
 20 C s       :     3.140162  s :     3.140162
      pz      :     0.941965  p :     2.831584
      px      :     0.965631
      py      :     0.923988
      dz2     :     0.007685  d :     0.035428
      dxz     :     0.005073
      dyz     :     0.010943
      dx2y2   :     0.005254
      dxy     :     0.006473
 21 H s       :     0.980016  s :     0.980016
      pz      :     0.013097  p :     0.023775
      px      :     0.006958
      py      :     0.003721
 22 C s       :     3.138094  s :     3.138094
      pz      :     0.957284  p :     2.825643
      px      :     0.990201
      py      :     0.878158
      dz2     :     0.008875  d :     0.034783
      dxz     :     0.005738
      dyz     :     0.009574
      dx2y2   :     0.006156
      dxy     :     0.004440
 23 H s       :     0.961468  s :     0.961468
      pz      :     0.013414  p :     0.023353
      px      :     0.006157
      py      :     0.003781
 24 H s       :     0.964601  s :     0.964601
      pz      :     0.007461  p :     0.023455
      px      :     0.006241
      py      :     0.009754
 25 H s       :     0.965579  s :     0.965579
      pz      :     0.004665  p :     0.023405
      px      :     0.004232
      py      :     0.014508
 26 C s       :     3.622537  s :     3.622537
      pz      :     1.110028  p :     2.375470
      px      :     0.629076
      py      :     0.636367
      dz2     :     0.008687  d :     0.064906
      dxz     :     0.009787
      dyz     :     0.028548
      dx2y2   :     0.006997
      dxy     :     0.010887
 27 N s       :     3.379036  s :     3.379036
      pz      :     1.118764  p :     3.794077
      px      :     1.529754
      py      :     1.145559
      dz2     :     0.008619  d :     0.031312
      dxz     :     0.005247
      dyz     :     0.008437
      dx2y2   :     0.005087
      dxy     :     0.003922
 28 N s       :     3.379036  s :     3.379036
      pz      :     1.118763  p :     3.794077
      px      :     1.529754
      py      :     1.145559
      dz2     :     0.008619  d :     0.031312
      dxz     :     0.005247
      dyz     :     0.008437
      dx2y2   :     0.005087
      dxy     :     0.003922


                     *******************************
                     * LOEWDIN POPULATION ANALYSIS *
                     *******************************

----------------------
LOEWDIN ATOMIC CHARGES
----------------------
   0 C :   -0.016678
   1 C :   -0.016678
   2 H :    0.029906
   3 H :    0.029906
   4 C :    0.033744
   5 C :   -0.018659
   6 C :   -0.046666
   7 C :   -0.017783
   8 H :    0.037712
   9 C :   -0.020622
  10 H :    0.028012
  11 C :   -0.034994
  12 H :    0.032018
  13 H :    0.030813
  14 H :    0.029583
  15 C :    0.033744
  16 C :   -0.018659
  17 C :   -0.046666
  18 C :   -0.017783
  19 H :    0.037712
  20 C :   -0.020622
  21 H :    0.028012
  22 C :   -0.034994
  23 H :    0.032018
  24 H :    0.030813
  25 H :    0.029583
  26 C :   -0.201927
  27 N :    0.034578
  28 N :    0.034578

-------------------------------
LOEWDIN REDUCED ORBITAL CHARGES
-------------------------------
  0 C s       :     2.855811  s :     2.855811
      pz      :     0.930307  p :     3.044411
      px      :     1.058818
      py      :     1.055286
      dz2     :     0.037675  d :     0.116455
      dxz     :     0.014485
      dyz     :     0.034627
      dx2y2   :     0.013712
      dxy     :     0.015957
  1 C s       :     2.855811  s :     2.855811
      pz      :     0.930307  p :     3.044411
      px      :     1.058818
      py      :     1.055286
      dz2     :     0.037675  d :     0.116455
      dxz     :     0.014485
      dyz     :     0.034627
      dx2y2   :     0.013712
      dxy     :     0.015957
  2 H s       :     0.896592  s :     0.896592
      pz      :     0.031695  p :     0.073501
      px      :     0.017591
      py      :     0.024215
  3 H s       :     0.896593  s :     0.896593
      pz      :     0.031695  p :     0.073501
      px      :     0.017591
      py      :     0.024215
  4 C s       :     2.833162  s :     2.833162
      pz      :     1.061778  p :     2.997530
      px      :     1.004532
      py      :     0.931220
      dz2     :     0.028081  d :     0.135564
      dxz     :     0.015927
      dyz     :     0.037789
      dx2y2   :     0.027342
      dxy     :     0.026424
  5 C s       :     2.855158  s :     2.855158
      pz      :     1.032152  p :     3.075415
      px      :     0.984769
      py      :     1.058494
      dz2     :     0.020933  d :     0.088085
      dxz     :     0.012141
      dyz     :     0.027260
      dx2y2   :     0.014112
      dxy     :     0.013640
  6 C s       :     2.852769  s :     2.852769
      pz      :     1.033150  p :     3.105218
      px      :     1.009924
      py      :     1.062144
      dz2     :     0.016757  d :     0.088680
      dxz     :     0.008725
      dyz     :     0.027844
      dx2y2   :     0.017103
      dxy     :     0.018249
  7 C s       :     2.853917  s :     2.853917
      pz      :     1.028579  p :     3.072216
      px      :     0.976963
      py      :     1.066674
      dz2     :     0.019088  d :     0.091650
      dxz     :     0.008960
      dyz     :     0.027588
      dx2y2   :     0.018230
      dxy     :     0.017784
  8 H s       :     0.889658  s :     0.889658
      pz      :     0.021958  p :     0.072630
      px      :     0.018008
      py      :     0.032664
  9 C s       :     2.853181  s :     2.853181
      pz      :     1.042670  p :     3.075699
      px      :     0.982837
      py      :     1.050192
      dz2     :     0.020185  d :     0.091741
      dxz     :     0.012152
      dyz     :     0.030382
      dx2y2   :     0.014115
      dxy     :     0.014907
 10 H s       :     0.902042  s :     0.902042
      pz      :     0.036207  p :     0.069946
      px      :     0.020603
      py      :     0.013136
 11 C s       :     2.854173  s :     2.854173
      pz      :     1.048558  p :     3.090201
      px      :     0.997530
      py      :     1.044113
      dz2     :     0.023266  d :     0.090620
      dxz     :     0.014508
      dyz     :     0.026962
      dx2y2   :     0.015544
      dxy     :     0.010340
 12 H s       :     0.900147  s :     0.900147
      pz      :     0.036583  p :     0.067835
      px      :     0.018506
      py      :     0.012747
 13 H s       :     0.901306  s :     0.901306
      pz      :     0.021972  p :     0.067881
      px      :     0.018616
      py      :     0.027294
 14 H s       :     0.902042  s :     0.902042
      pz      :     0.015147  p :     0.068375
      px      :     0.013917
      py      :     0.039311
 15 C s       :     2.833162  s :     2.833162
      pz      :     1.061778  p :     2.997530
      px      :     1.004532
      py      :     0.931220
      dz2     :     0.028081  d :     0.135564
      dxz     :     0.015927
      dyz     :     0.037789
      dx2y2   :     0.027342
      dxy     :     0.026424
 16 C s       :     2.855158  s :     2.855158
      pz      :     1.032152  p :     3.075416
      px      :     0.984769
      py      :     1.058494
      dz2     :     0.020933  d :     0.088085
      dxz     :     0.012141
      dyz     :     0.027260
      dx2y2   :     0.014112
      dxy     :     0.013640
 17 C s       :     2.852769  s :     2.852769
      pz      :     1.033150  p :     3.105218
      px      :     1.009924
      py      :     1.062144
      dz2     :     0.016757  d :     0.088680
      dxz     :     0.008725
      dyz     :     0.027844
      dx2y2   :     0.017103
      dxy     :     0.018249
 18 C s       :     2.853917  s :     2.853917
      pz      :     1.028579  p :     3.072216
      px      :     0.976963
      py      :     1.066674
      dz2     :     0.019088  d :     0.091650
      dxz     :     0.008960
      dyz     :     0.027588
      dx2y2   :     0.018230
      dxy     :     0.017784
 19 H s       :     0.889658  s :     0.889658
      pz      :     0.021958  p :     0.072630
[...]
     86       0.000085  -0.000199   0.000209  -0.000312   0.000269  -0.000491
                 84         85         86    
      0      -0.000003  -0.001029   0.001023
      1       0.000106   0.038401  -0.049454
      2       0.000087  -0.047809   0.047816
      3       0.000003  -0.001030  -0.001024
      4      -0.000106   0.038402   0.049454
      5       0.000086   0.047809   0.047816
      6       0.000013   0.010826  -0.010880
      7       0.000293  -0.455657   0.460262
      8      -0.000705   0.535512  -0.531394
      9      -0.000014   0.010832   0.010885
     10      -0.000280  -0.455657  -0.460263
     11      -0.000691  -0.535512  -0.531393
     12       0.001024  -0.000035   0.000010
     13      -0.000844   0.000220  -0.000048
     14      -0.002600  -0.000193   0.000312
     15      -0.020831  -0.000058   0.000010
     16      -0.045786  -0.000270   0.000148
     17       0.035160   0.000062   0.000020
     18       0.000301   0.001411  -0.001035
     19      -0.000006  -0.000551   0.000386
     20      -0.000610  -0.003049   0.002201
     21      -0.004548  -0.000041   0.000001
     22       0.005923   0.000111  -0.000054
     23       0.013296   0.000120  -0.000045
     24       0.231920   0.000702   0.000079
     25       0.509959   0.001461  -0.000142
     26      -0.398742  -0.001032  -0.000040
     27       0.000970   0.000082  -0.000031
     28       0.001809   0.000308  -0.000166
     29      -0.001736  -0.000078   0.000005
     30      -0.002284  -0.014523   0.010527
     31       0.001055   0.008988  -0.006662
     32       0.005727   0.037481  -0.027511
     33       0.000294  -0.000032   0.000018
     34       0.004420  -0.000017   0.000015
     35       0.000826   0.000053  -0.000017
     36       0.052772   0.000522  -0.000215
     37      -0.034385  -0.000413   0.000225
     38      -0.140989  -0.001418   0.000629
     39      -0.009766  -0.000939   0.000396
     40      -0.019804  -0.002250   0.001049
     41       0.016494   0.001669  -0.000729
     42      -0.000196  -0.000010   0.000054
     43      -0.042142   0.000116  -0.000144
     44      -0.013843   0.000073  -0.000066
     45      -0.001017  -0.000035  -0.000010
     46       0.000838   0.000220   0.000048
     47      -0.002582   0.000193   0.000312
     48       0.020686  -0.000058  -0.000010
     49       0.045468  -0.000270  -0.000148
     50       0.034916  -0.000062   0.000020
     51      -0.000299   0.001411   0.001035
     52       0.000006  -0.000551  -0.000386
     53      -0.000606   0.003049   0.002201
     54       0.004517  -0.000041  -0.000001
     55      -0.005881   0.000111   0.000054
     56       0.013203  -0.000120  -0.000045
     57      -0.230310   0.000702  -0.000079
     58      -0.506414   0.001461   0.000142
     59      -0.395970   0.001032  -0.000040
     60      -0.000963   0.000082   0.000031
     61      -0.001796   0.000308   0.000166
     62      -0.001724   0.000078   0.000005
     63       0.002269  -0.014522  -0.010527
     64      -0.001048   0.008987   0.006661
     65       0.005690  -0.037479  -0.027510
     66      -0.000292  -0.000032  -0.000018
     67      -0.004389  -0.000017  -0.000015
     68       0.000820  -0.000053  -0.000017
     69      -0.052404   0.000522   0.000215
     70       0.034145  -0.000413  -0.000225
     71      -0.140004   0.001418   0.000629
     72       0.009699  -0.000939  -0.000396
     73       0.019666  -0.002250  -0.001049
     74       0.016379  -0.001669  -0.000729
     75       0.000194  -0.000010  -0.000054
     76       0.041847   0.000116   0.000144
     77      -0.013746  -0.000073  -0.000066
     78       0.000000  -0.000021   0.000000
     79      -0.000002  -0.001696  -0.000000
     80      -0.000431  -0.000000  -0.000946
     81      -0.000134   0.000000   0.000013
     82      -0.000180   0.000191  -0.000807
     83       0.000381   0.000572  -0.002484
     84       0.000133   0.000000  -0.000013
     85       0.000179   0.000191   0.000807
     86       0.000378  -0.000572  -0.002484


-----------
IR SPECTRUM
-----------

 Mode   freq       eps      Int      T**2         TX        TY        TZ
       cm**-1   L/(mol*cm) km/mol    a.u.
----------------------------------------------------------------------------
  6:     34.64   0.000000    0.00  0.000002  (-0.000003  0.000011 -0.001480)
  7:     36.50   0.000101    0.51  0.000866  ( 0.005001 -0.028994 -0.000000)
  8:     81.71   0.000031    0.16  0.000118  (-0.000007  0.000003  0.010865)
  9:     83.67   0.002149   10.86  0.008017  (-0.079432  0.041318 -0.000001)
 10:    132.85   0.000004    0.02  0.000009  (-0.000000  0.000001 -0.003025)
 11:    191.36   0.000370    1.87  0.000603  (-0.010533 -0.022173 -0.000000)
 12:    264.70   0.000028    0.14  0.000033  (-0.000000  0.000000  0.005752)
 13:    284.28   0.001109    5.60  0.001217  (-0.013167  0.032303 -0.000000)
 14:    314.19   0.000024    0.12  0.000023  (-0.000000 -0.000000 -0.004838)
 15:    422.58   0.000001    0.00  0.000000  (-0.000064  0.000656 -0.000000)
 16:    426.65   0.000006    0.03  0.000004  ( 0.000000  0.000000  0.002074)
 17:    431.62   0.000003    0.01  0.000002  ( 0.000000 -0.000002  0.001393)
 18:    432.85   0.000181    0.91  0.000130  ( 0.000295 -0.011404 -0.000000)
 19:    500.86   0.001275    6.44  0.000795  ( 0.015443 -0.023582 -0.000000)
 20:    538.80   0.000399    2.02  0.000231  ( 0.000000  0.000000  0.015199)
 21:    565.81   0.002823   14.27  0.001557  ( 0.028177  0.027625 -0.000000)
 22:    631.30   0.000209    1.06  0.000103  (-0.000981  0.010125  0.000000)
 23:    632.74   0.000038    0.19  0.000019  ( 0.000000  0.000000 -0.004318)
 24:    655.20   0.000598    3.02  0.000285  (-0.010604  0.013138 -0.000000)
 25:    660.21   0.000278    1.41  0.000131  (-0.000000  0.000000  0.011467)
 26:    693.60   0.000410    2.07  0.000184  ( 0.000000 -0.000000 -0.013579)
 27:    724.55   0.001676    8.47  0.000722  ( 0.000050 -0.000024  0.026865)
 28:    724.60   0.007070   35.73  0.003045  ( 0.050431 -0.022398 -0.000027)
 29:    728.40   0.011293   57.07  0.004838  (-0.041878 -0.055539 -0.000001)
 30:    739.11   0.011535   58.29  0.004870  (-0.068486  0.013413 -0.000000)
 31:    801.94   0.001260    6.37  0.000490  ( 0.000106 -0.000030 -0.022138)
 32:    801.97   0.010678   53.96  0.004155  (-0.062030  0.017525 -0.000037)
 33:    871.06   0.000070    0.35  0.000025  ( 0.000000 -0.000001  0.005007)
 34:    872.42   0.000043    0.22  0.000015  (-0.001545  0.003604  0.000000)
 35:    875.85   0.000000    0.00  0.000000  ( 0.000000  0.000000  0.000354)
 36:    959.54   0.000082    0.41  0.000027  (-0.000016  0.000012  0.005153)
 37:    959.87   0.002014   10.18  0.000655  ( 0.020270 -0.015615  0.000004)
 38:    970.81   0.005279   26.68  0.001697  (-0.004971 -0.040894 -0.000000)
 39:    975.16   0.000182    0.92  0.000058  (-0.000000 -0.000002  0.007624)
 40:   1021.01   0.000111    0.56  0.000034  ( 0.000001 -0.000001  0.005834)
 41:   1021.21   0.000205    1.04  0.000063  (-0.003896  0.006890  0.000001)
 42:   1024.58   0.000075    0.38  0.000023  ( 0.001738 -0.004455 -0.000000)
 43:   1026.08   0.000005    0.03  0.000002  ( 0.000000  0.000000 -0.001274)
 44:   1044.87   0.000305    1.54  0.000091  (-0.004877  0.008202  0.000000)
 45:   1044.92   0.000008    0.04  0.000002  (-0.000001  0.000002 -0.001515)
 46:   1063.59   0.000290    1.46  0.000085  ( 0.000000  0.000001  0.009218)
 47:   1065.68   0.002172   10.97  0.000636  (-0.000716 -0.025208  0.000000)
 48:   1090.35   0.000840    4.24  0.000240  ( 0.000000 -0.000000 -0.015501)
 49:   1097.78   0.002196   11.10  0.000624  (-0.007397 -0.023867  0.000000)
 50:   1119.55   0.001061    5.36  0.000296  ( 0.008080 -0.015185 -0.000027)
 51:   1119.75   0.005681   28.71  0.001583  ( 0.000005 -0.000010  0.039791)
 52:   1139.40   0.000554    2.80  0.000152  (-0.000000  0.000000  0.012319)
 53:   1166.11   0.000078    0.39  0.000021  (-0.000000 -0.000001 -0.004558)
 54:   1166.19   0.000035    0.18  0.000009  ( 0.000201  0.003072 -0.000001)
 55:   1189.87   0.000008    0.04  0.000002  ( 0.000001  0.000002 -0.001441)
 56:   1189.95   0.000095    0.48  0.000025  ( 0.001020  0.004896  0.000000)
 57:   1296.54   0.004506   22.77  0.001085  ( 0.001391 -0.032903  0.000000)
 58:   1304.11   0.001152    5.82  0.000276  ( 0.000000  0.000004 -0.016607)
 59:   1305.74   0.008571   43.31  0.002048  (-0.001216 -0.045243 -0.000002)
 60:   1356.11   0.005865   29.64  0.001350  ( 0.001199  0.036717 -0.000000)
 61:   1358.21   0.000098    0.50  0.000023  (-0.000000 -0.000002 -0.004754)
 62:   1358.94   0.003346   16.91  0.000768  (-0.000153  0.027720 -0.000000)
 63:   1390.91   0.001530    7.73  0.000343  ( 0.000000  0.000000 -0.018530)
 64:   1432.49   0.000138    0.70  0.000030  (-0.000000  0.000000  0.005480)
 65:   1468.18   0.021869  110.52  0.004648  ( 0.000530  0.068176  0.000000)
 66:   1511.53   0.000708    3.58  0.000146  ( 0.006874 -0.009945 -0.000000)
 67:   1516.67   0.000869    4.39  0.000179  (-0.000000  0.000000 -0.013373)
 68:   1562.65   0.066245  334.77  0.013229  ( 0.000335  0.115018  0.000000)
 69:   1570.36   0.002234   11.29  0.000444  (-0.000000 -0.000000  0.021068)
 70:   1668.70   0.001699    8.59  0.000318  ( 0.000000 -0.000000 -0.017827)
 71:   1699.00   0.000996    5.03  0.000183  ( 0.007485  0.011268 -0.000000)
 72:   1705.16   0.000427    2.16  0.000078  (-0.000000  0.000000 -0.008845)
 73:   1715.02   0.027467  138.81  0.004998  ( 0.001079 -0.070688 -0.000000)
 74:   1719.06   0.001894    9.57  0.000344  ( 0.000000  0.000000 -0.018545)
 75:   3212.48   0.000380    1.92  0.000037  ( 0.000176 -0.006074  0.000000)
 76:   3212.54   0.000038    0.19  0.000004  ( 0.000000 -0.000000  0.001930)
 77:   3221.31   0.001348    6.81  0.000131  ( 0.006074  0.009680  0.000005)
 78:   3221.34   0.001446    7.31  0.000140  ( 0.000002  0.000004 -0.011836)
 79:   3231.92   0.003578   18.08  0.000345  (-0.004336  0.018074  0.000012)
 80:   3232.04   0.002733   13.81  0.000264  ( 0.000003 -0.000013  0.016245)
 81:   3239.04   0.001655    8.37  0.000159  (-0.003435 -0.012152  0.000005)
 82:   3239.12   0.000246    1.24  0.000024  ( 0.000004  0.000013  0.004869)
 83:   3253.71   0.000550    2.78  0.000053  (-0.000413  0.007250  0.000003)
 84:   3253.77   0.000011    0.05  0.000001  (-0.000001  0.000025 -0.001015)
 85:   3304.41   0.001300    6.57  0.000123  ( 0.000655 -0.011062  0.000000)
 86:   3325.90   0.000046    0.23  0.000004  ( 0.000000  0.000000 -0.002072)

* The epsilon (eps) is given for a Dirac delta lineshape.
** The dipole moment derivative (T) already includes vibrational overlap.

The first frequency considered to be a vibration is 6
The total number of vibrations considered is 81


--------------------------
THERMOCHEMISTRY AT 298.15K
--------------------------

Temperature         ... 298.15 K
Pressure            ... 1.00 atm
Total Mass          ... 220.28 AMU

Throughout the following assumptions are being made:
  (1) The electronic state is orbitally nondegenerate
  (2) There are no thermally accessible electronically excited states
  (3) Hindered rotations indicated by low frequency modes are not
      treated as such but are treated as vibrations and this may
      cause some error
  (4) All equations used are the standard statistical mechanics
      equations for an ideal gas
  (5) All vibrations are strictly harmonic

freq.      34.64  E(vib)   ...       0.54 
freq.      36.50  E(vib)   ...       0.54 
freq.      81.71  E(vib)   ...       0.48 
freq.      83.67  E(vib)   ...       0.48 
freq.     132.85  E(vib)   ...       0.42 
freq.     191.36  E(vib)   ...       0.36 
freq.     264.70  E(vib)   ...       0.29 
freq.     284.28  E(vib)   ...       0.28 
freq.     314.19  E(vib)   ...       0.25 
freq.     422.58  E(vib)   ...       0.18 
freq.     426.65  E(vib)   ...       0.18 
freq.     431.62  E(vib)   ...       0.18 
freq.     432.85  E(vib)   ...       0.17 
freq.     500.86  E(vib)   ...       0.14 
freq.     538.80  E(vib)   ...       0.12 
freq.     565.81  E(vib)   ...       0.11 
freq.     631.30  E(vib)   ...       0.09 
freq.     632.74  E(vib)   ...       0.09 
freq.     655.20  E(vib)   ...       0.08 
freq.     660.21  E(vib)   ...       0.08 
freq.     693.60  E(vib)   ...       0.07 
freq.     724.55  E(vib)   ...       0.06 
freq.     724.60  E(vib)   ...       0.06 
freq.     728.40  E(vib)   ...       0.06 
freq.     739.11  E(vib)   ...       0.06 
freq.     801.94  E(vib)   ...       0.05 
freq.     801.97  E(vib)   ...       0.05 
freq.     871.06  E(vib)   ...       0.04 
freq.     872.42  E(vib)   ...       0.04 
freq.     875.85  E(vib)   ...       0.04 
freq.     959.54  E(vib)   ...       0.03 
freq.     959.87  E(vib)   ...       0.03 
freq.     970.81  E(vib)   ...       0.03 
freq.     975.16  E(vib)   ...       0.03 
freq.    1021.01  E(vib)   ...       0.02 
freq.    1021.21  E(vib)   ...       0.02 
freq.    1024.58  E(vib)   ...       0.02 
freq.    1026.08  E(vib)   ...       0.02 
freq.    1044.87  E(vib)   ...       0.02 
freq.    1044.92  E(vib)   ...       0.02 
freq.    1063.59  E(vib)   ...       0.02 
freq.    1065.68  E(vib)   ...       0.02 
freq.    1090.35  E(vib)   ...       0.02 
freq.    1097.78  E(vib)   ...       0.02 
freq.    1119.55  E(vib)   ...       0.01 
freq.    1119.75  E(vib)   ...       0.01 
freq.    1139.40  E(vib)   ...       0.01 
freq.    1166.11  E(vib)   ...       0.01 
freq.    1166.19  E(vib)   ...       0.01 
freq.    1189.87  E(vib)   ...       0.01 
freq.    1189.95  E(vib)   ...       0.01 
freq.    1296.54  E(vib)   ...       0.01 
freq.    1304.11  E(vib)   ...       0.01 
freq.    1305.74  E(vib)   ...       0.01 
freq.    1356.11  E(vib)   ...       0.01 
freq.    1358.21  E(vib)   ...       0.01 
freq.    1358.94  E(vib)   ...       0.01 
freq.    1390.91  E(vib)   ...       0.00 
freq.    1432.49  E(vib)   ...       0.00 
freq.    1468.18  E(vib)   ...       0.00 
freq.    1511.53  E(vib)   ...       0.00 
freq.    1516.67  E(vib)   ...       0.00 
freq.    1562.65  E(vib)   ...       0.00 
freq.    1570.36  E(vib)   ...       0.00 
freq.    1668.70  E(vib)   ...       0.00 
freq.    1699.00  E(vib)   ...       0.00 
freq.    1705.16  E(vib)   ...       0.00 
freq.    1715.02  E(vib)   ...       0.00 
freq.    1719.06  E(vib)   ...       0.00 
freq.    3212.48  E(vib)   ...       0.00 
freq.    3212.54  E(vib)   ...       0.00 
freq.    3221.31  E(vib)   ...       0.00 
freq.    3221.34  E(vib)   ...       0.00 
freq.    3231.92  E(vib)   ...       0.00 
freq.    3232.04  E(vib)   ...       0.00 
freq.    3239.04  E(vib)   ...       0.00 
freq.    3239.12  E(vib)   ...       0.00 
freq.    3253.71  E(vib)   ...       0.00 
freq.    3253.77  E(vib)   ...       0.00 
freq.    3304.41  E(vib)   ...       0.00 
freq.    3325.90  E(vib)   ...       0.00 

------------
INNER ENERGY
------------

The inner energy is: U= E(el) + E(ZPE) + E(vib) + E(rot) + E(trans)
    E(el)   - is the total energy from the electronic structure calculation
              = E(kin-el) + E(nuc-el) + E(el-el) + E(nuc-nuc)
    E(ZPE)  - the the zero temperature vibrational energy from the frequency calculation
    E(vib)  - the the finite temperature correction to E(ZPE) due to population
              of excited vibrational states
    E(rot)  - is the rotational thermal energy
    E(trans)- is the translational thermal energy

Summary of contributions to the inner energy U:
Electronic energy                ...   -687.61137635 Eh
Zero point energy                ...      0.23578863 Eh     147.96 kcal/mol
Thermal vibrational correction   ...      0.00968105 Eh       6.07 kcal/mol
Thermal rotational correction    ...      0.00141627 Eh       0.89 kcal/mol
Thermal translational correction ...      0.00141627 Eh       0.89 kcal/mol
-----------------------------------------------------------------------
Total thermal energy                   -687.36307412 Eh


Summary of corrections to the electronic energy:
(perhaps to be used in another calculation)
Total thermal correction                  0.01251359 Eh       7.85 kcal/mol
Non-thermal (ZPE) correction              0.23578863 Eh     147.96 kcal/mol
-----------------------------------------------------------------------
Total correction                          0.24830223 Eh     155.81 kcal/mol


--------
ENTHALPY
--------

The enthalpy is H = U + kB*T
                kB is Boltzmann's constant
Total free energy                 ...   -687.36307412 Eh 
Thermal Enthalpy correction       ...      0.00094421 Eh       0.59 kcal/mol
-----------------------------------------------------------------------
Total Enthalpy                    ...   -687.36212991 Eh


Note: Rotational entropy computed according to Herzberg 
Infrared and Raman Spectra, Chapter V,1, Van Nostrand Reinhold, 1945 
Point Group:  C2, Symmetry Number:   2  
Rotational constants in cm-1:     0.054641     0.006950     0.006296 

Vibrational entropy computed according to the QRRHO of S. Grimme
Chem.Eur.J. 2012 18 9955


-------
ENTROPY
-------

The entropy contributions are T*S = T*(S(el)+S(vib)+S(rot)+S(trans))
     S(el)   - electronic entropy
     S(vib)  - vibrational entropy
     S(rot)  - rotational entropy
     S(trans)- translational entropy
The entropies will be listed as multiplied by the temperature to get
units of energy

Electronic entropy                ...      0.00000000 Eh      0.00 kcal/mol
Vibrational entropy               ...      0.01650802 Eh     10.36 kcal/mol
Rotational entropy                ...      0.01496699 Eh      9.39 kcal/mol
Translational entropy             ...      0.01998968 Eh     12.54 kcal/mol
-----------------------------------------------------------------------
Final entropy term                ...      0.05146469 Eh     32.29 kcal/mol

In case the symmetry of your molecule has not been determined correctly
or in case you have a reason to use a different symmetry number we print 
out the resulting rotational entropy values for sn=1,12 :
 --------------------------------------------------------
|  sn= 1 | S(rot)=       0.01562145 Eh      9.80 kcal/mol|
|  sn= 2 | S(rot)=       0.01496699 Eh      9.39 kcal/mol|
|  sn= 3 | S(rot)=       0.01458416 Eh      9.15 kcal/mol|
|  sn= 4 | S(rot)=       0.01431253 Eh      8.98 kcal/mol|
|  sn= 5 | S(rot)=       0.01410185 Eh      8.85 kcal/mol|
|  sn= 6 | S(rot)=       0.01392970 Eh      8.74 kcal/mol|
|  sn= 7 | S(rot)=       0.01378416 Eh      8.65 kcal/mol|
|  sn= 8 | S(rot)=       0.01365808 Eh      8.57 kcal/mol|
|  sn= 9 | S(rot)=       0.01354687 Eh      8.50 kcal/mol|
|  sn=10 | S(rot)=       0.01344739 Eh      8.44 kcal/mol|
|  sn=11 | S(rot)=       0.01335740 Eh      8.38 kcal/mol|
|  sn=12 | S(rot)=       0.01327525 Eh      8.33 kcal/mol|
 --------------------------------------------------------


-------------------
GIBBS FREE ENERGY
-------------------

The Gibbs free energy is G = H - T*S

Total enthalpy                    ...   -687.36212991 Eh 
Total entropy correction          ...     -0.05146469 Eh    -32.29 kcal/mol
-----------------------------------------------------------------------
Final Gibbs free energy         ...   -687.41359460 Eh

For completeness - the Gibbs free energy minus the electronic energy
G-E(el)                           ...      0.19778175 Eh    124.11 kcal/mol


Timings for individual modules:

Sum of individual times         ...     1070.269 sec (=  17.838 min)
GTO integral calculation        ...        5.209 sec (=   0.087 min)   0.5 %
SCF iterations                  ...      522.299 sec (=   8.705 min)  48.8 %
SCF Gradient evaluation         ...      135.513 sec (=   2.259 min)  12.7 %
Geometry relaxation             ...        0.590 sec (=   0.010 min)   0.1 %
Analytical frequency calculation...      406.658 sec (=   6.778 min)  38.0 %
                             ****ORCA TERMINATED NORMALLY****
TOTAL RUN TIME: 0 days 0 hours 17 minutes 53 seconds 78 msec
