
                                 *****************
                                 * O   R   C   A *
                                 *****************

                                            #,                                       
                                            ###                                      
                                            ####                                     
                                            #####                                    
                                            ######                                   
                                           ########,                                 
                                     ,,################,,,,,                         
                               ,,#################################,,                 
                          ,,##########################################,,             
                       ,#########################################, ''#####,          
                    ,#############################################,,   '####,        
                  ,##################################################,,,,####,       
                ,###########''''           ''''###############################       
              ,#####''   ,,,,##########,,,,          '''####'''          '####       
            ,##' ,,,,###########################,,,                        '##       
           ' ,,###''''                  '''############,,,                           
         ,,##''                                '''############,,,,        ,,,,,,###''
      ,#''                                            '''#######################'''  
     '                                                          ''''####''''         
             ,#######,   #######,   ,#######,      ##                                
            ,#'     '#,  ##    ##  ,#'     '#,    #''#        ######   ,####,        
            ##       ##  ##   ,#'  ##            #'  '#       #        #'  '#        
            ##       ##  #######   ##           ,######,      #####,   #    #        
            '#,     ,#'  ##    ##  '#,     ,#' ,#      #,         ##   #,  ,#        
             '#######'   ##     ##  '#######'  #'      '#     #####' # '####'        



                  #######################################################
                  #                        -***-                        #
                  #          Department of theory and spectroscopy      #
                  #    Directorship and core code : Frank Neese         #
                  #        Max Planck Institute fuer Kohlenforschung    #
                  #                Kaiser Wilhelm Platz 1               #
                  #                 D-45470 Muelheim/Ruhr               #
                  #                      Germany                        #
                  #                                                     #
                  #                  All rights reserved                #
                  #                        -***-                        #
                  #######################################################


                         Program Version 5.0.4 -  RELEASE  -


 With contributions from (in alphabetic order):
   Daniel Aravena         : Magnetic Suceptibility
   Michael Atanasov       : Ab Initio Ligand Field Theory (pilot matlab implementation)
   Alexander A. Auer      : GIAO ZORA, VPT2 properties, NMR spectrum
   Ute Becker             : Parallelization
   Giovanni Bistoni       : ED, misc. LED, open-shell LED, HFLD
   Martin Brehm           : Molecular dynamics
   Dmytro Bykov           : SCF Hessian
   Vijay G. Chilkuri      : MRCI spin determinant printing, contributions to CSF-ICE
   Dipayan Datta          : RHF DLPNO-CCSD density
   Achintya Kumar Dutta   : EOM-CC, STEOM-CC
   Dmitry Ganyushin       : Spin-Orbit,Spin-Spin,Magnetic field MRCI
   Miquel Garcia          : C-PCM and meta-GGA Hessian, CC/C-PCM, Gaussian charge scheme
   Yang Guo               : DLPNO-NEVPT2, F12-NEVPT2, CIM, IAO-localization
   Andreas Hansen         : Spin unrestricted coupled pair/coupled cluster methods
   Benjamin Helmich-Paris : MC-RPA, TRAH-SCF, COSX integrals
   Lee Huntington         : MR-EOM, pCC
   Robert Izsak           : Overlap fitted RIJCOSX, COSX-SCS-MP3, EOM
   Marcus Kettner         : VPT2
   Christian Kollmar      : KDIIS, OOCD, Brueckner-CCSD(T), CCSD density, CASPT2, CASPT2-K
   Simone Kossmann        : Meta GGA functionals, TD-DFT gradient, OOMP2, MP2 Hessian
   Martin Krupicka        : Initial AUTO-CI
   Lucas Lang             : DCDCAS
   Marvin Lechner         : AUTO-CI (C++ implementation), FIC-MRCC
   Dagmar Lenk            : GEPOL surface, SMD
   Dimitrios Liakos       : Extrapolation schemes; Compound Job, initial MDCI parallelization
   Dimitrios Manganas     : Further ROCIS development; embedding schemes
   Dimitrios Pantazis     : SARC Basis sets
   Anastasios Papadopoulos: AUTO-CI, single reference methods and gradients
   Taras Petrenko         : DFT Hessian,TD-DFT gradient, ASA, ECA, R-Raman, ABS, FL, XAS/XES, NRVS
   Peter Pinski           : DLPNO-MP2, DLPNO-MP2 Gradient
   Christoph Reimann      : Effective Core Potentials
   Marius Retegan         : Local ZFS, SOC
   Christoph Riplinger    : Optimizer, TS searches, QM/MM, DLPNO-CCSD(T), (RO)-DLPNO pert. Triples
   Tobias Risthaus        : Range-separated hybrids, TD-DFT gradient, RPA, STAB
   Michael Roemelt        : Original ROCIS implementation
   Masaaki Saitow         : Open-shell DLPNO-CCSD energy and density
   Barbara Sandhoefer     : DKH picture change effects
   Avijit Sen             : IP-ROCIS
   Kantharuban Sivalingam : CASSCF convergence, NEVPT2, FIC-MRCI
   Bernardo de Souza      : ESD, SOC TD-DFT
   Georgi Stoychev        : AutoAux, RI-MP2 NMR, DLPNO-MP2 response
   Willem Van den Heuvel  : Paramagnetic NMR
   Boris Wezisla          : Elementary symmetry handling
   Frank Wennmohs         : Technical directorship


 We gratefully acknowledge several colleagues who have allowed us to
 interface, adapt or use parts of their codes:
   Stefan Grimme, W. Hujo, H. Kruse, P. Pracht,  : VdW corrections, initial TS optimization,
                  C. Bannwarth, S. Ehlert          DFT functionals, gCP, sTDA/sTD-DF
   Ed Valeev, F. Pavosevic, A. Kumar             : LibInt (2-el integral package), F12 methods
   Garnet Chan, S. Sharma, J. Yang, R. Olivares  : DMRG
   Ulf Ekstrom                                   : XCFun DFT Library
   Mihaly Kallay                                 : mrcc  (arbitrary order and MRCC methods)
   Jiri Pittner, Ondrej Demel                    : Mk-CCSD
   Frank Weinhold                                : gennbo (NPA and NBO analysis)
   Christopher J. Cramer and Donald G. Truhlar   : smd solvation model
   Lars Goerigk                                  : TD-DFT with DH, B97 family of functionals
   V. Asgeirsson, H. Jonsson                     : NEB implementation
   FAccTs GmbH                                   : IRC, NEB, NEB-TS, DLPNO-Multilevel, CI-OPT
                                                   MM, QMMM, 2- and 3-layer-ONIOM, Crystal-QMMM,
                                                   LR-CPCM, SF, NACMEs, symmetry and pop. for TD-DFT,
                                                   nearIR, NL-DFT gradient (VV10), updates on ESD,
                                                   ML-optimized integration grids
   S Lehtola, MJT Oliveira, MAL Marques          : LibXC Library
   Liviu Ungur et al                             : ANISO software


 Your calculation uses the libint2 library for the computation of 2-el integrals
 For citations please refer to: http://libint.valeyev.net

 Your ORCA version has been built with support for libXC version: 5.1.0
 For citations please refer to: https://tddft.org/programs/libxc/

 This ORCA versions uses:
   CBLAS   interface :  Fast vector & matrix operations
   LAPACKE interface :  Fast linear algebra routines
   SCALAPACK package :  Parallel linear algebra routines
   Shared memory     :  Shared parallel matrices
   BLAS/LAPACK       :  OpenBLAS 0.3.15  USE64BITINT DYNAMIC_ARCH NO_AFFINITY SkylakeX SINGLE_THREADED
        Core in use  :  SkylakeX
   Copyright (c) 2011-2014, The OpenBLAS Project




***************************************
The coordinates will be read from file: 9.xyz
***************************************


Your calculation utilizes the atom-pairwise dispersion correction
based on tight binding partial charges (D4)
Cite in your paper:
E.Caldeweyher, C.Bannwarth, S.Grimme, J.Chem.Phys., (2017), 147, 034112.
E.Caldeweyher, S.Ehlert, A.Hansen, H.Neugebauer, S.Grimme, J.Chem.Phys., (2018), in progress.
   

XCFun DFT library Copyright 2009-2010 Ulf Ekstrom and contributors.
See http://admol.org/xcfun for more information.
This is free software; see the source code for copying conditions.
There is ABSOLUTELY NO WARRANTY; not even for MERCHANTABILITY or FITNESS FOR A PARTICULAR PURPOSE.
For details see the documentation.
Scientific users of this library should cite U. Ekstrom, L. Visscher, R. Bast, A. J. Thorvaldsen and K. Ruud;
J.Chem.Theor.Comp. 2010, DOI: 10.1021/ct100117s
XCFun Version 0.99 

================================================================================

----- Orbital basis set information -----
Your calculation utilizes the basis: def2-SVP
   F. Weigend and R. Ahlrichs, Phys. Chem. Chem. Phys. 7, 3297 (2005).

----- AuxJ basis set information -----
Your calculation utilizes the auxiliary basis: def2/J
   F. Weigend, Phys. Chem. Chem. Phys. 8, 1057 (2006).

================================================================================
                                        WARNINGS
                       Please study these warnings very carefully!
================================================================================


WARNING: Geometry Optimization
  ===> : Switching off AutoStart
         For restart on a previous wavefunction, please use MOREAD

INFO   : the flag for use of the SHARK integral package has been found!

================================================================================
                                       INPUT FILE
================================================================================
NAME = 9_Gas.inp
|  1> # ORCAForces - ../2023_04/pKa_prediction/extra_carbenes/Gas/9_Gas.inp
|  2> # Basic Mode
|  3> #
|  4> ! Opt FREQ wB97X D4 Def2-SVP SlowConv TightSCF DEFGRID2 Def2/J RIJCOSX 
|  5> 
|  6> %maxcore 4500
|  7> 
|  8> %PAL NPROCS 4 END
|  9> 
| 10> %geom 
| 11> Maxiter 150
| 12> END
| 13> 
| 14> * xyzfile 0 1 9.xyz
| 15> 
| 16>                          ****END OF INPUT****
================================================================================

                       *****************************
                       * Geometry Optimization Run *
                       *****************************

Geometry optimization settings:
Update method            Update   .... BFGS
Choice of coordinates    CoordSys .... Z-matrix Internals
Initial Hessian          InHess   .... Almoef's Model

Convergence Tolerances:
Energy Change            TolE     ....  5.0000e-06 Eh
Max. Gradient            TolMAXG  ....  3.0000e-04 Eh/bohr
RMS Gradient             TolRMSG  ....  1.0000e-04 Eh/bohr
Max. Displacement        TolMAXD  ....  4.0000e-03 bohr
RMS Displacement         TolRMSD  ....  2.0000e-03 bohr
Strict Convergence                ....  False
------------------------------------------------------------------------------
                        ORCA OPTIMIZATION COORDINATE SETUP
------------------------------------------------------------------------------

The optimization will be done in new redundant internal coordinates
Making redundant internal coordinates   ...  (new redundants) done
Evaluating the initial hessian          ...  (Almloef) done
Evaluating the coordinates              ...  done
Calculating the B-matrix                .... done
Calculating the G-matrix                .... done
Diagonalizing the G-matrix              .... done
The first mode is                       ....   40
The number of degrees of freedom        ....   45

    -----------------------------------------------------------------
                    Redundant Internal Coordinates


    -----------------------------------------------------------------
         Definition                    Initial Value    Approx d2E/dq
    -----------------------------------------------------------------
      1. B(C   1,C   0)                  1.5351         0.366646   
      2. B(N   2,C   0)                  1.4777         0.405414   
      3. B(N   3,C   1)                  1.4777         0.405414   
      4. B(C   4,N   2)                  1.3470         0.655358   
      5. B(C   4,N   3)                  1.3470         0.655358   
      6. B(H   5,C   0)                  1.0939         0.355026   
      7. B(H   6,C   1)                  1.0939         0.355026   
      8. B(C   7,N   2)                  1.4447         0.457717   
      9. B(C   8,N   3)                  1.4447         0.457717   
     10. B(H   9,C   7)                  1.0965         0.351598   
     11. B(H  10,C   8)                  1.0965         0.351598   
     12. B(H  11,C   7)                  1.0884         0.362187   
     13. B(H  12,C   8)                  1.0884         0.362187   
     14. B(H  13,C   7)                  1.0986         0.348939   
     15. B(H  14,C   8)                  1.0986         0.348939   
     16. B(H  15,C   0)                  1.0976         0.350149   
     17. B(H  16,C   1)                  1.0976         0.350149   
     18. A(N   2,C   0,H   5)          111.3737         0.325981   
     19. A(C   1,C   0,H   5)          113.1027         0.322572   
     20. A(C   1,C   0,N   2)          101.6242         0.365006   
     21. A(C   1,C   0,H  15)          112.3576         0.321842   
     22. A(H   5,C   0,H  15)          107.9089         0.288920   
     23. A(N   2,C   0,H  15)          110.4321         0.325240   
     24. A(N   3,C   1,H  16)          110.4321         0.325240   
     25. A(H   6,C   1,H  16)          107.9089         0.288920   
     26. A(C   0,C   1,N   3)          101.6242         0.365006   
     27. A(C   0,C   1,H  16)          112.3576         0.321842   
     28. A(N   3,C   1,H   6)          111.3737         0.325981   
     29. A(C   0,C   1,H   6)          113.1027         0.322572   
     30. A(C   0,N   2,C   4)          114.7070         0.401190   
     31. A(C   4,N   2,C   7)          123.9757         0.409883   
     32. A(C   0,N   2,C   7)          120.4014         0.376831   
     33. A(C   4,N   3,C   8)          123.9757         0.409883   
     34. A(C   1,N   3,C   8)          120.4014         0.376831   
     35. A(C   1,N   3,C   4)          114.7070         0.401190   
     36. A(N   2,C   4,N   3)          105.8629         0.437040   
     37. A(N   2,C   7,H   9)          111.1390         0.332045   
     38. A(H  11,C   7,H  13)          108.9175         0.289669   
     39. A(H   9,C   7,H  13)          108.0122         0.288325   
     40. A(N   2,C   7,H  13)          111.5771         0.331628   
     41. A(H   9,C   7,H  11)          109.1768         0.290014   
     42. A(N   2,C   7,H  11)          107.9753         0.333683   
     43. A(N   3,C   8,H  10)          111.1390         0.332045   
     44. A(H  12,C   8,H  14)          108.9175         0.289669   
     45. A(H  10,C   8,H  14)          108.0122         0.288325   
     46. A(N   3,C   8,H  14)          111.5771         0.331628   
     47. A(H  10,C   8,H  12)          109.1768         0.290014   
     48. A(N   3,C   8,H  12)          107.9753         0.333683   
     49. D(H  16,C   1,C   0,N   2)    106.7309         0.010759   
     50. D(N   3,C   1,C   0,H   5)   -130.7929         0.010759   
     51. D(N   3,C   1,C   0,N   2)    -11.3025         0.010759   
     52. D(H  16,C   1,C   0,H  15)   -135.2358         0.010759   
     53. D(H   6,C   1,C   0,H   5)    109.7167         0.010759   
     54. D(H   6,C   1,C   0,H  15)    -12.7595         0.010759   
     55. D(H   6,C   1,C   0,N   2)   -130.7929         0.010759   
     56. D(N   3,C   1,C   0,H  15)    106.7309         0.010759   
     57. D(H  16,C   1,C   0,H   5)    -12.7595         0.010759   
     58. D(C   7,N   2,C   0,H   5)    -59.3732         0.014026   
     59. D(C   7,N   2,C   0,C   1)    179.9169         0.014026   
     60. D(C   4,N   2,C   0,H  15)   -108.9676         0.014026   
     61. D(C   7,N   2,C   0,H  15)     60.5067         0.014026   
     62. D(C   4,N   2,C   0,H   5)    131.1525         0.014026   
     63. D(C   4,N   2,C   0,C   1)     10.4426         0.014026   
     64. D(C   8,N   3,C   1,H  16)     60.5067         0.014026   
     65. D(C   8,N   3,C   1,H   6)    -59.3732         0.014026   
     66. D(C   8,N   3,C   1,C   0)    179.9169         0.014026   
     67. D(C   4,N   3,C   1,H  16)   -108.9676         0.014026   
     68. D(C   4,N   3,C   1,H   6)    131.1525         0.014026   
     69. D(C   4,N   3,C   1,C   0)     10.4426         0.014026   
     70. D(N   2,C   4,N   3,C   8)   -173.3960         0.031785   
     71. D(N   2,C   4,N   3,C   1)     -4.3485         0.031785   
     72. D(N   3,C   4,N   2,C   7)   -173.3960         0.031785   
     73. D(N   3,C   4,N   2,C   0)     -4.3485         0.031785   
     74. D(H  13,C   7,N   2,C   0)    -58.8235         0.017881   
     75. D(H  11,C   7,N   2,C   4)    -10.0262         0.017881   
     76. D(H  11,C   7,N   2,C   0)   -178.4823         0.017881   
     77. D(H   9,C   7,N   2,C   4)   -129.7422         0.017881   
     78. D(H  13,C   7,N   2,C   4)    109.6326         0.017881   
     79. D(H   9,C   7,N   2,C   0)     61.8016         0.017881   
     80. D(H  14,C   8,N   3,C   4)    109.6326         0.017881   
     81. D(H  14,C   8,N   3,C   1)    -58.8235         0.017881   
     82. D(H  12,C   8,N   3,C   4)    -10.0262         0.017881   
     83. D(H  12,C   8,N   3,C   1)   -178.4823         0.017881   
     84. D(H  10,C   8,N   3,C   4)   -129.7422         0.017881   
     85. D(H  10,C   8,N   3,C   1)     61.8016         0.017881   
    -----------------------------------------------------------------

Number of atoms                         .... 17
Number of degrees of freedom            .... 85

         *************************************************************
         *                GEOMETRY OPTIMIZATION CYCLE   1            *
         *************************************************************
---------------------------------
CARTESIAN COORDINATES (ANGSTROEM)
---------------------------------
  C      0.000000    0.767548   -1.236648
  C      0.000000   -0.767548   -1.236648
  N     -0.142533    1.065299    0.203745
  N      0.142533   -1.065299    0.203745
  C      0.000000    0.000000    1.015676
  H     -0.822751    1.196759   -1.815781
  H      0.822751   -1.196759   -1.815781
  C     -0.186528    2.433112    0.666698
  C      0.186528   -2.433112    0.666698
  H     -1.050093    2.964337    0.249113
  H      1.050093   -2.964337    0.249113
  H     -0.266716    2.417958    1.752061
  H      0.266716   -2.417958    1.752061
  H      0.720633    2.984601    0.384251
  H     -0.720633   -2.984601    0.384251
  H      0.938643    1.185071   -1.623186
  H     -0.938643   -1.185071   -1.623186

----------------------------
CARTESIAN COORDINATES (A.U.)
----------------------------
  NO LB      ZA    FRAG     MASS         X           Y           Z
   0 C     6.0000    0    12.011    0.000000    1.450456   -2.336926
   1 C     6.0000    0    12.011    0.000000   -1.450456   -2.336926
   2 N     7.0000    0    14.007   -0.269348    2.013123    0.385022
   3 N     7.0000    0    14.007    0.269348   -2.013123    0.385022
   4 C     6.0000    0    12.011    0.000000    0.000000    1.919349
   5 H     1.0000    0     1.008   -1.554774    2.261547   -3.431329
   6 H     1.0000    0     1.008    1.554774   -2.261547   -3.431329
   7 C     6.0000    0    12.011   -0.352487    4.597915    1.259877
   8 C     6.0000    0    12.011    0.352487   -4.597915    1.259877
   9 H     1.0000    0     1.008   -1.984388    5.601785    0.470755
  10 H     1.0000    0     1.008    1.984388   -5.601785    0.470755
  11 H     1.0000    0     1.008   -0.504020    4.569278    3.310915
  12 H     1.0000    0     1.008    0.504020   -4.569278    3.310915
  13 H     1.0000    0     1.008    1.361799    5.640079    0.726129
  14 H     1.0000    0     1.008   -1.361799   -5.640079    0.726129
  15 H     1.0000    0     1.008    1.773778    2.239460   -3.067377
  16 H     1.0000    0     1.008   -1.773778   -2.239460   -3.067377

--------------------------------
INTERNAL COORDINATES (ANGSTROEM)
--------------------------------
 C      0   0   0     0.000000000000     0.00000000     0.00000000
 C      1   0   0     1.535096000000     0.00000000     0.00000000
 N      1   2   0     1.477735872387   101.62418284     0.00000000
 N      2   1   3     1.477735872387   101.62418284   348.69747433
 C      3   1   2     1.347000209447   114.70701549    10.44255976
 H      1   2   3     1.093863027171   113.10272963   240.50961497
 H      2   1   3     1.093863027171   113.10272963   229.20708930
 C      3   1   2     1.444705313620   120.40139446   179.91689583
 C      4   2   1     1.444705313620   120.40139446   179.91689583
 H      8   3   1     1.096504328343   111.13902913    61.80163903
 H      9   4   2     1.096504328343   111.13902913    61.80163903
 H      8   3   1     1.088426663046   107.97534892   181.51768708
 H      9   4   2     1.088426663046   107.97534892   181.51768708
 H      8   3   1     1.098570664478   111.57705910   301.17652589
 H      9   4   2     1.098570664478   111.57705910   301.17652589
 H      1   2   3     1.097628244180   112.35762732   118.03337808
 H      2   1   3     1.097628244180   112.35762732   106.73085241

---------------------------
INTERNAL COORDINATES (A.U.)
---------------------------
 C      0   0   0     0.000000000000     0.00000000     0.00000000
 C      1   0   0     2.900911029278     0.00000000     0.00000000
 N      1   2   0     2.792516097082   101.62418284     0.00000000
 N      2   1   3     2.792516097082   101.62418284   348.69747433
 C      3   1   2     2.545461498190   114.70701549    10.44255976
 H      1   2   3     2.067101549375   113.10272963   240.50961497
 H      2   1   3     2.067101549375   113.10272963   229.20708930
 C      3   1   2     2.730097386963   120.40139446   179.91689583
 C      4   2   1     2.730097386963   120.40139446   179.91689583
 H      8   3   1     2.072092885228   111.13902913    61.80163903
 H      9   4   2     2.072092885228   111.13902913    61.80163903
 H      8   3   1     2.056828310014   107.97534892   181.51768708
 H      9   4   2     2.056828310014   107.97534892   181.51768708
 H      8   3   1     2.075997694623   111.57705910   301.17652589
 H      9   4   2     2.075997694623   111.57705910   301.17652589
 H      1   2   3     2.074216778357   112.35762732   118.03337808
 H      2   1   3     2.074216778357   112.35762732   106.73085241

---------------------
BASIS SET INFORMATION
---------------------
There are 3 groups of distinct atoms

 Group   1 Type C   : 7s4p1d contracted to 3s2p1d pattern {511/31/1}
 Group   2 Type N   : 7s4p1d contracted to 3s2p1d pattern {511/31/1}
 Group   3 Type H   : 4s1p contracted to 2s1p pattern {31/1}

Atom   0C    basis set group =>   1
Atom   1C    basis set group =>   1
Atom   2N    basis set group =>   2
Atom   3N    basis set group =>   2
Atom   4C    basis set group =>   1
Atom   5H    basis set group =>   3
Atom   6H    basis set group =>   3
Atom   7C    basis set group =>   1
Atom   8C    basis set group =>   1
Atom   9H    basis set group =>   3
Atom  10H    basis set group =>   3
Atom  11H    basis set group =>   3
Atom  12H    basis set group =>   3
Atom  13H    basis set group =>   3
Atom  14H    basis set group =>   3
Atom  15H    basis set group =>   3
Atom  16H    basis set group =>   3
---------------------------------
AUXILIARY/J BASIS SET INFORMATION
---------------------------------
There are 3 groups of distinct atoms

 Group   1 Type C   : 12s5p4d2f1g contracted to 6s4p3d1f1g pattern {711111/2111/211/2/1}
 Group   2 Type N   : 12s5p4d2f1g contracted to 6s4p3d1f1g pattern {711111/2111/211/2/1}
 Group   3 Type H   : 5s2p1d contracted to 3s1p1d pattern {311/2/1}

Atom   0C    basis set group =>   1
Atom   1C    basis set group =>   1
Atom   2N    basis set group =>   2
Atom   3N    basis set group =>   2
Atom   4C    basis set group =>   1
Atom   5H    basis set group =>   3
Atom   6H    basis set group =>   3
Atom   7C    basis set group =>   1
Atom   8C    basis set group =>   1
Atom   9H    basis set group =>   3
Atom  10H    basis set group =>   3
Atom  11H    basis set group =>   3
Atom  12H    basis set group =>   3
Atom  13H    basis set group =>   3
Atom  14H    basis set group =>   3
Atom  15H    basis set group =>   3
Atom  16H    basis set group =>   3


           ************************************************************
           *        Program running with 4 parallel MPI-processes     *
           *              working on a common directory               *
           ************************************************************
------------------------------------------------------------------------------
                           ORCA GTO INTEGRAL CALCULATION
                           -- RI-GTO INTEGRALS CHOSEN --
------------------------------------------------------------------------------
------------------------------------------------------------------------------
                   ___                                                        
                  /   \      - P O W E R E D   B Y -                         
                 /     \                                                     
                 |  |  |   _    _      __       _____    __    __             
                 |  |  |  | |  | |    /  \     |  _  \  |  |  /  |          
                  \  \/   | |  | |   /    \    | | | |  |  | /  /          
                 / \  \   | |__| |  /  /\  \   | |_| |  |  |/  /          
                |  |  |   |  __  | /  /__\  \  |    /   |      \           
                |  |  |   | |  | | |   __   |  |    \   |  |\   \          
                \     /   | |  | | |  |  |  |  | |\  \  |  | \   \       
                 \___/    |_|  |_| |__|  |__|  |_| \__\ |__|  \__/        
                                                                              
                      - O R C A' S   B I G   F R I E N D -                    
                                      &                                       
                       - I N T E G R A L  F E E D E R -                       
                                                                              
 v1 FN, 2020, v2 2021                                                         
------------------------------------------------------------------------------


Reading SHARK input file 9_Gas.SHARKINP.tmp ... ok
----------------------
SHARK INTEGRAL PACKAGE
----------------------

Number of atoms                             ...     17
Number of basis functions                   ...    148
Number of shells                            ...     72
Maximum angular momentum                    ...      2
Integral batch strategy                     ... SHARK/LIBINT Hybrid
RI-J (if used) integral strategy            ... SPLIT-RIJ (Revised 2003 algorithm where possible)
Printlevel                                  ...      1
Contraction scheme used                     ... SEGMENTED contraction
Coulomb Range Separation                    ... NOT USED
Exchange Range Separation                   ... Long Range
   Mu parameter                             ...  0.300000
   Scaling (regular/separated)              ...  0.157706  0.842294
Finite Nucleus Model                        ... NOT USED
Auxiliary Coulomb fitting basis             ... AVAILABLE
   # of basis functions in Aux-J            ...    453
   # of shells in Aux-J                     ...    155
   Maximum angular momentum in Aux-J        ...      4
Auxiliary J/K fitting basis                 ... NOT available
Auxiliary Correlation fitting basis         ... NOT available
Auxiliary 'external' fitting basis          ... NOT available
Integral threshold                          ...     2.500000e-11
Primitive cut-off                           ...     2.500000e-12
Primitive pair pre-selection threshold      ...     2.500000e-12

Calculating pre-screening integrals         ... done (  0.0 sec) Dimension = 72
Organizing shell pair data                  ... done (  0.0 sec)
Shell pair information
Total number of shell pairs                 ...      2628
Shell pairs after pre-screening             ...      2502
Total number of primitive shell pairs       ...      9166
Primitive shell pairs kept                  ...      6606
          la=0 lb=0:    825 shell pairs
          la=1 lb=0:    938 shell pairs
          la=1 lb=1:    277 shell pairs
          la=2 lb=0:    273 shell pairs
          la=2 lb=1:    162 shell pairs
          la=2 lb=2:     27 shell pairs

Calculating one electron integrals          ... done (  0.0 sec)
Calculating RI/J V-Matrix + Cholesky decomp.... done (  0.0 sec)
Calculating Nuclear repulsion               ... done (  0.0 sec) ENN=    312.756846076044 Eh

SHARK setup successfully completed in   0.3 seconds

Maximum memory used throughout the entire GTOINT-calculation: 11.2 MB


           ************************************************************
           *        Program running with 4 parallel MPI-processes     *
           *              working on a common directory               *
           ************************************************************
-------------------------------------------------------------------------------
                                 ORCA SCF
-------------------------------------------------------------------------------

------------
SCF SETTINGS
------------
Hamiltonian:
 Density Functional     Method          .... DFT(GTOs)
 Exchange Functional    Exchange        .... WB97X
 Correlation Functional Correlation     .... WB97X
 Gradients option       PostSCFGGA      .... off
 Hybrid DFT is turned on
   Fraction HF Exchange ScalHFX         ....  0.157706
   Scaling of DF-GGA-X  ScalDFX         ....  0.000000
   Scaling of DF-GGA-C  ScalDFC         ....  1.000000
   Scaling of DF-LDA-C  ScalLDAC        ....  1.000000
   Perturbative correction              ....  0.000000
   Density functional embedding theory  .... OFF
 Long-range corrected/Screened/Range-Separated Hybrid DFT is turned on
   Amount of maximum screened exact exchange              ....  0.842294
   Range separation parameter mu (erf(mu*r12)/r12)        ....  0.300000
 RI-approximation to the Coulomb term is turned on
   Number of AuxJ basis functions       .... 453
   RIJ-COSX (HFX calculated with COS-X)).... on


General Settings:
 Integral files         IntName         .... 9_Gas
 Hartree-Fock type      HFTyp           .... RHF
 Total Charge           Charge          ....    0
 Multiplicity           Mult            ....    1
 Number of Electrons    NEL             ....   54
 Basis Dimension        Dim             ....  148
 Nuclear Repulsion      ENuc            ....    312.7568460760 Eh

Convergence Acceleration:
 DIIS                   CNVDIIS         .... on
   Start iteration      DIISMaxIt       ....     0
   Startup error        DIISStart       ....  0.200000
   # of expansion vecs  DIISMaxEq       ....     5
   Bias factor          DIISBfac        ....   1.050
   Max. coefficient     DIISMaxC        ....  10.000
 Trust-Rad. Augm. Hess. CNVTRAH         .... auto
   Auto Start mean grad. ratio tolernc. ....  1.125000
   Auto Start start iteration           ....    20
   Auto Start num. interpolation iter.  ....    10
   Max. Number of Micro iterations      ....    16
   Max. Number of Macro iterations      .... Maxiter - #DIIS iter
   Number of Davidson start vectors     ....     2
   Converg. threshold I  (grad. norm)   ....   1.000e-05
   Converg. threshold II (energy diff.) ....   1.000e-08
   Grad. Scal. Fac. for Micro threshold ....   0.100
   Minimum threshold for Micro iter.    ....   0.010
   NR start threshold (gradient norm)   ....   0.001
   Initial trust radius                 ....   0.400
   Minimum AH scaling param. (alpha)    ....   1.000
   Maximum AH scaling param. (alpha)    .... 1000.000
   Orbital update algorithm             .... Taylor
   White noise on init. David. guess    .... on
   Maximum white noise                  ....   0.010
   Quad. conv. algorithm                .... NR
 SOSCF                  CNVSOSCF        .... on
   Start iteration      SOSCFMaxIt      ....   150
   Startup grad/error   SOSCFStart      ....  0.001000
 Level Shifting         CNVShift        .... on
   Level shift para.    LevelShift      ....    0.2500
   Turn off err/grad.   ShiftErr        ....    0.0000
 Zerner damping         CNVZerner       .... off
 Static damping         CNVDamp         .... on
   Fraction old density DampFac         ....    0.8500
   Max. Damping (<1)    DampMax         ....    0.9800
   Min. Damping (>=0)   DampMin         ....    0.0000
   Turn off err/grad.   DampErr         ....    0.0300
 Fernandez-Rico         CNVRico         .... off

SCF Procedure:
 Maximum # iterations   MaxIter         ....   125
 SCF integral mode      SCFMode         .... Direct
   Integral package                     .... SHARK and LIBINT hybrid scheme
 Reset frequency        DirectResetFreq ....    20
 Integral Threshold     Thresh          ....  2.500e-11 Eh
 Primitive CutOff       TCut            ....  2.500e-12 Eh

Convergence Tolerance:
 Convergence Check Mode ConvCheckMode   .... Total+1el-Energy
 Convergence forced     ConvForced      .... 0
 Energy Change          TolE            ....  1.000e-08 Eh
 1-El. energy change                    ....  1.000e-05 Eh
 Orbital Gradient       TolG            ....  1.000e-05
 Orbital Rotation angle TolX            ....  1.000e-05
 DIIS Error             TolErr          ....  5.000e-07


Diagonalization of the overlap matrix:
Smallest eigenvalue                        ... 1.759e-03
Time for diagonalization                   ...    0.004 sec
Threshold for overlap eigenvalues          ... 1.000e-08
Number of eigenvalues below threshold      ... 0
Time for construction of square roots      ...    0.003 sec
Total time needed                          ...    0.007 sec

Time for model grid setup =    0.080 sec

------------------------------
INITIAL GUESS: MODEL POTENTIAL
------------------------------
Loading Hartree-Fock densities                     ... done
Calculating cut-offs                               ... done
Initializing the effective Hamiltonian             ... done
Setting up the integral package (SHARK)            ... done
Starting the Coulomb interaction                   ... done (   0.0 sec)
Reading the grid                                   ... done
Mapping shells                                     ... done
Starting the XC term evaluation                    ... done (   0.1 sec)
  promolecular density results
     # of electrons  =     53.995785574
     EX              =    -41.602127632
     EC              =     -1.781853108
     EX+EC           =    -43.383980740
Transforming the Hamiltonian                       ... done (   0.0 sec)
Diagonalizing the Hamiltonian                      ... done (   0.0 sec)
Back transforming the eigenvectors                 ... done (   0.0 sec)
Now organizing SCF variables                       ... done
                      ------------------
                      INITIAL GUESS DONE (   0.2 sec)
                      ------------------
-------------------
DFT GRID GENERATION
-------------------

General Integration Accuracy     IntAcc      ... 4.388
Radial Grid Type                 RadialGrid  ... OptM3 with GC (2021)
Angular Grid (max. ang.)         AngularGrid ... 4 (Lebedev-302)
Angular grid pruning method      GridPruning ... 4 (adaptive)
Weight generation scheme         WeightScheme... Becke
Basis function cutoff            BFCut       ... 1.0000e-11
Integration weight cutoff        WCut        ... 1.0000e-14
Angular grids for H and He will be reduced by one unit
Partially contracted basis set               ... off
Rotationally invariant grid construction     ... off

Total number of grid points                  ...    74245
Total number of batches                      ...     1168
Average number of points per batch           ...       63
Average number of grid points per atom       ...     4367
Time for grid setup =    0.365 sec

--------------------
COSX GRID GENERATION
--------------------

GRIDX 1
-------
General Integration Accuracy     IntAcc      ... 3.816
Radial Grid Type                 RadialGrid  ... OptM3 with GC (2021)
Angular Grid (max. ang.)         AngularGrid ... 1 (Lebedev-50)
Angular grid pruning method      GridPruning ... 4 (adaptive)
Weight generation scheme         WeightScheme... Becke
Basis function cutoff            BFCut       ... 1.0000e-11
Integration weight cutoff        WCut        ... 1.0000e-14
Angular grids for H and He will be reduced by one unit
Partially contracted basis set               ... on
Rotationally invariant grid construction     ... off

Total number of grid points                  ...     9539
Total number of batches                      ...      160
Average number of points per batch           ...       59
Average number of grid points per atom       ...      561
UseSFitting                                  ... on

GRIDX 2
-------
General Integration Accuracy     IntAcc      ... 4.020
Radial Grid Type                 RadialGrid  ... OptM3 with GC (2021)
Angular Grid (max. ang.)         AngularGrid ... 2 (Lebedev-110)
Angular grid pruning method      GridPruning ... 4 (adaptive)
Weight generation scheme         WeightScheme... Becke
Basis function cutoff            BFCut       ... 1.0000e-11
Integration weight cutoff        WCut        ... 1.0000e-14
Angular grids for H and He will be reduced by one unit
Partially contracted basis set               ... on
Rotationally invariant grid construction     ... off

Total number of grid points                  ...    20169
Total number of batches                      ...      323
Average number of points per batch           ...       62
Average number of grid points per atom       ...     1186
UseSFitting                                  ... on

GRIDX 3
-------
General Integration Accuracy     IntAcc      ... 4.338
Radial Grid Type                 RadialGrid  ... OptM3 with GC (2021)
Angular Grid (max. ang.)         AngularGrid ... 3 (Lebedev-194)
Angular grid pruning method      GridPruning ... 4 (adaptive)
Weight generation scheme         WeightScheme... Becke
Basis function cutoff            BFCut       ... 1.0000e-11
Integration weight cutoff        WCut        ... 1.0000e-14
Angular grids for H and He will be reduced by one unit
Partially contracted basis set               ... on
Rotationally invariant grid construction     ... off

Total number of grid points                  ...    44214
Total number of batches                      ...      701
Average number of points per batch           ...       63
Average number of grid points per atom       ...     2601
UseSFitting                                  ... on

Time for X-Grid setup             =    0.655 sec

--------------
SCF ITERATIONS
--------------
ITER       Energy         Delta-E        Max-DP      RMS-DP      [F,P]     Damp
               ***  Starting incremental Fock matrix formation  ***
  0   -305.5668178900   0.000000000000 0.03479888  0.00086564  0.1298305 0.8500
  1   -305.5940481124  -0.027230222371 0.03718214  0.00084477  0.1060576 0.8500
                               ***Turning on DIIS***
  2   -305.6149830001  -0.020934887709 0.03277632  0.00069928  0.0828355 0.8500
  3   -305.6306757934  -0.015692793264 0.02664856  0.00049789  0.0639827 0.8500
  4   -305.6428691033  -0.012193309917 0.02191823  0.00037741  0.0514218 0.8500
  5   -305.6525234001  -0.009654296775 0.01840761  0.00030742  0.0427070 0.8500
  6   -305.6603991351  -0.007875735008 0.01566128  0.00025866  0.0360328 0.8500
  7   -305.6669346405  -0.006535505483 0.01349257  0.00022298  0.0306006 0.8500
  8   -305.6724135117  -0.005478871192 0.07797599  0.00128102  0.0259579 0.0000
  9   -305.7020876944  -0.029674182629 0.00154388  0.00005456  0.0015372 0.0000
                      *** Initiating the SOSCF procedure ***
                           *** Shutting down DIIS ***
                      *** Re-Reading the Fockian *** 
                      *** Removing any level shift *** 
ITER      Energy       Delta-E        Grad      Rot      Max-DP    RMS-DP
 10   -305.70210296  -0.0000152639  0.000371  0.000371  0.000718  0.000026
               *** Restarting incremental Fock matrix formation ***
 11   -305.70211673  -0.0000137754  0.000344  0.000624  0.001017  0.000020
 12   -305.70211772  -0.0000009906  0.000059  0.000308  0.000344  0.000015
 13   -305.70211793  -0.0000002070  0.000034  0.000055  0.000116  0.000004
 14   -305.70211797  -0.0000000392  0.000004  0.000005  0.000014  0.000001
                  ***Gradient check signals convergence***
              ***Rediagonalizing the Fockian in SOSCF/NRSCF***

               *****************************************************
               *                     SUCCESS                       *
               *           SCF CONVERGED AFTER  15 CYCLES          *
               *****************************************************

Old exchange energy                            =    -13.834163424 Eh
New exchange energy                            =    -13.834170576 Eh
Exchange energy change after final integration =     -0.000007151 Eh
Total energy after final integration           =   -305.702125120 Eh
Final COS-X integration done in                =     4.117 sec

----------------
TOTAL SCF ENERGY
----------------

Total Energy       :         -305.70212512 Eh           -8318.57773 eV

Components:
Nuclear Repulsion  :          312.75684608 Eh            8510.54645 eV
Electronic Energy  :         -618.45897120 Eh          -16829.12418 eV
One Electron Energy:        -1031.26971411 Eh          -28062.27558 eV
Two Electron Energy:          412.81074291 Eh           11233.15140 eV
Max COSX asymmetry :            0.00000215 Eh               0.00006 eV

Virial components:
Potential Energy   :         -607.88595809 Eh          -16541.41787 eV
Kinetic Energy     :          302.18383297 Eh            8222.84014 eV
Virial Ratio       :            2.01164289


DFT components:
N(Alpha)           :       26.999979246892 electrons
N(Beta)            :       26.999979246892 electrons
N(Total)           :       53.999958493784 electrons
E(XC)              :      -30.738282040330 Eh       
DFET-embed. en.    :        0.000000000000 Eh       

---------------
SCF CONVERGENCE
---------------

  Last Energy change         ...    1.7500e-09  Tolerance :   1.0000e-08
  Last MAX-Density change    ...    3.5527e-15  Tolerance :   1.0000e-07
  Last RMS-Density change    ...    4.7583e-17  Tolerance :   5.0000e-09
  Last Orbital Gradient      ...    1.8780e-06  Tolerance :   1.0000e-05
  Last Orbital Rotation      ...    2.5963e-06  Tolerance :   1.0000e-05

             **** THE GBW FILE WAS UPDATED (9_Gas.gbw) ****
             **** DENSITY 9_Gas.scfp WAS UPDATED ****
             **** ENERGY FILE WAS UPDATED (9_Gas.en.tmp) ****
             **** THE GBW FILE WAS UPDATED (9_Gas.gbw) ****
             **** DENSITY 9_Gas.scfp WAS UPDATED ****
----------------
ORBITAL ENERGIES
----------------

  NO   OCC          E(Eh)            E(eV) 
   0   2.0000     -14.415803      -392.2739 
   1   2.0000     -14.415794      -392.2737 
   2   2.0000     -10.307362      -280.4776 
   3   2.0000     -10.307344      -280.4771 
   4   2.0000     -10.292168      -280.0641 
   5   2.0000     -10.292134      -280.0632 
   6   2.0000     -10.269931      -279.4590 
   7   2.0000      -1.108764       -30.1710 
   8   2.0000      -1.009870       -27.4800 
   9   2.0000      -0.886394       -24.1200 
  10   2.0000      -0.842836       -22.9347 
  11   2.0000      -0.791336       -21.5333 
  12   2.0000      -0.725959       -19.7543 
  13   2.0000      -0.659185       -17.9373 
  14   2.0000      -0.613892       -16.7048 
  15   2.0000      -0.609892       -16.5960 
  16   2.0000      -0.568350       -15.4656 
  17   2.0000      -0.549630       -14.9562 
  18   2.0000      -0.527095       -14.3430 
  19   2.0000      -0.517631       -14.0855 
  20   2.0000      -0.514218       -13.9926 
  21   2.0000      -0.477496       -12.9933 
  22   2.0000      -0.473540       -12.8857 
  23   2.0000      -0.467064       -12.7095 
  24   2.0000      -0.417122       -11.3505 
  25   2.0000      -0.305562        -8.3148 
  26   2.0000      -0.298171        -8.1136 
  27   0.0000       0.134300         3.6545 
  28   0.0000       0.140003         3.8097 
  29   0.0000       0.159755         4.3472 
  30   0.0000       0.195119         5.3095 
  31   0.0000       0.198727         5.4076 
  32   0.0000       0.211776         5.7627 
  33   0.0000       0.221473         6.0266 
  34   0.0000       0.229492         6.2448 
  35   0.0000       0.236031         6.4227 
  36   0.0000       0.238778         6.4975 
  37   0.0000       0.246427         6.7056 
  38   0.0000       0.272724         7.4212 
  39   0.0000       0.279643         7.6095 
  40   0.0000       0.305768         8.3204 
  41   0.0000       0.306972         8.3531 
  42   0.0000       0.392890        10.6911 
  43   0.0000       0.393632        10.7113 
  44   0.0000       0.468779        12.7561 
  45   0.0000       0.476824        12.9750 
  46   0.0000       0.519005        14.1228 
  47   0.0000       0.534272        14.5383 
  48   0.0000       0.541854        14.7446 
  49   0.0000       0.567171        15.4335 
  50   0.0000       0.577361        15.7108 
  51   0.0000       0.597774        16.2662 
  52   0.0000       0.601011        16.3543 
  53   0.0000       0.644637        17.5415 
  54   0.0000       0.684183        18.6176 
  55   0.0000       0.693041        18.8586 
  56   0.0000       0.705187        19.1891 
  57   0.0000       0.716773        19.5044 
  58   0.0000       0.741878        20.1875 
  59   0.0000       0.742803        20.2127 
  60   0.0000       0.765558        20.8319 
  61   0.0000       0.772077        21.0093 
  62   0.0000       0.776798        21.1377 
  63   0.0000       0.783495        21.3200 
  64   0.0000       0.788290        21.4505 
  65   0.0000       0.794327        21.6147 
  66   0.0000       0.795423        21.6446 
  67   0.0000       0.799587        21.7579 
  68   0.0000       0.807640        21.9770 
  69   0.0000       0.814080        22.1522 
  70   0.0000       0.820881        22.3373 
  71   0.0000       0.860770        23.4227 
  72   0.0000       0.918830        25.0026 
  73   0.0000       0.969542        26.3826 
  74   0.0000       0.980930        26.6925 
  75   0.0000       1.070436        29.1280 
  76   0.0000       1.106940        30.1214 
  77   0.0000       1.125507        30.6266 
  78   0.0000       1.133239        30.8370 
  79   0.0000       1.226376        33.3714 
  80   0.0000       1.244837        33.8737 
  81   0.0000       1.282086        34.8873 
  82   0.0000       1.346001        36.6265 
  83   0.0000       1.360132        37.0111 
  84   0.0000       1.447118        39.3781 
  85   0.0000       1.450305        39.4648 
  86   0.0000       1.538338        41.8603 
  87   0.0000       1.563758        42.5520 
  88   0.0000       1.641645        44.6714 
  89   0.0000       1.644729        44.7553 
  90   0.0000       1.648362        44.8542 
  91   0.0000       1.683154        45.8009 
  92   0.0000       1.734618        47.2014 
  93   0.0000       1.740624        47.3648 
  94   0.0000       1.781934        48.4889 
  95   0.0000       1.794308        48.8256 
  96   0.0000       1.838337        50.0237 
  97   0.0000       1.841343        50.1055 
  98   0.0000       1.881140        51.1884 
  99   0.0000       1.891297        51.4648 
 100   0.0000       1.894275        51.5458 
 101   0.0000       1.894911        51.5631 
 102   0.0000       1.900035        51.7026 
 103   0.0000       1.931228        52.5514 
 104   0.0000       1.933782        52.6209 
 105   0.0000       1.941969        52.8437 
 106   0.0000       1.956704        53.2446 
 107   0.0000       2.032734        55.3135 
 108   0.0000       2.044496        55.6336 
 109   0.0000       2.058222        56.0071 
 110   0.0000       2.113548        57.5126 
 111   0.0000       2.127779        57.8998 
 112   0.0000       2.134370        58.0792 
 113   0.0000       2.141972        58.2860 
 114   0.0000       2.188180        59.5434 
 115   0.0000       2.229791        60.6757 
 116   0.0000       2.249389        61.2090 
 117   0.0000       2.341635        63.7191 
 118   0.0000       2.350857        63.9701 
 119   0.0000       2.357314        64.1458 
 120   0.0000       2.403294        65.3970 
 121   0.0000       2.427003        66.0421 
 122   0.0000       2.444410        66.5158 
 123   0.0000       2.489918        67.7541 
 124   0.0000       2.524819        68.7038 
 125   0.0000       2.542842        69.1943 
 126   0.0000       2.596176        70.6455 
 127   0.0000       2.627174        71.4890 
 128   0.0000       2.663329        72.4729 
 129   0.0000       2.745649        74.7129 
 130   0.0000       2.776548        75.5537 
 131   0.0000       2.800343        76.2012 
 132   0.0000       2.803207        76.2791 
 133   0.0000       2.854235        77.6677 
 134   0.0000       2.889454        78.6260 
 135   0.0000       2.948371        80.2292 
 136   0.0000       2.977696        81.0272 
 137   0.0000       2.996593        81.5414 
 138   0.0000       3.017218        82.1027 
 139   0.0000       3.036290        82.6217 
 140   0.0000       3.067393        83.4680 
 141   0.0000       3.076072        83.7042 
 142   0.0000       3.098093        84.3034 
 143   0.0000       3.169446        86.2450 
 144   0.0000       3.198144        87.0259 
 145   0.0000       3.235822        88.0512 
 146   0.0000       3.404578        92.6433 
 147   0.0000       3.423669        93.1628 

                    ********************************
                    * MULLIKEN POPULATION ANALYSIS *
                    ********************************

-----------------------
MULLIKEN ATOMIC CHARGES
-----------------------
   0 C :    0.118156
   1 C :    0.118158
   2 N :   -0.361546
   3 N :   -0.361546
   4 C :   -0.060783
   5 H :    0.029024
   6 H :    0.029024
   7 C :    0.128023
   8 C :    0.128023
   9 H :    0.020024
  10 H :    0.020024
  11 H :    0.050759
  12 H :    0.050759
  13 H :    0.018579
  14 H :    0.018579
  15 H :    0.027370
  16 H :    0.027370
Sum of atomic charges:   -0.0000000

--------------------------------
MULLIKEN REDUCED ORBITAL CHARGES
--------------------------------
  0 C s       :     2.972290  s :     2.972290
      pz      :     0.842231  p :     2.864240
      px      :     1.024237
      py      :     0.997772
      dz2     :     0.013125  d :     0.045315
      dxz     :     0.012064
      dyz     :     0.006615
      dx2y2   :     0.007073
      dxy     :     0.006436
  1 C s       :     2.972289  s :     2.972289
      pz      :     0.842231  p :     2.864238
      px      :     1.024237
      py      :     0.997771
      dz2     :     0.013125  d :     0.045315
      dxz     :     0.012064
      dyz     :     0.006615
      dx2y2   :     0.007073
      dxy     :     0.006436
  2 N s       :     3.425447  s :     3.425447
      pz      :     1.113633  p :     3.907258
      px      :     1.646652
      py      :     1.146973
      dz2     :     0.008957  d :     0.028841
      dxz     :     0.002906
      dyz     :     0.008006
      dx2y2   :     0.004929
      dxy     :     0.004044
  3 N s       :     3.425447  s :     3.425447
      pz      :     1.113633  p :     3.907258
      px      :     1.646652
      py      :     1.146973
      dz2     :     0.008957  d :     0.028841
      dxz     :     0.002906
      dyz     :     0.008006
      dx2y2   :     0.004929
      dxy     :     0.004044
  4 C s       :     3.606288  s :     3.606288
      pz      :     1.155233  p :     2.383906
      px      :     0.551651
      py      :     0.677022
      dz2     :     0.008010  d :     0.070589
      dxz     :     0.010258
      dyz     :     0.027677
      dx2y2   :     0.008214
      dxy     :     0.016429
  5 H s       :     0.948926  s :     0.948926
      pz      :     0.006008  p :     0.022049
      px      :     0.010887
      py      :     0.005154
  6 H s       :     0.948927  s :     0.948927
      pz      :     0.006008  p :     0.022049
      px      :     0.010887
      py      :     0.005154
  7 C s       :     2.974975  s :     2.974975
      pz      :     1.032334  p :     2.856353
      px      :     1.006905
      py      :     0.817114
      dz2     :     0.008436  d :     0.040649
      dxz     :     0.002832
      dyz     :     0.006466
      dx2y2   :     0.008909
      dxy     :     0.014007
  8 C s       :     2.974975  s :     2.974975
      pz      :     1.032334  p :     2.856353
      px      :     1.006905
      py      :     0.817113
      dz2     :     0.008436  d :     0.040649
      dxz     :     0.002832
      dyz     :     0.006466
      dx2y2   :     0.008909
      dxy     :     0.014007
  9 H s       :     0.957103  s :     0.957103
      pz      :     0.005990  p :     0.022873
      px      :     0.011559
      py      :     0.005324
 10 H s       :     0.957103  s :     0.957103
      pz      :     0.005990  p :     0.022873
      px      :     0.011559
      py      :     0.005324
 11 H s       :     0.925854  s :     0.925854
      pz      :     0.015779  p :     0.023387
      px      :     0.004893
      py      :     0.002715
 12 H s       :     0.925854  s :     0.925854
      pz      :     0.015779  p :     0.023387
      px      :     0.004893
      py      :     0.002715
 13 H s       :     0.958545  s :     0.958545
      pz      :     0.005254  p :     0.022876
      px      :     0.012075
      py      :     0.005547
 14 H s       :     0.958545  s :     0.958545
      pz      :     0.005255  p :     0.022876
      px      :     0.012075
      py      :     0.005547
 15 H s       :     0.950770  s :     0.950770
      pz      :     0.004237  p :     0.021860
      px      :     0.012615
      py      :     0.005009
 16 H s       :     0.950770  s :     0.950770
      pz      :     0.004237  p :     0.021860
      px      :     0.012615
      py      :     0.005009


                     *******************************
                     * LOEWDIN POPULATION ANALYSIS *
                     *******************************

----------------------
LOEWDIN ATOMIC CHARGES
----------------------
   0 C :    0.034883
   1 C :    0.034884
   2 N :   -0.065902
   3 N :   -0.065902
   4 C :   -0.199352
   5 H :    0.020667
   6 H :    0.020667
   7 C :    0.027367
   8 C :    0.027367
   9 H :    0.015302
  10 H :    0.015301
  11 H :    0.035311
  12 H :    0.035311
  13 H :    0.014183
  14 H :    0.014183
  15 H :    0.017866
  16 H :    0.017866

-------------------------------
LOEWDIN REDUCED ORBITAL CHARGES
-------------------------------
  0 C s       :     2.840980  s :     2.840980
      pz      :     0.917264  p :     3.014484
      px      :     1.076044
      py      :     1.021176
      dz2     :     0.032207  d :     0.109652
      dxz     :     0.029568
      dyz     :     0.014235
      dx2y2   :     0.019023
      dxy     :     0.014620
  1 C s       :     2.840980  s :     2.840980
      pz      :     0.917264  p :     3.014484
      px      :     1.076044
      py      :     1.021176
      dz2     :     0.032207  d :     0.109652
      dxz     :     0.029568
      dyz     :     0.014235
      dx2y2   :     0.019023
      dxy     :     0.014620
  2 N s       :     3.078776  s :     3.078776
      pz      :     1.160722  p :     3.920223
      px      :     1.574451
      py      :     1.185051
      dz2     :     0.022296  d :     0.066903
      dxz     :     0.005087
      dyz     :     0.022007
      dx2y2   :     0.010567
      dxy     :     0.006945
  3 N s       :     3.078776  s :     3.078776
      pz      :     1.160722  p :     3.920224
      px      :     1.574451
      py      :     1.185051
      dz2     :     0.022296  d :     0.066903
      dxz     :     0.005087
      dyz     :     0.022007
      dx2y2   :     0.010567
      dxy     :     0.006945
  4 C s       :     3.194213  s :     3.194213
      pz      :     1.398282  p :     2.851265
      px      :     0.609220
      py      :     0.843762
      dz2     :     0.013670  d :     0.153874
      dxz     :     0.015350
      dyz     :     0.064355
      dx2y2   :     0.023604
      dxy     :     0.036896
  5 H s       :     0.913108  s :     0.913108
      pz      :     0.019576  p :     0.066225
      px      :     0.029846
      py      :     0.016804
  6 H s       :     0.913108  s :     0.913108
      pz      :     0.019576  p :     0.066225
      px      :     0.029846
      py      :     0.016804
  7 C s       :     2.827145  s :     2.827145
      pz      :     1.068352  p :     3.044277
      px      :     1.068587
      py      :     0.907338
      dz2     :     0.022623  d :     0.101211
      dxz     :     0.006614
      dyz     :     0.015094
      dx2y2   :     0.021240
      dxy     :     0.035640
  8 C s       :     2.827145  s :     2.827145
      pz      :     1.068352  p :     3.044277
      px      :     1.068587
      py      :     0.907338
      dz2     :     0.022623  d :     0.101211
      dxz     :     0.006614
      dyz     :     0.015094
      dx2y2   :     0.021240
      dxy     :     0.035640
  9 H s       :     0.920846  s :     0.920846
      pz      :     0.016367  p :     0.063853
      px      :     0.030901
      py      :     0.016584
 10 H s       :     0.920846  s :     0.920846
      pz      :     0.016367  p :     0.063853
      px      :     0.030901
      py      :     0.016584
 11 H s       :     0.898273  s :     0.898273
      pz      :     0.044448  p :     0.066416
      px      :     0.012607
      py      :     0.009361
 12 H s       :     0.898273  s :     0.898273
      pz      :     0.044448  p :     0.066416
      px      :     0.012607
      py      :     0.009361
 13 H s       :     0.921905  s :     0.921905
      pz      :     0.014136  p :     0.063912
      px      :     0.032397
      py      :     0.017380
 14 H s       :     0.921905  s :     0.921905
      pz      :     0.014136  p :     0.063912
      px      :     0.032397
      py      :     0.017380
 15 H s       :     0.916190  s :     0.916190
      pz      :     0.014715  p :     0.065945
      px      :     0.034847
      py      :     0.016383
 16 H s       :     0.916190  s :     0.916190
      pz      :     0.014715  p :     0.065944
      px      :     0.034847
      py      :     0.016383


                      *****************************
                      * MAYER POPULATION ANALYSIS *
                      *****************************

  NA   - Mulliken gross atomic population
  ZA   - Total nuclear charge
  QA   - Mulliken gross atomic charge
  VA   - Mayer's total valence
  BVA  - Mayer's bonded valence
  FA   - Mayer's free valence

  ATOM       NA         ZA         QA         VA         BVA        FA
  0 C      5.8818     6.0000     0.1182     4.0081     4.0081    -0.0000
  1 C      5.8818     6.0000     0.1182     4.0081     4.0081     0.0000
  2 N      7.3615     7.0000    -0.3615     3.2583     3.2583    -0.0000
  3 N      7.3615     7.0000    -0.3615     3.2583     3.2583    -0.0000
  4 C      6.0608     6.0000    -0.0608     2.6368     2.6368    -0.0000
  5 H      0.9710     1.0000     0.0290     0.9838     0.9838    -0.0000
  6 H      0.9710     1.0000     0.0290     0.9838     0.9838    -0.0000
  7 C      5.8720     6.0000     0.1280     3.9093     3.9093    -0.0000
  8 C      5.8720     6.0000     0.1280     3.9093     3.9093    -0.0000
  9 H      0.9800     1.0000     0.0200     0.9895     0.9895    -0.0000
 10 H      0.9800     1.0000     0.0200     0.9895     0.9895    -0.0000
 11 H      0.9492     1.0000     0.0508     1.0197     1.0197    -0.0000
 12 H      0.9492     1.0000     0.0508     1.0197     1.0197    -0.0000
 13 H      0.9814     1.0000     0.0186     0.9900     0.9900     0.0000
 14 H      0.9814     1.0000     0.0186     0.9900     0.9900    -0.0000
 15 H      0.9726     1.0000     0.0274     0.9814     0.9814    -0.0000
 16 H      0.9726     1.0000     0.0274     0.9814     0.9814    -0.0000

  Mayer bond orders larger than 0.100000
B(  0-C ,  1-C ) :   1.1016 B(  0-C ,  2-N ) :   0.9430 B(  0-C ,  5-H ) :   0.9585 
B(  0-C , 15-H ) :   0.9496 B(  1-C ,  3-N ) :   0.9430 B(  1-C ,  6-H ) :   0.9585 
B(  1-C , 16-H ) :   0.9496 B(  2-N ,  4-C ) :   1.2455 B(  2-N ,  7-C ) :   0.9808 
B(  3-N ,  4-C ) :   1.2455 B(  3-N ,  8-C ) :   0.9808 B(  7-C ,  9-H ) :   0.9768 
B(  7-C , 11-H ) :   0.9739 B(  7-C , 13-H ) :   0.9747 B(  8-C , 10-H ) :   0.9768 
B(  8-C , 12-H ) :   0.9739 B(  8-C , 14-H ) :   0.9747 

-------
TIMINGS
-------

Total SCF time: 0 days 0 hours 0 min 29 sec 

Total time                  ....      29.885 sec
Sum of individual times     ....      29.652 sec  ( 99.2%)

Fock matrix formation       ....      28.028 sec  ( 93.8%)
  Split-RI-J                ....       1.272 sec  (  4.5% of F)
  Chain of spheres X        ....      22.309 sec  ( 79.6% of F)
  XC integration            ....       3.562 sec  ( 12.7% of F)
    Basis function eval.    ....       1.167 sec  ( 32.8% of XC)
    Density eval.           ....       0.629 sec  ( 17.7% of XC)
    XC-Functional eval.     ....       0.501 sec  ( 14.1% of XC)
    XC-Potential eval.      ....       0.748 sec  ( 21.0% of XC)
Diagonalization             ....       0.048 sec  (  0.2%)
Density matrix formation    ....       0.163 sec  (  0.5%)
Population analysis         ....       0.031 sec  (  0.1%)
Initial guess               ....       0.101 sec  (  0.3%)
Orbital Transformation      ....       0.000 sec  (  0.0%)
Orbital Orthonormalization  ....       0.000 sec  (  0.0%)
DIIS solution               ....       0.040 sec  (  0.1%)
SOSCF solution              ....       0.142 sec  (  0.5%)
Grid generation             ....       1.100 sec  (  3.7%)

Maximum memory used throughout the entire SCF-calculation: 51.9 MB


-------------------------------------------------------------------------------
                          DFT DISPERSION CORRECTION                            
                                                                               
                                 DFTD4 V2.5                                    
-------------------------------------------------------------------------------
The WB97X functional is recognized
Active option DFTDOPT                   ...         5   

Starting D4
-------------------------   ----------------
Dispersion correction           -0.001936171
-------------------------   ----------------


-------------------------   --------------------
FINAL SINGLE POINT ENERGY      -305.704061291420
-------------------------   --------------------



           ************************************************************
           *        Program running with 4 parallel MPI-processes     *
           *              working on a common directory               *
           ************************************************************
------------------------------------------------------------------------------
                         ORCA SCF GRADIENT CALCULATION
------------------------------------------------------------------------------

 ... reading COSX grid (gridx3)
Gradient of the Kohn-Sham DFT energy:
Kohn-Sham wavefunction type      ... RKS
Hartree-Fock exchange scaling    ...    0.158
Number of operators              ...    1
Number of atoms                  ...   17
Basis set dimensions             ...  148
Integral neglect threshold       ... 2.5e-11
Integral primitive cutoff        ... 2.5e-12
SHARK Integral package           ... ON

Nuc. rep. gradient       (SHARK) ... done (  0.0 sec)
HCore & Overlap gradient (SHARK) ... done (  0.0 sec)
RI-J gradient            (SHARK) ... done (  0.3 sec)
COSX-gradient                    ... done (  4.2 sec)
Exchange-correlation gradient    ... done
Dispersion correction            ... Starting D4
Starting D4
Starting D4
Starting D4


------------------- 
Dispersion Gradient 
------------------- 
   1  :    0.000000787    0.000013179   -0.000024864
   2  :   -0.000000787   -0.000013179   -0.000024864
   3  :   -0.000001458    0.000013180    0.000000614
   4  :    0.000001458   -0.000013180    0.000000614
   5  :   -0.000000000    0.000000000    0.000007643
   6  :    0.000000051    0.000002169   -0.000000660
   7  :   -0.000000051   -0.000002169   -0.000000660
   8  :   -0.000002455    0.000044785    0.000012440
   9  :    0.000002455   -0.000044785    0.000012440
  10  :    0.000000209    0.000006842    0.000003508
  11  :   -0.000000209   -0.000006842    0.000003508
  12  :   -0.000000683    0.000007844    0.000001924
  13  :    0.000000683   -0.000007844    0.000001924
  14  :   -0.000001774    0.000006805    0.000003364
  15  :    0.000001774   -0.000006805    0.000003364
  16  :   -0.000001285    0.000001788   -0.000000147
  17  :    0.000001285   -0.000001788   -0.000000147

  |G| =    0.000071131

done

------------------
CARTESIAN GRADIENT
------------------

   1   C   :    0.000801329    0.005252622   -0.013028771
   2   C   :   -0.000801336   -0.005252641   -0.013028722
   3   N   :   -0.001914898    0.000018160    0.005428918
   4   N   :    0.001914915   -0.000018175    0.005428784
   5   C   :   -0.000000036   -0.000000002    0.002569919
   6   H   :    0.004267683   -0.002363290    0.002727875
   7   H   :   -0.004267714    0.002363298    0.002727869
   8   C   :   -0.000293928    0.008648520    0.004974636
   9   C   :    0.000293954   -0.008648568    0.004974604
  10   H   :    0.003878656   -0.002208529    0.001785408
  11   H   :   -0.003878678    0.002208548    0.001785436
  12   H   :    0.000496419   -0.000135089   -0.005882402
  13   H   :   -0.000496431    0.000135118   -0.005882372
  14   H   :   -0.003687604   -0.002092308    0.000961817
  15   H   :    0.003687615    0.002092367    0.000961789
  16   H   :   -0.004367621   -0.002047737    0.001704168
  17   H   :    0.004367656    0.002047713    0.001704175

Difference to translation invariance:
           :   -0.0000000202    0.0000000080   -0.0000868706

Difference to rotation invariance:
           :    0.0000000378   -0.0000001006   -0.0008670131

Norm of the cartesian gradient     ...    0.0306053678
RMS gradient                       ...    0.0042856087
MAX gradient                       ...    0.0130287712

-------
TIMINGS
-------

Total SCF gradient time            ...        5.931 sec

One electron gradient       ....       0.047 sec  (  0.8%)
RI-J Coulomb gradient       ....       0.278 sec  (  4.7%)
COSX gradient               ....       4.236 sec  ( 71.4%)
XC gradient                 ....       0.945 sec  ( 15.9%)

Maximum memory used throughout the entire SCFGRAD-calculation: 40.1 MB
------------------------------------------------------------------------------
                         ORCA GEOMETRY RELAXATION STEP
------------------------------------------------------------------------------

Reading the OPT-File                    .... done
Getting information on internals        .... done
Copying old internal coords+grads       .... done
Making the new internal coordinates     .... (new redundants).... done
Validating the new internal coordinates .... (new redundants).... done
Calculating the B-matrix                .... done
Calculating the G,G- and P matrices     .... done
Transforming gradient to internals      .... done
Projecting the internal gradient        .... done
Number of atoms                         ....  17
Number of internal coordinates          ....  85
Current Energy                          ....  -305.704061291 Eh
Current gradient norm                   ....     0.030605368 Eh/bohr
Maximum allowed component of the step   ....  0.300
Current trust radius                    ....  0.300
Evaluating the initial hessian          ....  (Almloef) done
Projecting the Hessian                  .... done
Forming the augmented Hessian           .... done
Diagonalizing the augmented Hessian     .... done
Last element of RFO vector              ....  0.997722358
Lowest eigenvalues of augmented Hessian:
 -0.001311042  0.013017738  0.017881045  0.017882421  0.018997657
Length of the computed step             ....  0.067608392
The final length of the internal step   ....  0.067608392
Converting the step to cartesian space:
 Initial RMS(Int)=    0.0073331597
Transforming coordinates:
 Iter   0:  RMS(Cart)=    0.0120151999 RMS(Int)=    0.9622117614
 Iter   1:  RMS(Cart)=    0.0000496522 RMS(Int)=    0.0000317436
 Iter   2:  RMS(Cart)=    0.0000003494 RMS(Int)=    0.0000002655
 Iter   3:  RMS(Cart)=    0.0000000024 RMS(Int)=    0.0000000017
done
Storing new coordinates                 .... done

                                .--------------------.
          ----------------------|Geometry convergence|-------------------------
          Item                value                   Tolerance       Converged
          ---------------------------------------------------------------------
          RMS gradient        0.0024103781            0.0001000000      NO
          MAX gradient        0.0088733692            0.0003000000      NO
          RMS step            0.0073331597            0.0020000000      NO
          MAX step            0.0217404468            0.0040000000      NO
          ........................................................
          Max(Bonds)      0.0115      Max(Angles)    0.21
          Max(Dihed)        0.60      Max(Improp)    0.00
          ---------------------------------------------------------------------

The optimization has not yet converged - more geometry cycles are needed


    ---------------------------------------------------------------------------
                         Redundant Internal Coordinates
                            (Angstroem and degrees)

        Definition                    Value    dE/dq     Step     New-Value
    ----------------------------------------------------------------------------
     1. B(C   1,C   0)                1.5351  0.002899 -0.0039    1.5312   
     2. B(N   2,C   0)                1.4777  0.008873 -0.0115    1.4662   
     3. B(N   3,C   1)                1.4777  0.008873 -0.0115    1.4662   
     4. B(C   4,N   2)                1.3470  0.002556 -0.0022    1.3448   
     5. B(C   4,N   3)                1.3470  0.002556 -0.0022    1.3448   
     6. B(H   5,C   0)                1.0939 -0.005581  0.0083    1.1022   
     7. B(H   6,C   1)                1.0939 -0.005581  0.0083    1.1022   
     8. B(C   7,N   2)                1.4447  0.004570 -0.0053    1.4394   
     9. B(C   8,N   3)                1.4447  0.004570 -0.0053    1.4394   
    10. B(H   9,C   7)                1.0965 -0.004795  0.0072    1.1037   
    11. B(H  10,C   8)                1.0965 -0.004795  0.0072    1.1037   
    12. B(H  11,C   7)                1.0884 -0.005894  0.0086    1.0970   
    13. B(H  12,C   8)                1.0884 -0.005894  0.0086    1.0970   
    14. B(H  13,C   7)                1.0986 -0.004357  0.0066    1.1052   
    15. B(H  14,C   8)                1.0986 -0.004357  0.0066    1.1052   
    16. B(H  15,C   0)                1.0976 -0.005120  0.0077    1.1053   
    17. B(H  16,C   1)                1.0976 -0.005120  0.0077    1.1053   
    18. A(N   2,C   0,H   5)          111.37  0.000273   -0.09    111.28   
    19. A(C   1,C   0,H   5)          113.10 -0.000034    0.00    113.11   
    20. A(C   1,C   0,N   2)          101.62 -0.000169    0.04    101.67   
    21. A(C   1,C   0,H  15)          112.36 -0.000101    0.06    112.41   
    22. A(H   5,C   0,H  15)          107.91 -0.000024    0.00    107.91   
    23. A(N   2,C   0,H  15)          110.43  0.000062   -0.02    110.42   
    24. A(N   3,C   1,H  16)          110.43  0.000062   -0.02    110.42   
    25. A(H   6,C   1,H  16)          107.91 -0.000024    0.00    107.91   
    26. A(C   0,C   1,N   3)          101.62 -0.000169    0.04    101.67   
    27. A(C   0,C   1,H  16)          112.36 -0.000101    0.06    112.41   
    28. A(N   3,C   1,H   6)          111.37  0.000273   -0.09    111.28   
    29. A(C   0,C   1,H   6)          113.10 -0.000034    0.00    113.11   
    30. A(C   0,N   2,C   4)          114.71 -0.000334    0.05    114.76   
    31. A(C   4,N   2,C   7)          123.98 -0.000591    0.13    124.11   
    32. A(C   0,N   2,C   7)          120.40  0.000893   -0.09    120.31   
    33. A(C   4,N   3,C   8)          123.98 -0.000591    0.13    124.11   
    34. A(C   1,N   3,C   8)          120.40  0.000893   -0.09    120.31   
    35. A(C   1,N   3,C   4)          114.71 -0.000334    0.05    114.76   
    36. A(N   2,C   4,N   3)          105.86  0.001028   -0.21    105.66   
    37. A(N   2,C   7,H   9)          111.14  0.000159   -0.03    111.11   
    38. A(H  11,C   7,H  13)          108.92  0.000141   -0.03    108.89   
    39. A(H   9,C   7,H  13)          108.01 -0.000175    0.04    108.05   
    40. A(N   2,C   7,H  13)          111.58  0.000082   -0.01    111.57   
    41. A(H   9,C   7,H  11)          109.18  0.000118   -0.03    109.15   
    42. A(N   2,C   7,H  11)          107.98 -0.000317    0.05    108.03   
    43. A(N   3,C   8,H  10)          111.14  0.000159   -0.03    111.11   
    44. A(H  12,C   8,H  14)          108.92  0.000141   -0.03    108.89   
    45. A(H  10,C   8,H  14)          108.01 -0.000175    0.04    108.05   
    46. A(N   3,C   8,H  14)          111.58  0.000082   -0.01    111.57   
    47. A(H  10,C   8,H  12)          109.18  0.000118   -0.03    109.15   
    48. A(N   3,C   8,H  12)          107.98 -0.000317    0.05    108.03   
    49. D(H  16,C   1,C   0,N   2)    106.73  0.000136   -0.07    106.66   
    50. D(N   3,C   1,C   0,H   5)   -130.79  0.000001   -0.02   -130.81   
    51. D(N   3,C   1,C   0,N   2)    -11.30  0.000207   -0.11    -11.41   
    52. D(H  16,C   1,C   0,H  15)   -135.24  0.000066   -0.04   -135.28   
    53. D(H   6,C   1,C   0,H   5)    109.72 -0.000205    0.06    109.78   
    54. D(H   6,C   1,C   0,H  15)    -12.76 -0.000070    0.01    -12.75   
    55. D(H   6,C   1,C   0,N   2)   -130.79  0.000001   -0.02   -130.81   
    56. D(N   3,C   1,C   0,H  15)    106.73  0.000136   -0.07    106.66   
    57. D(H  16,C   1,C   0,H   5)    -12.76 -0.000070    0.01    -12.75   
    58. D(C   7,N   2,C   0,H   5)    -59.37 -0.000263    0.59    -58.79   
    59. D(C   7,N   2,C   0,C   1)    179.92 -0.000255    0.60    180.52   
    60. D(C   4,N   2,C   0,H  15)   -108.97  0.000177   -0.01   -108.98   
    61. D(C   7,N   2,C   0,H  15)     60.51 -0.000074    0.52     61.03   
    62. D(C   4,N   2,C   0,H   5)    131.15 -0.000013    0.05    131.21   
    63. D(C   4,N   2,C   0,C   1)     10.44 -0.000004    0.07     10.51   
    64. D(C   8,N   3,C   1,H  16)     60.51 -0.000074    0.52     61.03   
    65. D(C   8,N   3,C   1,H   6)    -59.37 -0.000263    0.59    -58.79   
    66. D(C   8,N   3,C   1,C   0)    179.92 -0.000255    0.60    180.52   
    67. D(C   4,N   3,C   1,H  16)   -108.97  0.000177   -0.01   -108.98   
    68. D(C   4,N   3,C   1,H   6)    131.15 -0.000013    0.05    131.21   
    69. D(C   4,N   3,C   1,C   0)     10.44 -0.000004    0.07     10.51   
    70. D(N   2,C   4,N   3,C   8)   -173.40  0.000201   -0.57   -173.97   
    71. D(N   2,C   4,N   3,C   1)     -4.35  0.000118   -0.04     -4.39   
    72. D(N   3,C   4,N   2,C   7)   -173.40  0.000201   -0.57   -173.97   
    73. D(N   3,C   4,N   2,C   0)     -4.35  0.000118   -0.04     -4.39   
    74. D(H  13,C   7,N   2,C   0)    -58.82  0.000185   -0.44    -59.26   
    75. D(H  11,C   7,N   2,C   4)    -10.03 -0.000059    0.14     -9.88   
    76. D(H  11,C   7,N   2,C   0)   -178.48  0.000166   -0.43   -178.91   
    77. D(H   9,C   7,N   2,C   4)   -129.74 -0.000097    0.16   -129.58   
    78. D(H  13,C   7,N   2,C   4)    109.63 -0.000040    0.13    109.76   
    79. D(H   9,C   7,N   2,C   0)     61.80  0.000128   -0.41     61.39   
    80. D(H  14,C   8,N   3,C   4)    109.63 -0.000040    0.13    109.76   
    81. D(H  14,C   8,N   3,C   1)    -58.82  0.000185   -0.44    -59.26   
    82. D(H  12,C   8,N   3,C   4)    -10.03 -0.000059    0.14     -9.88   
    83. D(H  12,C   8,N   3,C   1)   -178.48  0.000166   -0.43   -178.91   
    84. D(H  10,C   8,N   3,C   4)   -129.74 -0.000097    0.16   -129.58   
    85. D(H  10,C   8,N   3,C   1)     61.80  0.000128   -0.41     61.39   
    ----------------------------------------------------------------------------

         *************************************************************
         *                GEOMETRY OPTIMIZATION CYCLE   2            *
         *************************************************************
---------------------------------
CARTESIAN COORDINATES (ANGSTROEM)
---------------------------------
  C      0.003892    0.765566   -1.225680
  C     -0.003892   -0.765566   -1.225680
  N     -0.137328    1.062779    0.203151
  N      0.137328   -1.062779    0.203151
  C      0.000000    0.000000    1.015700
  H     -0.823174    1.202326   -1.808722
  H      0.823175   -1.202326   -1.808722
  C     -0.187290    2.426890    0.659972
  C      0.187290   -2.426890    0.659972
  H     -1.055660    2.957627    0.232896
  H      1.055660   -2.957627    0.232896
  H     -0.274547    2.415722    1.753446
  H      0.274547   -2.415722    1.753446
  H      0.725750    2.982873    0.379603
  H     -0.725750   -2.982873    0.379604
  H      0.951014    1.182227   -1.614425
  H     -0.951014   -1.182227   -1.614425

----------------------------
CARTESIAN COORDINATES (A.U.)
----------------------------
  NO LB      ZA    FRAG     MASS         X           Y           Z
   0 C     6.0000    0    12.011    0.007355    1.446711   -2.316200
   1 C     6.0000    0    12.011   -0.007354   -1.446711   -2.316200
   2 N     7.0000    0    14.007   -0.259513    2.008362    0.383899
   3 N     7.0000    0    14.007    0.259512   -2.008362    0.383900
   4 C     6.0000    0    12.011    0.000000    0.000000    1.919395
   5 H     1.0000    0     1.008   -1.555574    2.272068   -3.417990
   6 H     1.0000    0     1.008    1.555575   -2.272068   -3.417989
   7 C     6.0000    0    12.011   -0.353926    4.586157    1.247166
   8 C     6.0000    0    12.011    0.353926   -4.586157    1.247166
   9 H     1.0000    0     1.008   -1.994909    5.589104    0.440110
  10 H     1.0000    0     1.008    1.994908   -5.589105    0.440109
  11 H     1.0000    0     1.008   -0.518818    4.565053    3.313533
  12 H     1.0000    0     1.008    0.518819   -4.565054    3.313534
  13 H     1.0000    0     1.008    1.371468    5.636812    0.717346
  14 H     1.0000    0     1.008   -1.371469   -5.636812    0.717347
[...]
     26      -0.003212  -0.008167   0.002302  -0.000013   0.008272  -0.005493
     27      -0.309160   0.141184   0.028698   0.159478   0.166113  -0.333551
     28      -0.354402   0.172608   0.058037   0.287655   0.306352   0.188830
     29       0.103311  -0.061339  -0.019460  -0.021471   0.028325  -0.160794
     30       0.307977   0.143121  -0.028697  -0.159475   0.166114  -0.333580
     31       0.352957   0.174830  -0.058035  -0.287653   0.306357   0.188845
     32       0.102799   0.061987  -0.019460  -0.021471  -0.028325   0.160808
     33       0.020118  -0.024269  -0.011444  -0.017105  -0.007444  -0.022057
     34       0.043470  -0.079813  -0.087614  -0.142024  -0.066375  -0.001742
     35       0.004385   0.003857   0.001577  -0.002629  -0.012974   0.229181
     36      -0.019914  -0.024393   0.011444   0.017105  -0.007444  -0.022059
     37      -0.042804  -0.080084   0.087614   0.142023  -0.066376  -0.001742
     38       0.004417  -0.003830   0.001577  -0.002629   0.012974  -0.229199
     39       0.299589  -0.134016  -0.025474  -0.162101  -0.183218   0.435642
     40      -0.332199   0.151801   0.043968   0.260067   0.301888   0.257018
     41       0.184810  -0.119635  -0.042954  -0.078069  -0.009883  -0.127160
     42      -0.298469  -0.135895   0.025473   0.162100  -0.183221   0.435677
     43       0.330928   0.153884  -0.043967  -0.260064   0.301891   0.257040
     44       0.183810   0.120791  -0.042953  -0.078068   0.009884   0.127171
     45      -0.026816   0.238450   0.276907  -0.138204  -0.106140  -0.017303
     46      -0.008407  -0.223636  -0.304765   0.029276  -0.039010  -0.008537
     47      -0.078369   0.289528   0.261195  -0.306285  -0.292138   0.004651
     48       0.024824   0.238613  -0.276907   0.138203  -0.106140  -0.017308
     49       0.010277  -0.223578   0.304764  -0.029277  -0.039011  -0.008539
     50      -0.075949  -0.290013   0.261193  -0.306281   0.292139  -0.004653
                 42         43         44         45         46         47    
      0       0.004156   0.021622   0.031639   0.053492   0.016419   0.026924
      1       0.005525   0.030557   0.030826  -0.015094  -0.003047  -0.006370
      2      -0.004725  -0.032807  -0.028194   0.020127   0.004976   0.008867
      3      -0.004157   0.021622  -0.031639  -0.053495   0.016410  -0.026931
      4      -0.005525   0.030558  -0.030825   0.015094  -0.003044   0.006371
      5      -0.004725   0.032807  -0.028193   0.020128  -0.004973   0.008869
      6      -0.000040  -0.000267  -0.000261  -0.000738  -0.000605   0.000156
      7      -0.000359   0.000382   0.000153  -0.000359   0.000120  -0.000304
      8      -0.000008  -0.001925  -0.001186  -0.000038   0.000122  -0.000070
      9       0.000040  -0.000267   0.000261   0.000738  -0.000605  -0.000156
     10       0.000359   0.000382  -0.000153   0.000359   0.000120   0.000304
     11      -0.000008   0.001925  -0.001186  -0.000038  -0.000122  -0.000070
     12      -0.000000   0.000505   0.000000  -0.000000   0.000698  -0.000000
     13       0.000000  -0.002940  -0.000000  -0.000000   0.000365  -0.000000
     14      -0.000725  -0.000000   0.001368  -0.000617  -0.000000  -0.000263
     15       0.040716   0.273175   0.191966  -0.451609  -0.125636  -0.213621
     16      -0.020444  -0.130774  -0.090647   0.237775   0.065496   0.114049
     17       0.024057   0.179339   0.120863  -0.314310  -0.089377  -0.146423
     18      -0.040719   0.273181  -0.191962   0.451630  -0.125560   0.213669
     19       0.020445  -0.130777   0.090645  -0.237786   0.065455  -0.114074
     20       0.024059  -0.179342   0.120860  -0.314323   0.089324  -0.146457
     21      -0.006646   0.001159   0.002787   0.028601   0.063823  -0.059678
     22      -0.036566   0.001429   0.006326  -0.001811  -0.002611   0.002146
     23       0.005150  -0.000263  -0.000583   0.001827   0.004182  -0.003871
     24       0.006645   0.001159  -0.002786  -0.028605   0.063833   0.059665
     25       0.036562   0.001430  -0.006325   0.001811  -0.002611  -0.002146
     26       0.005149   0.000263  -0.000583   0.001828  -0.004183  -0.003871
     27      -0.329418   0.007092   0.043597  -0.190127  -0.409828   0.380241
     28       0.187290  -0.004566  -0.025571   0.116227   0.246754  -0.227618
     29      -0.158840   0.001883   0.019681  -0.097051  -0.212816   0.198758
     30       0.329391   0.007098  -0.043596   0.190152  -0.409895  -0.380160
     31      -0.187273  -0.004569   0.025570  -0.116241   0.246793   0.227568
     32      -0.158827  -0.001886   0.019680  -0.097064   0.212852   0.198716
     33      -0.021820   0.000629   0.003444   0.001138   0.005147  -0.005469
     34      -0.001888  -0.000996  -0.000928   0.000580   0.000145   0.000248
     35       0.226780  -0.006661  -0.037047   0.027307   0.049914  -0.044740
     36       0.021818   0.000630  -0.003444  -0.001139   0.005148   0.005468
     37       0.001888  -0.000996   0.000928  -0.000580   0.000145  -0.000248
     38       0.226759   0.006665  -0.037046   0.027309  -0.049920  -0.044729
     39       0.429425  -0.020946  -0.080954  -0.151577  -0.351492   0.331579
     40       0.254063  -0.014878  -0.051757  -0.095018  -0.218123   0.204674
     41      -0.125370   0.004268   0.021886   0.048685   0.113212  -0.107082
     42      -0.429387  -0.020955   0.080952   0.151598  -0.351552  -0.331510
     43      -0.254043  -0.014883   0.051756   0.095032  -0.218161  -0.204632
     44      -0.125359  -0.004270   0.021885   0.048692  -0.113232  -0.107060
     45      -0.089111  -0.530703  -0.563650  -0.173019  -0.070075  -0.101546
     46      -0.038622  -0.217721  -0.234075  -0.078471  -0.030707  -0.046981
     47       0.032733   0.209202   0.225846   0.077963   0.032077   0.042501
     48       0.089118  -0.530711   0.563639   0.173034  -0.070043   0.101577
     49       0.038625  -0.217724   0.234070   0.078478  -0.030692   0.046994
     50       0.032736  -0.209207   0.225843   0.077970  -0.032063   0.042514
                 48         49         50    
      0       0.061672   0.000006   0.000102
      1      -0.009456  -0.000123  -0.000073
      2       0.016280  -0.000279  -0.000127
      3       0.061670   0.000006  -0.000102
      4      -0.009456  -0.000123   0.000074
      5      -0.016279   0.000279  -0.000128
      6      -0.000436  -0.000004  -0.000050
      7       0.000064  -0.000573  -0.000598
      8       0.000093   0.000387   0.000062
      9      -0.000436  -0.000004   0.000050
     10       0.000064  -0.000570   0.000601
     11      -0.000093  -0.000386   0.000064
     12       0.000355   0.000040  -0.000000
     13       0.000409  -0.000194   0.000001
     14      -0.000000   0.000000   0.000120
     15      -0.445085   0.001077  -0.000748
     16       0.236170  -0.001059  -0.000216
     17      -0.308582   0.000356  -0.001497
     18      -0.445061   0.001081   0.000741
     19       0.236158  -0.001058   0.000223
     20       0.308564  -0.000365  -0.001495
     21      -0.017637  -0.003075  -0.003031
     22       0.000337  -0.011376  -0.011377
     23      -0.001006   0.064262   0.063875
     24      -0.017634  -0.003057   0.003049
     25       0.000337  -0.011308   0.011444
     26       0.001006  -0.063883   0.064254
     27       0.109623  -0.140943  -0.140557
     28      -0.064143   0.078906   0.078672
     29       0.058804  -0.066110  -0.065890
     30       0.109609  -0.140108   0.141388
     31      -0.064134   0.078438  -0.079137
     32      -0.058797   0.065718  -0.066279
     33      -0.002372   0.059381   0.059014
     34       0.000325   0.001969   0.001896
     35      -0.012517  -0.667450  -0.663251
     36      -0.002371   0.059031  -0.059364
     37       0.000325   0.001957  -0.001907
     38       0.012516   0.663515  -0.667189
     39       0.101219   0.117532   0.117313
     40       0.060865   0.067035   0.067008
     41      -0.033358  -0.029947  -0.029860
     42       0.101206   0.116836  -0.118006
     43       0.060857   0.066638  -0.067404
     44       0.033354   0.029770  -0.030037
     45      -0.284153  -0.000656   0.000092
     46      -0.127881  -0.000711  -0.000603
     47       0.120607  -0.000153  -0.000695
     48      -0.284145  -0.000656  -0.000089
     49      -0.127877  -0.000708   0.000607
     50      -0.120603   0.000149  -0.000696


-----------
IR SPECTRUM
-----------

 Mode   freq       eps      Int      T**2         TX        TY        TZ
       cm**-1   L/(mol*cm) km/mol    a.u.
----------------------------------------------------------------------------
  6:    113.89   0.000004    0.02  0.000010  ( 0.000001 -0.000000  0.003126)
  7:    126.61   0.001244    6.29  0.003067  ( 0.054382 -0.010452  0.000000)
  8:    171.09   0.000001    0.00  0.000001  ( 0.000000 -0.000000 -0.001024)
  9:    207.89   0.001547    7.82  0.002322  ( 0.047894 -0.005270 -0.000000)
 10:    239.54   0.000018    0.09  0.000023  ( 0.000000 -0.000000  0.004836)
 11:    293.93   0.000149    0.75  0.000158  (-0.000000  0.000000 -0.012562)
 12:    424.87   0.001254    6.34  0.000921  ( 0.005072 -0.029926 -0.000000)
 13:    472.86   0.000563    2.84  0.000371  (-0.007156 -0.017895  0.000000)
 14:    631.57   0.000220    1.11  0.000109  (-0.000000 -0.000000 -0.010426)
 15:    658.98   0.005625   28.43  0.002664  ( 0.002058 -0.051571  0.000000)
 16:    854.61   0.000199    1.00  0.000073  (-0.002328 -0.008191 -0.000000)
 17:    943.25   0.002071   10.47  0.000685  (-0.000000  0.000000  0.026175)
 18:    969.00   0.000082    0.41  0.000026  ( 0.004043  0.003154 -0.000000)
 19:   1024.21   0.000117    0.59  0.000036  ( 0.000000 -0.000000 -0.005981)
 20:   1094.17   0.000082    0.41  0.000023  ( 0.000000 -0.000000  0.004821)
 21:   1105.69   0.004935   24.94  0.001393  (-0.004803  0.037012  0.000000)
 22:   1107.36   0.000007    0.03  0.000002  ( 0.000000 -0.000001  0.001394)
 23:   1147.00   0.000304    1.54  0.000083  (-0.000690  0.009065 -0.000000)
 24:   1167.94   0.000003    0.02  0.000001  (-0.000000  0.000000 -0.000937)
 25:   1202.57   0.001699    8.58  0.000441  ( 0.020942  0.001498 -0.000000)
 26:   1237.09   0.000193    0.97  0.000049  (-0.000000  0.000000  0.006970)
 27:   1271.89   0.009271   46.85  0.002275  (-0.008024  0.047014  0.000000)
 28:   1325.35   0.009311   47.06  0.002192  ( 0.000308 -0.046823  0.000000)
 29:   1333.49   0.000012    0.06  0.000003  (-0.000000  0.000000  0.001685)
 30:   1363.17   0.001731    8.75  0.000396  ( 0.000000  0.000000  0.019904)
 31:   1429.59   0.005103   25.79  0.001114  (-0.002645 -0.033272  0.000000)
 32:   1436.19   0.000469    2.37  0.000102  ( 0.000000  0.000001  0.010094)
 33:   1465.94   0.000020    0.10  0.000004  ( 0.000006 -0.000004  0.002056)
 34:   1466.04   0.006166   31.16  0.001312  (-0.030265  0.019912  0.000001)
 35:   1477.00   0.021096  106.61  0.004457  ( 0.000418  0.066761  0.000000)
 36:   1490.40   0.003453   17.45  0.000723  ( 0.000003  0.000016  0.026887)
 37:   1490.42   0.000100    0.50  0.000021  (-0.000825 -0.004492  0.000097)
 38:   1514.40   0.000025    0.13  0.000005  ( 0.000000  0.000000 -0.002283)
 39:   1542.45   0.000705    3.56  0.000143  ( 0.000000  0.000000 -0.011939)
 40:   1567.57   0.041572  210.09  0.008276  (-0.002207  0.090945  0.000000)
 41:   3031.32   0.031758  160.49  0.003269  (-0.003093 -0.057095  0.000000)
 42:   3033.70   0.000211    1.07  0.000022  (-0.000000 -0.000003 -0.004660)
 43:   3040.79   0.011110   56.15  0.001140  ( 0.015788  0.029849  0.000000)
 44:   3048.52   0.008046   40.66  0.000824  ( 0.000000  0.000000 -0.028699)
 45:   3102.65   0.002105   10.64  0.000212  (-0.000002  0.000000  0.014551)
 46:   3107.33   0.020780  105.02  0.002087  ( 0.045455 -0.004554  0.000001)
 47:   3108.95   0.000098    0.50  0.000010  (-0.000005  0.000001  0.003140)
 48:   3116.18   0.003646   18.43  0.000365  ( 0.018584 -0.004448  0.000000)
 49:   3204.07   0.000127    0.64  0.000012  (-0.000600 -0.003460  0.000032)
 50:   3204.10   0.001171    5.92  0.000114  ( 0.000002  0.000010  0.010682)

* The epsilon (eps) is given for a Dirac delta lineshape.
** The dipole moment derivative (T) already includes vibrational overlap.

The first frequency considered to be a vibration is 6
The total number of vibrations considered is 45


--------------------------
THERMOCHEMISTRY AT 298.15K
--------------------------

Temperature         ... 298.15 K
Pressure            ... 1.00 atm
Total Mass          ... 98.15 AMU

Throughout the following assumptions are being made:
  (1) The electronic state is orbitally nondegenerate
  (2) There are no thermally accessible electronically excited states
  (3) Hindered rotations indicated by low frequency modes are not
      treated as such but are treated as vibrations and this may
      cause some error
  (4) All equations used are the standard statistical mechanics
      equations for an ideal gas
  (5) All vibrations are strictly harmonic

freq.     113.89  E(vib)   ...       0.44 
freq.     126.61  E(vib)   ...       0.43 
freq.     171.09  E(vib)   ...       0.38 
freq.     207.89  E(vib)   ...       0.34 
freq.     239.54  E(vib)   ...       0.31 
freq.     293.93  E(vib)   ...       0.27 
freq.     424.87  E(vib)   ...       0.18 
freq.     472.86  E(vib)   ...       0.15 
freq.     631.57  E(vib)   ...       0.09 
freq.     658.98  E(vib)   ...       0.08 
freq.     854.61  E(vib)   ...       0.04 
freq.     943.25  E(vib)   ...       0.03 
freq.     969.00  E(vib)   ...       0.03 
freq.    1024.21  E(vib)   ...       0.02 
freq.    1094.17  E(vib)   ...       0.02 
freq.    1105.69  E(vib)   ...       0.02 
freq.    1107.36  E(vib)   ...       0.02 
freq.    1147.00  E(vib)   ...       0.01 
freq.    1167.94  E(vib)   ...       0.01 
freq.    1202.57  E(vib)   ...       0.01 
freq.    1237.09  E(vib)   ...       0.01 
freq.    1271.89  E(vib)   ...       0.01 
freq.    1325.35  E(vib)   ...       0.01 
freq.    1333.49  E(vib)   ...       0.01 
freq.    1363.17  E(vib)   ...       0.01 
freq.    1429.59  E(vib)   ...       0.00 
freq.    1436.19  E(vib)   ...       0.00 
freq.    1465.94  E(vib)   ...       0.00 
freq.    1466.04  E(vib)   ...       0.00 
freq.    1477.00  E(vib)   ...       0.00 
freq.    1490.40  E(vib)   ...       0.00 
freq.    1490.42  E(vib)   ...       0.00 
freq.    1514.40  E(vib)   ...       0.00 
freq.    1542.45  E(vib)   ...       0.00 
freq.    1567.57  E(vib)   ...       0.00 
freq.    3031.32  E(vib)   ...       0.00 
freq.    3033.70  E(vib)   ...       0.00 
freq.    3040.79  E(vib)   ...       0.00 
freq.    3048.52  E(vib)   ...       0.00 
freq.    3102.65  E(vib)   ...       0.00 
freq.    3107.33  E(vib)   ...       0.00 
freq.    3108.95  E(vib)   ...       0.00 
freq.    3116.18  E(vib)   ...       0.00 
freq.    3204.07  E(vib)   ...       0.00 
freq.    3204.10  E(vib)   ...       0.00 

------------
INNER ENERGY
------------

The inner energy is: U= E(el) + E(ZPE) + E(vib) + E(rot) + E(trans)
    E(el)   - is the total energy from the electronic structure calculation
              = E(kin-el) + E(nuc-el) + E(el-el) + E(nuc-nuc)
    E(ZPE)  - the the zero temperature vibrational energy from the frequency calculation
    E(vib)  - the the finite temperature correction to E(ZPE) due to population
              of excited vibrational states
    E(rot)  - is the rotational thermal energy
    E(trans)- is the translational thermal energy

Summary of contributions to the inner energy U:
Electronic energy                ...   -305.70486478 Eh
Zero point energy                ...      0.15119211 Eh      94.87 kcal/mol
Thermal vibrational correction   ...      0.00470646 Eh       2.95 kcal/mol
Thermal rotational correction    ...      0.00141627 Eh       0.89 kcal/mol
Thermal translational correction ...      0.00141627 Eh       0.89 kcal/mol
-----------------------------------------------------------------------
Total thermal energy                   -305.54613367 Eh


Summary of corrections to the electronic energy:
(perhaps to be used in another calculation)
Total thermal correction                  0.00753900 Eh       4.73 kcal/mol
Non-thermal (ZPE) correction              0.15119211 Eh      94.87 kcal/mol
-----------------------------------------------------------------------
Total correction                          0.15873111 Eh      99.61 kcal/mol


--------
ENTHALPY
--------

The enthalpy is H = U + kB*T
                kB is Boltzmann's constant
Total free energy                 ...   -305.54613367 Eh 
Thermal Enthalpy correction       ...      0.00094421 Eh       0.59 kcal/mol
-----------------------------------------------------------------------
Total Enthalpy                    ...   -305.54518946 Eh


Note: Rotational entropy computed according to Herzberg 
Infrared and Raman Spectra, Chapter V,1, Van Nostrand Reinhold, 1945 
Point Group:  C2, Symmetry Number:   2  
Rotational constants in cm-1:     0.198973     0.067877     0.052704 

Vibrational entropy computed according to the QRRHO of S. Grimme
Chem.Eur.J. 2012 18 9955


-------
ENTROPY
-------

The entropy contributions are T*S = T*(S(el)+S(vib)+S(rot)+S(trans))
     S(el)   - electronic entropy
     S(vib)  - vibrational entropy
     S(rot)  - rotational entropy
     S(trans)- translational entropy
The entropies will be listed as multiplied by the temperature to get
units of energy

Electronic entropy                ...      0.00000000 Eh      0.00 kcal/mol
Vibrational entropy               ...      0.00811973 Eh      5.10 kcal/mol
Rotational entropy                ...      0.01227792 Eh      7.70 kcal/mol
Translational entropy             ...      0.01884478 Eh     11.83 kcal/mol
-----------------------------------------------------------------------
Final entropy term                ...      0.03924244 Eh     24.62 kcal/mol

In case the symmetry of your molecule has not been determined correctly
or in case you have a reason to use a different symmetry number we print 
out the resulting rotational entropy values for sn=1,12 :
 --------------------------------------------------------
|  sn= 1 | S(rot)=       0.01293238 Eh      8.12 kcal/mol|
|  sn= 2 | S(rot)=       0.01227792 Eh      7.70 kcal/mol|
|  sn= 3 | S(rot)=       0.01189509 Eh      7.46 kcal/mol|
|  sn= 4 | S(rot)=       0.01162347 Eh      7.29 kcal/mol|
|  sn= 5 | S(rot)=       0.01141278 Eh      7.16 kcal/mol|
|  sn= 6 | S(rot)=       0.01124064 Eh      7.05 kcal/mol|
|  sn= 7 | S(rot)=       0.01109509 Eh      6.96 kcal/mol|
|  sn= 8 | S(rot)=       0.01096901 Eh      6.88 kcal/mol|
|  sn= 9 | S(rot)=       0.01085780 Eh      6.81 kcal/mol|
|  sn=10 | S(rot)=       0.01075832 Eh      6.75 kcal/mol|
|  sn=11 | S(rot)=       0.01066833 Eh      6.69 kcal/mol|
|  sn=12 | S(rot)=       0.01058618 Eh      6.64 kcal/mol|
 --------------------------------------------------------


-------------------
GIBBS FREE ENERGY
-------------------

The Gibbs free energy is G = H - T*S

Total enthalpy                    ...   -305.54518946 Eh 
Total entropy correction          ...     -0.03924244 Eh    -24.62 kcal/mol
-----------------------------------------------------------------------
Final Gibbs free energy         ...   -305.58443190 Eh

For completeness - the Gibbs free energy minus the electronic energy
G-E(el)                           ...      0.12043288 Eh     75.57 kcal/mol


Timings for individual modules:

Sum of individual times         ...      251.066 sec (=   4.184 min)
GTO integral calculation        ...        5.170 sec (=   0.086 min)   2.1 %
SCF iterations                  ...      121.617 sec (=   2.027 min)  48.4 %
SCF Gradient evaluation         ...       31.085 sec (=   0.518 min)  12.4 %
Geometry relaxation             ...        0.193 sec (=   0.003 min)   0.1 %
Analytical frequency calculation...       93.002 sec (=   1.550 min)  37.0 %
                             ****ORCA TERMINATED NORMALLY****
TOTAL RUN TIME: 0 days 0 hours 4 minutes 13 seconds 225 msec
