
                                 *****************
                                 * O   R   C   A *
                                 *****************

                                            #,                                       
                                            ###                                      
                                            ####                                     
                                            #####                                    
                                            ######                                   
                                           ########,                                 
                                     ,,################,,,,,                         
                               ,,#################################,,                 
                          ,,##########################################,,             
                       ,#########################################, ''#####,          
                    ,#############################################,,   '####,        
                  ,##################################################,,,,####,       
                ,###########''''           ''''###############################       
              ,#####''   ,,,,##########,,,,          '''####'''          '####       
            ,##' ,,,,###########################,,,                        '##       
           ' ,,###''''                  '''############,,,                           
         ,,##''                                '''############,,,,        ,,,,,,###''
      ,#''                                            '''#######################'''  
     '                                                          ''''####''''         
             ,#######,   #######,   ,#######,      ##                                
            ,#'     '#,  ##    ##  ,#'     '#,    #''#        ######   ,####,        
            ##       ##  ##   ,#'  ##            #'  '#       #        #'  '#        
            ##       ##  #######   ##           ,######,      #####,   #    #        
            '#,     ,#'  ##    ##  '#,     ,#' ,#      #,         ##   #,  ,#        
             '#######'   ##     ##  '#######'  #'      '#     #####' # '####'        



                  #######################################################
                  #                        -***-                        #
                  #          Department of theory and spectroscopy      #
                  #    Directorship and core code : Frank Neese         #
                  #        Max Planck Institute fuer Kohlenforschung    #
                  #                Kaiser Wilhelm Platz 1               #
                  #                 D-45470 Muelheim/Ruhr               #
                  #                      Germany                        #
                  #                                                     #
                  #                  All rights reserved                #
                  #                        -***-                        #
                  #######################################################


                         Program Version 5.0.4 -  RELEASE  -


 With contributions from (in alphabetic order):
   Daniel Aravena         : Magnetic Suceptibility
   Michael Atanasov       : Ab Initio Ligand Field Theory (pilot matlab implementation)
   Alexander A. Auer      : GIAO ZORA, VPT2 properties, NMR spectrum
   Ute Becker             : Parallelization
   Giovanni Bistoni       : ED, misc. LED, open-shell LED, HFLD
   Martin Brehm           : Molecular dynamics
   Dmytro Bykov           : SCF Hessian
   Vijay G. Chilkuri      : MRCI spin determinant printing, contributions to CSF-ICE
   Dipayan Datta          : RHF DLPNO-CCSD density
   Achintya Kumar Dutta   : EOM-CC, STEOM-CC
   Dmitry Ganyushin       : Spin-Orbit,Spin-Spin,Magnetic field MRCI
   Miquel Garcia          : C-PCM and meta-GGA Hessian, CC/C-PCM, Gaussian charge scheme
   Yang Guo               : DLPNO-NEVPT2, F12-NEVPT2, CIM, IAO-localization
   Andreas Hansen         : Spin unrestricted coupled pair/coupled cluster methods
   Benjamin Helmich-Paris : MC-RPA, TRAH-SCF, COSX integrals
   Lee Huntington         : MR-EOM, pCC
   Robert Izsak           : Overlap fitted RIJCOSX, COSX-SCS-MP3, EOM
   Marcus Kettner         : VPT2
   Christian Kollmar      : KDIIS, OOCD, Brueckner-CCSD(T), CCSD density, CASPT2, CASPT2-K
   Simone Kossmann        : Meta GGA functionals, TD-DFT gradient, OOMP2, MP2 Hessian
   Martin Krupicka        : Initial AUTO-CI
   Lucas Lang             : DCDCAS
   Marvin Lechner         : AUTO-CI (C++ implementation), FIC-MRCC
   Dagmar Lenk            : GEPOL surface, SMD
   Dimitrios Liakos       : Extrapolation schemes; Compound Job, initial MDCI parallelization
   Dimitrios Manganas     : Further ROCIS development; embedding schemes
   Dimitrios Pantazis     : SARC Basis sets
   Anastasios Papadopoulos: AUTO-CI, single reference methods and gradients
   Taras Petrenko         : DFT Hessian,TD-DFT gradient, ASA, ECA, R-Raman, ABS, FL, XAS/XES, NRVS
   Peter Pinski           : DLPNO-MP2, DLPNO-MP2 Gradient
   Christoph Reimann      : Effective Core Potentials
   Marius Retegan         : Local ZFS, SOC
   Christoph Riplinger    : Optimizer, TS searches, QM/MM, DLPNO-CCSD(T), (RO)-DLPNO pert. Triples
   Tobias Risthaus        : Range-separated hybrids, TD-DFT gradient, RPA, STAB
   Michael Roemelt        : Original ROCIS implementation
   Masaaki Saitow         : Open-shell DLPNO-CCSD energy and density
   Barbara Sandhoefer     : DKH picture change effects
   Avijit Sen             : IP-ROCIS
   Kantharuban Sivalingam : CASSCF convergence, NEVPT2, FIC-MRCI
   Bernardo de Souza      : ESD, SOC TD-DFT
   Georgi Stoychev        : AutoAux, RI-MP2 NMR, DLPNO-MP2 response
   Willem Van den Heuvel  : Paramagnetic NMR
   Boris Wezisla          : Elementary symmetry handling
   Frank Wennmohs         : Technical directorship


 We gratefully acknowledge several colleagues who have allowed us to
 interface, adapt or use parts of their codes:
   Stefan Grimme, W. Hujo, H. Kruse, P. Pracht,  : VdW corrections, initial TS optimization,
                  C. Bannwarth, S. Ehlert          DFT functionals, gCP, sTDA/sTD-DF
   Ed Valeev, F. Pavosevic, A. Kumar             : LibInt (2-el integral package), F12 methods
   Garnet Chan, S. Sharma, J. Yang, R. Olivares  : DMRG
   Ulf Ekstrom                                   : XCFun DFT Library
   Mihaly Kallay                                 : mrcc  (arbitrary order and MRCC methods)
   Jiri Pittner, Ondrej Demel                    : Mk-CCSD
   Frank Weinhold                                : gennbo (NPA and NBO analysis)
   Christopher J. Cramer and Donald G. Truhlar   : smd solvation model
   Lars Goerigk                                  : TD-DFT with DH, B97 family of functionals
   V. Asgeirsson, H. Jonsson                     : NEB implementation
   FAccTs GmbH                                   : IRC, NEB, NEB-TS, DLPNO-Multilevel, CI-OPT
                                                   MM, QMMM, 2- and 3-layer-ONIOM, Crystal-QMMM,
                                                   LR-CPCM, SF, NACMEs, symmetry and pop. for TD-DFT,
                                                   nearIR, NL-DFT gradient (VV10), updates on ESD,
                                                   ML-optimized integration grids
   S Lehtola, MJT Oliveira, MAL Marques          : LibXC Library
   Liviu Ungur et al                             : ANISO software


 Your calculation uses the libint2 library for the computation of 2-el integrals
 For citations please refer to: http://libint.valeyev.net

 Your ORCA version has been built with support for libXC version: 5.1.0
 For citations please refer to: https://tddft.org/programs/libxc/

 This ORCA versions uses:
   CBLAS   interface :  Fast vector & matrix operations
   LAPACKE interface :  Fast linear algebra routines
   SCALAPACK package :  Parallel linear algebra routines
   Shared memory     :  Shared parallel matrices
   BLAS/LAPACK       :  OpenBLAS 0.3.15  USE64BITINT DYNAMIC_ARCH NO_AFFINITY SkylakeX SINGLE_THREADED
        Core in use  :  SkylakeX
   Copyright (c) 2011-2014, The OpenBLAS Project


Your calculation utilizes the atom-pairwise dispersion correction
based on tight binding partial charges (D4)
Cite in your paper:
E.Caldeweyher, C.Bannwarth, S.Grimme, J.Chem.Phys., (2017), 147, 034112.
E.Caldeweyher, S.Ehlert, A.Hansen, H.Neugebauer, S.Grimme, J.Chem.Phys., (2018), in progress.
   

XCFun DFT library Copyright 2009-2010 Ulf Ekstrom and contributors.
See http://admol.org/xcfun for more information.
This is free software; see the source code for copying conditions.
There is ABSOLUTELY NO WARRANTY; not even for MERCHANTABILITY or FITNESS FOR A PARTICULAR PURPOSE.
For details see the documentation.
Scientific users of this library should cite U. Ekstrom, L. Visscher, R. Bast, A. J. Thorvaldsen and K. Ruud;
J.Chem.Theor.Comp. 2010, DOI: 10.1021/ct100117s
XCFun Version 0.99 

================================================================================

----- Orbital basis set information -----
Your calculation utilizes the basis: def2-SVP
   F. Weigend and R. Ahlrichs, Phys. Chem. Chem. Phys. 7, 3297 (2005).

----- AuxJ basis set information -----
Your calculation utilizes the auxiliary basis: def2/J
   F. Weigend, Phys. Chem. Chem. Phys. 8, 1057 (2006).

================================================================================
                                        WARNINGS
                       Please study these warnings very carefully!
================================================================================


INFO   : the flag for use of the SHARK integral package has been found!

================================================================================
                                       INPUT FILE
================================================================================
NAME = DFT_water_outs/1+-gasSP.inp
|  1> ! SP wB97X D4 def2-SVP def2/J defgrid2 
|  2> %maxcore 3000
|  3> %PAL NPROCS 4 END
|  4> * xyz 1 1
|  5> C 0.9881 -0.0911 -1.3581
|  6> C -0.163 -0.8086 -1.4681
|  7> N 1.052 0.3695 -0.0612
|  8> N -0.779 -0.7714 -0.2363
|  9> C -0.0253 -0.0549 0.5932
| 10> H 1.7643 0.1335 -2.0871
| 11> H -0.5992 -1.3369 -2.3135
| 12> C 2.1246 1.1829 0.4997
| 13> C -2.0447 -1.4147 0.0981
| 14> H 3.0653 0.6187 0.4702
| 15> H 1.8731 1.4283 1.5378
| 16> H 2.2225 2.1065 -0.0845
| 17> H -0.2547 0.1516 1.6388
| 18> H -1.9399 -2.5021 -0.0048
| 19> H -2.827 -1.0484 -0.5784
| 20> H -2.3041 -1.164 1.1333
| 21> **                         ****END OF INPUT****
================================================================================

                       ****************************
                       * Single Point Calculation *
                       ****************************

---------------------------------
CARTESIAN COORDINATES (ANGSTROEM)
---------------------------------
  C      0.988100   -0.091100   -1.358100
  C     -0.163000   -0.808600   -1.468100
  N      1.052000    0.369500   -0.061200
  N     -0.779000   -0.771400   -0.236300
  C     -0.025300   -0.054900    0.593200
  H      1.764300    0.133500   -2.087100
  H     -0.599200   -1.336900   -2.313500
  C      2.124600    1.182900    0.499700
  C     -2.044700   -1.414700    0.098100
  H      3.065300    0.618700    0.470200
  H      1.873100    1.428300    1.537800
  H      2.222500    2.106500   -0.084500
  H     -0.254700    0.151600    1.638800
  H     -1.939900   -2.502100   -0.004800
  H     -2.827000   -1.048400   -0.578400
  H     -2.304100   -1.164000    1.133300

----------------------------
CARTESIAN COORDINATES (A.U.)
----------------------------
  NO LB      ZA    FRAG     MASS         X           Y           Z
   0 C     6.0000    0    12.011    1.867238   -0.172154   -2.566437
   1 C     6.0000    0    12.011   -0.308025   -1.528033   -2.774307
   2 N     7.0000    0    14.007    1.987992    0.698254   -0.115651
   3 N     7.0000    0    14.007   -1.472097   -1.457735   -0.446542
   4 C     6.0000    0    12.011   -0.047810   -0.103746    1.120986
   5 H     1.0000    0     1.008    3.334044    0.252278   -3.944047
   6 H     1.0000    0     1.008   -1.132324   -2.526375   -4.371881
   7 C     6.0000    0    12.011    4.014912    2.235357    0.944296
   8 C     6.0000    0    12.011   -3.863923   -2.673396    0.185382
   9 H     1.0000    0     1.008    5.792578    1.169174    0.888549
  10 H     1.0000    0     1.008    3.539646    2.699096    2.906021
  11 H     1.0000    0     1.008    4.199916    3.980708   -0.159682
  12 H     1.0000    0     1.008   -0.481313    0.286482    3.096883
  13 H     1.0000    0     1.008   -3.665880   -4.728284   -0.009071
  14 H     1.0000    0     1.008   -5.342256   -1.981189   -1.093018
  15 H     1.0000    0     1.008   -4.354118   -2.199641    2.141627

--------------------------------
INTERNAL COORDINATES (ANGSTROEM)
--------------------------------
 C      0   0   0     0.000000000000     0.00000000     0.00000000
 C      1   0   0     1.360859088958     0.00000000     0.00000000
 N      1   2   0     1.377746413532   106.95276328     0.00000000
 N      2   1   3     1.377741296470   106.95901999     0.00000000
 C      3   1   2     1.330011281907   108.59691151     0.00000000
 H      1   2   3     1.088288840336   131.14449910   180.15050426
 H      2   1   3     1.088150950006   131.13618713   179.67654009
 C      3   1   2     1.458320654040   125.63589395   179.81583643
 C      4   2   1     1.458648257806   125.52278406   180.11817572
 H      8   3   1     1.097318723070   109.47554255   297.32160310
 H      8   3   1     1.095958493740   108.68853970   177.49837108
 H      8   3   1     1.097228786535   109.28961066    57.85879419
 H      5   3   1     1.090204554201   125.58374379   180.07735072
 H      9   4   2     1.097273990396   109.43162477    63.15465025
 H      9   4   2     1.097187873611   109.27480687   302.71848906
 H      9   4   2     1.096256306709   108.72047351   183.00547821

---------------------------
INTERNAL COORDINATES (A.U.)
---------------------------
 C      0   0   0     0.000000000000     0.00000000     0.00000000
 C      1   0   0     2.571650984988     0.00000000     0.00000000
 N      1   2   0     2.603563403567   106.95276328     0.00000000
 N      2   1   3     2.603553733723   106.95901999     0.00000000
 C      3   1   2     2.513357077830   108.59691151     0.00000000
 H      1   2   3     2.056567862838   131.14449910   180.15050426
 H      2   1   3     2.056307287878   131.13618713   179.67654009
 C      3   1   2     2.755826651577   125.63589395   179.81583643
 C      4   2   1     2.756445732974   125.52278406   180.11817572
 H      8   3   1     2.073631868226   109.47554255   297.32160310
 H      8   3   1     2.071061407313   108.68853970   177.49837108
 H      8   3   1     2.073461912805   109.28961066    57.85879419
 H      5   3   1     2.060188037393   125.58374379   180.07735072
 H      9   4   2     2.073547335724   109.43162477    63.15465025
 H      9   4   2     2.073384598585   109.27480687   302.71848906
 H      9   4   2     2.071624192265   108.72047351   183.00547821

---------------------
BASIS SET INFORMATION
---------------------
There are 3 groups of distinct atoms

 Group   1 Type C   : 7s4p1d contracted to 3s2p1d pattern {511/31/1}
 Group   2 Type N   : 7s4p1d contracted to 3s2p1d pattern {511/31/1}
 Group   3 Type H   : 4s1p contracted to 2s1p pattern {31/1}

Atom   0C    basis set group =>   1
Atom   1C    basis set group =>   1
Atom   2N    basis set group =>   2
Atom   3N    basis set group =>   2
Atom   4C    basis set group =>   1
Atom   5H    basis set group =>   3
Atom   6H    basis set group =>   3
Atom   7C    basis set group =>   1
Atom   8C    basis set group =>   1
Atom   9H    basis set group =>   3
Atom  10H    basis set group =>   3
Atom  11H    basis set group =>   3
Atom  12H    basis set group =>   3
Atom  13H    basis set group =>   3
Atom  14H    basis set group =>   3
Atom  15H    basis set group =>   3
---------------------------------
AUXILIARY/J BASIS SET INFORMATION
---------------------------------
There are 3 groups of distinct atoms

 Group   1 Type C   : 12s5p4d2f1g contracted to 6s4p3d1f1g pattern {711111/2111/211/2/1}
 Group   2 Type N   : 12s5p4d2f1g contracted to 6s4p3d1f1g pattern {711111/2111/211/2/1}
 Group   3 Type H   : 5s2p1d contracted to 3s1p1d pattern {311/2/1}

Atom   0C    basis set group =>   1
Atom   1C    basis set group =>   1
Atom   2N    basis set group =>   2
Atom   3N    basis set group =>   2
Atom   4C    basis set group =>   1
Atom   5H    basis set group =>   3
Atom   6H    basis set group =>   3
Atom   7C    basis set group =>   1
Atom   8C    basis set group =>   1
Atom   9H    basis set group =>   3
Atom  10H    basis set group =>   3
Atom  11H    basis set group =>   3
Atom  12H    basis set group =>   3
Atom  13H    basis set group =>   3
Atom  14H    basis set group =>   3
Atom  15H    basis set group =>   3


           ************************************************************
           *        Program running with 4 parallel MPI-processes     *
           *              working on a common directory               *
           ************************************************************
------------------------------------------------------------------------------
                           ORCA GTO INTEGRAL CALCULATION
                           -- RI-GTO INTEGRALS CHOSEN --
------------------------------------------------------------------------------
------------------------------------------------------------------------------
                   ___                                                        
                  /   \      - P O W E R E D   B Y -                         
                 /     \                                                     
                 |  |  |   _    _      __       _____    __    __             
                 |  |  |  | |  | |    /  \     |  _  \  |  |  /  |          
                  \  \/   | |  | |   /    \    | | | |  |  | /  /          
                 / \  \   | |__| |  /  /\  \   | |_| |  |  |/  /          
                |  |  |   |  __  | /  /__\  \  |    /   |      \           
                |  |  |   | |  | | |   __   |  |    \   |  |\   \          
                \     /   | |  | | |  |  |  |  | |\  \  |  | \   \       
                 \___/    |_|  |_| |__|  |__|  |_| \__\ |__|  \__/        
                                                                              
                      - O R C A' S   B I G   F R I E N D -                    
                                      &                                       
                       - I N T E G R A L  F E E D E R -                       
                                                                              
 v1 FN, 2020, v2 2021                                                         
------------------------------------------------------------------------------


Reading SHARK input file DFT_water_outs/1+-gasSP.SHARKINP.tmp ... ok
----------------------
SHARK INTEGRAL PACKAGE
----------------------

Number of atoms                             ...     16
Number of basis functions                   ...    143
Number of shells                            ...     69
Maximum angular momentum                    ...      2
Integral batch strategy                     ... SHARK/LIBINT Hybrid
RI-J (if used) integral strategy            ... SPLIT-RIJ (Revised 2003 algorithm where possible)
Printlevel                                  ...      1
Contraction scheme used                     ... SEGMENTED contraction
Coulomb Range Separation                    ... NOT USED
Exchange Range Separation                   ... Long Range
   Mu parameter                             ...  0.300000
   Scaling (regular/separated)              ...  0.157706  0.842294
Finite Nucleus Model                        ... NOT USED
Auxiliary Coulomb fitting basis             ... AVAILABLE
   # of basis functions in Aux-J            ...    442
   # of shells in Aux-J                     ...    150
   Maximum angular momentum in Aux-J        ...      4
Auxiliary J/K fitting basis                 ... NOT available
Auxiliary Correlation fitting basis         ... NOT available
Auxiliary 'external' fitting basis          ... NOT available
Integral threshold                          ...     1.000000e-10
Primitive cut-off                           ...     1.000000e-11
Primitive pair pre-selection threshold      ...     1.000000e-11

Calculating pre-screening integrals         ... done (  0.0 sec) Dimension = 69
Organizing shell pair data                  ... done (  0.0 sec)
Shell pair information
Total number of shell pairs                 ...      2415
Shell pairs after pre-screening             ...      2277
Total number of primitive shell pairs       ...      8503
Primitive shell pairs kept                  ...      6060
          la=0 lb=0:    742 shell pairs
          la=1 lb=0:    841 shell pairs
          la=1 lb=1:    255 shell pairs
          la=2 lb=0:    259 shell pairs
          la=2 lb=1:    153 shell pairs
          la=2 lb=2:     27 shell pairs

Calculating one electron integrals          ... done (  0.0 sec)
Calculating RI/J V-Matrix + Cholesky decomp.... done (  0.0 sec)
Calculating Nuclear repulsion               ... done (  0.0 sec) ENN=    307.592196952158 Eh

SHARK setup successfully completed in   0.2 seconds

Maximum memory used throughout the entire GTOINT-calculation: 11.0 MB


           ************************************************************
           *        Program running with 4 parallel MPI-processes     *
           *              working on a common directory               *
           ************************************************************
-------------------------------------------------------------------------------
                                 ORCA SCF
-------------------------------------------------------------------------------

------------
SCF SETTINGS
------------
Hamiltonian:
 Density Functional     Method          .... DFT(GTOs)
 Exchange Functional    Exchange        .... WB97X
 Correlation Functional Correlation     .... WB97X
 Gradients option       PostSCFGGA      .... off
 Hybrid DFT is turned on
   Fraction HF Exchange ScalHFX         ....  0.157706
   Scaling of DF-GGA-X  ScalDFX         ....  0.000000
   Scaling of DF-GGA-C  ScalDFC         ....  1.000000
   Scaling of DF-LDA-C  ScalLDAC        ....  1.000000
   Perturbative correction              ....  0.000000
   Density functional embedding theory  .... OFF
 Long-range corrected/Screened/Range-Separated Hybrid DFT is turned on
   Amount of maximum screened exact exchange              ....  0.842294
   Range separation parameter mu (erf(mu*r12)/r12)        ....  0.300000
 RI-approximation to the Coulomb term is turned on
   Number of AuxJ basis functions       .... 442
   RIJ-COSX (HFX calculated with COS-X)).... on


General Settings:
 Integral files         IntName         .... DFT_water_outs/1+-gasSP
 Hartree-Fock type      HFTyp           .... RHF
 Total Charge           Charge          ....    1
 Multiplicity           Mult            ....    1
 Number of Electrons    NEL             ....   52
 Basis Dimension        Dim             ....  143
 Nuclear Repulsion      ENuc            ....    307.5921969522 Eh

Convergence Acceleration:
 DIIS                   CNVDIIS         .... on
   Start iteration      DIISMaxIt       ....    12
   Startup error        DIISStart       ....  0.200000
   # of expansion vecs  DIISMaxEq       ....     5
   Bias factor          DIISBfac        ....   1.050
   Max. coefficient     DIISMaxC        ....  10.000
 Trust-Rad. Augm. Hess. CNVTRAH         .... auto
   Auto Start mean grad. ratio tolernc. ....  1.125000
   Auto Start start iteration           ....    20
   Auto Start num. interpolation iter.  ....    10
   Max. Number of Micro iterations      ....    16
   Max. Number of Macro iterations      .... Maxiter - #DIIS iter
   Number of Davidson start vectors     ....     2
   Converg. threshold I  (grad. norm)   ....   5.000e-05
   Converg. threshold II (energy diff.) ....   1.000e-06
   Grad. Scal. Fac. for Micro threshold ....   0.100
   Minimum threshold for Micro iter.    ....   0.010
   NR start threshold (gradient norm)   ....   0.001
   Initial trust radius                 ....   0.400
   Minimum AH scaling param. (alpha)    ....   1.000
   Maximum AH scaling param. (alpha)    .... 1000.000
   Orbital update algorithm             .... Taylor
   White noise on init. David. guess    .... on
   Maximum white noise                  ....   0.010
   Quad. conv. algorithm                .... NR
 SOSCF                  CNVSOSCF        .... on
   Start iteration      SOSCFMaxIt      ....   150
   Startup grad/error   SOSCFStart      ....  0.003300
 Level Shifting         CNVShift        .... on
   Level shift para.    LevelShift      ....    0.2500
   Turn off err/grad.   ShiftErr        ....    0.0010
 Zerner damping         CNVZerner       .... off
 Static damping         CNVDamp         .... on
   Fraction old density DampFac         ....    0.7000
   Max. Damping (<1)    DampMax         ....    0.9800
   Min. Damping (>=0)   DampMin         ....    0.0000
   Turn off err/grad.   DampErr         ....    0.1000
 Fernandez-Rico         CNVRico         .... off

SCF Procedure:
 Maximum # iterations   MaxIter         ....   125
 SCF integral mode      SCFMode         .... Direct
   Integral package                     .... SHARK and LIBINT hybrid scheme
 Reset frequency        DirectResetFreq ....    20
 Integral Threshold     Thresh          ....  1.000e-10 Eh
 Primitive CutOff       TCut            ....  1.000e-11 Eh

Convergence Tolerance:
 Convergence Check Mode ConvCheckMode   .... Total+1el-Energy
 Convergence forced     ConvForced      .... 0
 Energy Change          TolE            ....  1.000e-06 Eh
 1-El. energy change                    ....  1.000e-03 Eh
 Orbital Gradient       TolG            ....  5.000e-05
 Orbital Rotation angle TolX            ....  5.000e-05
 DIIS Error             TolErr          ....  1.000e-06


Diagonalization of the overlap matrix:
Smallest eigenvalue                        ... 1.561e-03
Time for diagonalization                   ...    0.004 sec
Threshold for overlap eigenvalues          ... 1.000e-08
Number of eigenvalues below threshold      ... 0
Time for construction of square roots      ...    0.003 sec
Total time needed                          ...    0.008 sec

Time for model grid setup =    0.082 sec

------------------------------
INITIAL GUESS: MODEL POTENTIAL
------------------------------
Loading Hartree-Fock densities                     ... done
Calculating cut-offs                               ... done
Initializing the effective Hamiltonian             ... done
Setting up the integral package (SHARK)            ... done
Starting the Coulomb interaction                   ... done (   0.0 sec)
Reading the grid                                   ... done
Mapping shells                                     ... done
Starting the XC term evaluation                    ... done (   0.1 sec)
  promolecular density results
     # of electrons  =     52.995677762
     EX              =    -41.374283091
     EC              =     -1.757913545
     EX+EC           =    -43.132196637
Transforming the Hamiltonian                       ... done (   0.0 sec)
Diagonalizing the Hamiltonian                      ... done (   0.0 sec)
Back transforming the eigenvectors                 ... done (   0.0 sec)
Now organizing SCF variables                       ... done
                      ------------------
                      INITIAL GUESS DONE (   0.2 sec)
                      ------------------
-------------------
DFT GRID GENERATION
-------------------

General Integration Accuracy     IntAcc      ... 4.388
Radial Grid Type                 RadialGrid  ... OptM3 with GC (2021)
Angular Grid (max. ang.)         AngularGrid ... 4 (Lebedev-302)
Angular grid pruning method      GridPruning ... 4 (adaptive)
Weight generation scheme         WeightScheme... Becke
Basis function cutoff            BFCut       ... 1.0000e-10
Integration weight cutoff        WCut        ... 1.0000e-14
Angular grids for H and He will be reduced by one unit
Partially contracted basis set               ... off
Rotationally invariant grid construction     ... off

Total number of grid points                  ...    71242
Total number of batches                      ...     1120
Average number of points per batch           ...       63
Average number of grid points per atom       ...     4453
Time for grid setup =    0.382 sec

--------------------
COSX GRID GENERATION
--------------------

GRIDX 1
-------
General Integration Accuracy     IntAcc      ... 3.816
Radial Grid Type                 RadialGrid  ... OptM3 with GC (2021)
Angular Grid (max. ang.)         AngularGrid ... 1 (Lebedev-50)
Angular grid pruning method      GridPruning ... 4 (adaptive)
Weight generation scheme         WeightScheme... Becke
Basis function cutoff            BFCut       ... 1.0000e-10
Integration weight cutoff        WCut        ... 1.0000e-14
Angular grids for H and He will be reduced by one unit
Partially contracted basis set               ... on
Rotationally invariant grid construction     ... off

Total number of grid points                  ...     9138
Total number of batches                      ...      149
Average number of points per batch           ...       61
Average number of grid points per atom       ...      571
UseSFitting                                  ... on

GRIDX 2
-------
General Integration Accuracy     IntAcc      ... 4.020
Radial Grid Type                 RadialGrid  ... OptM3 with GC (2021)
Angular Grid (max. ang.)         AngularGrid ... 2 (Lebedev-110)
Angular grid pruning method      GridPruning ... 4 (adaptive)
Weight generation scheme         WeightScheme... Becke
Basis function cutoff            BFCut       ... 1.0000e-10
Integration weight cutoff        WCut        ... 1.0000e-14
Angular grids for H and He will be reduced by one unit
Partially contracted basis set               ... on
Rotationally invariant grid construction     ... off

Total number of grid points                  ...    19509
Total number of batches                      ...      313
Average number of points per batch           ...       62
Average number of grid points per atom       ...     1219
UseSFitting                                  ... on

GRIDX 3
-------
General Integration Accuracy     IntAcc      ... 4.338
Radial Grid Type                 RadialGrid  ... OptM3 with GC (2021)
Angular Grid (max. ang.)         AngularGrid ... 3 (Lebedev-194)
Angular grid pruning method      GridPruning ... 4 (adaptive)
Weight generation scheme         WeightScheme... Becke
Basis function cutoff            BFCut       ... 1.0000e-10
Integration weight cutoff        WCut        ... 1.0000e-14
Angular grids for H and He will be reduced by one unit
Partially contracted basis set               ... on
Rotationally invariant grid construction     ... off

Total number of grid points                  ...    42811
Total number of batches                      ...      678
Average number of points per batch           ...       63
Average number of grid points per atom       ...     2676
UseSFitting                                  ... on

Time for X-Grid setup             =    0.371 sec

--------------
SCF ITERATIONS
--------------
ITER       Energy         Delta-E        Max-DP      RMS-DP      [F,P]     Damp
               ***  Starting incremental Fock matrix formation  ***
  0   -304.8592134330   0.000000000000 0.04428896  0.00128210  0.0975053 0.7000
  1   -304.8857636110  -0.026550177982 0.03125249  0.00095950  0.0611697 0.7000
                               ***Turning on DIIS***
  2   -304.9008810330  -0.015117422055 0.05972949  0.00203627  0.0339537 0.0000
  3   -304.9276806326  -0.026799599582 0.01972321  0.00052406  0.0189628 0.0000
                      *** Initiating the SOSCF procedure ***
                           *** Shutting down DIIS ***
                      *** Re-Reading the Fockian *** 
                      *** Removing any level shift *** 
ITER      Energy       Delta-E        Grad      Rot      Max-DP    RMS-DP
  4   -304.93024645  -0.0025658194  0.001156  0.001156  0.004186  0.000098
               *** Restarting incremental Fock matrix formation ***
  5   -304.93029112  -0.0000446714  0.000532  0.000926  0.002400  0.000059
  6   -304.93029691  -0.0000057891  0.000565  0.000737  0.000878  0.000022
  7   -304.93030084  -0.0000039296  0.000035  0.000081  0.000045  0.000003
                 **** Energy Check signals convergence ****
              ***Rediagonalizing the Fockian in SOSCF/NRSCF***

               *****************************************************
               *                     SUCCESS                       *
               *           SCF CONVERGED AFTER   8 CYCLES          *
               *****************************************************

Old exchange energy                            =    -13.489463453 Eh
New exchange energy                            =    -13.489462796 Eh
Exchange energy change after final integration =      0.000000657 Eh
Total energy after final integration           =   -304.930300226 Eh
Final COS-X integration done in                =     4.164 sec

----------------
TOTAL SCF ENERGY
----------------

Total Energy       :         -304.93030023 Eh           -8297.57531 eV

Components:
Nuclear Repulsion  :          307.59219695 Eh            8370.00920 eV
Electronic Energy  :         -612.52249718 Eh          -16667.58451 eV
One Electron Energy:        -1008.85168519 Eh          -27452.25000 eV
Two Electron Energy:          396.32918801 Eh           10784.66549 eV
Max COSX asymmetry :            0.00000139 Eh               0.00004 eV

Virial components:
Potential Energy   :         -606.37659115 Eh          -16500.34591 eV
Kinetic Energy     :          301.44629093 Eh            8202.77060 eV
Virial Ratio       :            2.01155765


DFT components:
N(Alpha)           :       26.000021292103 electrons
N(Beta)            :       26.000021292103 electrons
N(Total)           :       52.000042584207 electrons
E(XC)              :      -30.435931337490 Eh       
DFET-embed. en.    :        0.000000000000 Eh       

---------------
SCF CONVERGENCE
---------------

  Last Energy change         ...   -4.0832e-08  Tolerance :   1.0000e-06
  Last MAX-Density change    ...    1.4433e-15  Tolerance :   1.0000e-05
  Last RMS-Density change    ...    3.4187e-17  Tolerance :   1.0000e-06
  Last Orbital Gradient      ...    1.0914e-05  Tolerance :   5.0000e-05
  Last Orbital Rotation      ...    2.6680e-05  Tolerance :   5.0000e-05

             **** THE GBW FILE WAS UPDATED (DFT_water_outs/1+-gasSP.gbw) ****
             **** DENSITY DFT_water_outs/1+-gasSP.scfp WAS UPDATED ****
             **** ENERGY FILE WAS UPDATED (DFT_water_outs/1+-gasSP.en.tmp) ****
             **** THE GBW FILE WAS UPDATED (DFT_water_outs/1+-gasSP.gbw) ****
             **** DENSITY DFT_water_outs/1+-gasSP.scfp WAS UPDATED ****
----------------
ORBITAL ENERGIES
----------------

  NO   OCC          E(Eh)            E(eV) 
   0   2.0000     -14.676573      -399.3699 
   1   2.0000     -14.676534      -399.3688 
   2   2.0000     -10.548802      -287.0475 
   3   2.0000     -10.495135      -285.5871 
   4   2.0000     -10.494555      -285.5713 
   5   2.0000     -10.486213      -285.3444 
   6   2.0000     -10.486165      -285.3430 
   7   2.0000      -1.379708       -37.5438 
   8   2.0000      -1.256135       -34.1812 
   9   2.0000      -1.099395       -29.9160 
  10   2.0000      -1.062862       -28.9219 
  11   2.0000      -0.996861       -27.1260 
  12   2.0000      -0.934648       -25.4331 
  13   2.0000      -0.901508       -24.5313 
  14   2.0000      -0.843582       -22.9550 
  15   2.0000      -0.802098       -21.8262 
  16   2.0000      -0.760212       -20.6864 
  17   2.0000      -0.755496       -20.5581 
  18   2.0000      -0.741560       -20.1789 
  19   2.0000      -0.738728       -20.1018 
  20   2.0000      -0.729102       -19.8399 
  21   2.0000      -0.683133       -18.5890 
  22   2.0000      -0.678963       -18.4755 
  23   2.0000      -0.675023       -18.3683 
  24   2.0000      -0.578429       -15.7398 
  25   2.0000      -0.536910       -14.6101 
  26   0.0000      -0.099925        -2.7191 
  27   0.0000      -0.066528        -1.8103 
  28   0.0000      -0.008042        -0.2188 
  29   0.0000       0.004784         0.1302 
  30   0.0000       0.020754         0.5648 
  31   0.0000       0.032493         0.8842 
  32   0.0000       0.051250         1.3946 
  33   0.0000       0.068106         1.8533 
  34   0.0000       0.070785         1.9262 
  35   0.0000       0.082542         2.2461 
  36   0.0000       0.093943         2.5563 
  37   0.0000       0.094113         2.5610 
  38   0.0000       0.097008         2.6397 
  39   0.0000       0.135868         3.6972 
  40   0.0000       0.159729         4.3465 
  41   0.0000       0.161851         4.4042 
  42   0.0000       0.226275         6.1573 
  43   0.0000       0.280884         7.6433 
  44   0.0000       0.293937         7.9984 
  45   0.0000       0.300008         8.1636 
  46   0.0000       0.310496         8.4490 
  47   0.0000       0.344041         9.3618 
  48   0.0000       0.375308        10.2127 
  49   0.0000       0.380837        10.3631 
  50   0.0000       0.422167        11.4878 
  51   0.0000       0.428204        11.6520 
  52   0.0000       0.437574        11.9070 
  53   0.0000       0.495475        13.4826 
  54   0.0000       0.510731        13.8977 
  55   0.0000       0.517640        14.0857 
  56   0.0000       0.526760        14.3339 
  57   0.0000       0.544843        14.8259 
  58   0.0000       0.561459        15.2781 
  59   0.0000       0.583770        15.8852 
  60   0.0000       0.596748        16.2383 
  61   0.0000       0.600713        16.3462 
  62   0.0000       0.605857        16.4862 
  63   0.0000       0.607764        16.5381 
  64   0.0000       0.615120        16.7383 
  65   0.0000       0.622472        16.9383 
  66   0.0000       0.638107        17.3638 
  67   0.0000       0.655430        17.8352 
  68   0.0000       0.706732        19.2312 
  69   0.0000       0.728469        19.8227 
  70   0.0000       0.757157        20.6033 
  71   0.0000       0.794203        21.6114 
  72   0.0000       0.830652        22.6032 
  73   0.0000       0.834616        22.7111 
  74   0.0000       0.893295        24.3078 
  75   0.0000       1.022816        27.8322 
  76   0.0000       1.037382        28.2286 
  77   0.0000       1.053612        28.6703 
  78   0.0000       1.085483        29.5375 
  79   0.0000       1.136230        30.9184 
  80   0.0000       1.141915        31.0731 
  81   0.0000       1.152865        31.3711 
  82   0.0000       1.162257        31.6266 
  83   0.0000       1.229235        33.4492 
  84   0.0000       1.267160        34.4812 
  85   0.0000       1.334388        36.3105 
  86   0.0000       1.388997        37.7965 
  87   0.0000       1.454644        39.5829 
  88   0.0000       1.455625        39.6096 
  89   0.0000       1.464429        39.8491 
  90   0.0000       1.496660        40.7262 
  91   0.0000       1.518594        41.3231 
  92   0.0000       1.558762        42.4161 
  93   0.0000       1.650396        44.9095 
  94   0.0000       1.659062        45.1454 
  95   0.0000       1.673665        45.5427 
  96   0.0000       1.680285        45.7229 
  97   0.0000       1.698641        46.2224 
  98   0.0000       1.702371        46.3239 
  99   0.0000       1.729535        47.0630 
 100   0.0000       1.738493        47.3068 
 101   0.0000       1.742719        47.4218 
 102   0.0000       1.757145        47.8143 
 103   0.0000       1.803666        49.0802 
 104   0.0000       1.819800        49.5193 
 105   0.0000       1.845753        50.2255 
 106   0.0000       1.894958        51.5644 
 107   0.0000       1.901353        51.7384 
 108   0.0000       1.940833        52.8128 
 109   0.0000       1.960508        53.3481 
 110   0.0000       1.995425        54.2983 
 111   0.0000       2.006380        54.5964 
 112   0.0000       2.010454        54.7072 
 113   0.0000       2.078436        56.5571 
 114   0.0000       2.123588        57.7858 
 115   0.0000       2.215156        60.2775 
 116   0.0000       2.217594        60.3438 
 117   0.0000       2.245400        61.1004 
 118   0.0000       2.263789        61.6008 
 119   0.0000       2.324705        63.2584 
 120   0.0000       2.360559        64.2341 
 121   0.0000       2.363558        64.3157 
 122   0.0000       2.375385        64.6375 
 123   0.0000       2.402896        65.3861 
 124   0.0000       2.486103        67.6503 
 125   0.0000       2.501358        68.0654 
 126   0.0000       2.599270        70.7297 
 127   0.0000       2.651944        72.1631 
 128   0.0000       2.675470        72.8032 
 129   0.0000       2.695917        73.3596 
 130   0.0000       2.705673        73.6251 
 131   0.0000       2.716266        73.9134 
 132   0.0000       2.732444        74.3536 
 133   0.0000       2.765699        75.2585 
 134   0.0000       2.853433        77.6459 
 135   0.0000       2.858990        77.7971 
 136   0.0000       2.862871        77.9027 
 137   0.0000       2.863006        77.9064 
 138   0.0000       2.907297        79.1116 
 139   0.0000       3.069933        83.5371 
 140   0.0000       3.284248        89.3689 
 141   0.0000       3.401830        92.5685 
 142   0.0000       3.424605        93.1882 

                    ********************************
                    * MULLIKEN POPULATION ANALYSIS *
                    ********************************

-----------------------
MULLIKEN ATOMIC CHARGES
-----------------------
   0 C :    0.078497
   1 C :    0.078669
   2 N :   -0.222694
   3 N :   -0.223165
   4 C :    0.206625
   5 H :    0.107054
   6 H :    0.106963
   7 C :    0.060427
   8 C :    0.060543
   9 H :    0.110782
  10 H :    0.090818
  11 H :    0.109313
  12 H :    0.125186
  13 H :    0.110760
  14 H :    0.109114
  15 H :    0.091109
Sum of atomic charges:    1.0000000

--------------------------------
MULLIKEN REDUCED ORBITAL CHARGES
--------------------------------
  0 C s       :     3.137601  s :     3.137601
      pz      :     0.798164  p :     2.736708
      px      :     0.963055
      py      :     0.975490
      dz2     :     0.014592  d :     0.047193
      dxz     :     0.009919
      dyz     :     0.009504
      dx2y2   :     0.007677
      dxy     :     0.005502
  1 C s       :     3.137380  s :     3.137380
      pz      :     0.817713  p :     2.736761
      px      :     0.918309
      py      :     1.000738
      dz2     :     0.012736  d :     0.047190
      dxz     :     0.012685
      dyz     :     0.008103
      dx2y2   :     0.006911
      dxy     :     0.006754
  2 N s       :     3.405154  s :     3.405154
      pz      :     1.179413  p :     3.783862
      px      :     1.227051
      py      :     1.377398
      dz2     :     0.007142  d :     0.033679
      dxz     :     0.007981
      dyz     :     0.007492
      dx2y2   :     0.005924
      dxy     :     0.005140
  3 N s       :     3.405443  s :     3.405443
      pz      :     1.169931  p :     3.784065
      px      :     1.249931
      py      :     1.364202
      dz2     :     0.006460  d :     0.033658
      dxz     :     0.009906
      dyz     :     0.006520
      dx2y2   :     0.005932
      dxy     :     0.004839
  4 C s       :     3.081512  s :     3.081512
      pz      :     0.916281  p :     2.644213
      px      :     0.827692
      py      :     0.900240
      dz2     :     0.012228  d :     0.067650
      dxz     :     0.017824
      dyz     :     0.010697
      dx2y2   :     0.015719
      dxy     :     0.011182
  5 H s       :     0.868649  s :     0.868649
      pz      :     0.009404  p :     0.024297
      px      :     0.010468
      py      :     0.004425
  6 H s       :     0.868731  s :     0.868731
      pz      :     0.011851  p :     0.024307
      px      :     0.004985
      py      :     0.007470
  7 C s       :     3.038644  s :     3.038644
      pz      :     1.020939  p :     2.864605
      px      :     0.878819
      py      :     0.964847
      dz2     :     0.006449  d :     0.036324
      dxz     :     0.005799
      dyz     :     0.006069
      dx2y2   :     0.006874
      dxy     :     0.011133
  8 C s       :     3.038645  s :     3.038645
      pz      :     1.058817  p :     2.864507
      px      :     0.793955
      py      :     1.011734
      dz2     :     0.007475  d :     0.036306
      dxz     :     0.006358
      dyz     :     0.003072
      dx2y2   :     0.010424
      dxy     :     0.008977
  9 H s       :     0.865770  s :     0.865770
      pz      :     0.004280  p :     0.023448
      px      :     0.012623
      py      :     0.006545
 10 H s       :     0.885610  s :     0.885610
      pz      :     0.015027  p :     0.023573
      px      :     0.003644
      py      :     0.004901
 11 H s       :     0.867220  s :     0.867220
      pz      :     0.007126  p :     0.023467
      px      :     0.003445
      py      :     0.012896
 12 H s       :     0.850997  s :     0.850997
      pz      :     0.017068  p :     0.023817
      px      :     0.002756
      py      :     0.003992
 13 H s       :     0.865789  s :     0.865789
      pz      :     0.004570  p :     0.023451
      px      :     0.002745
      py      :     0.016136
 14 H s       :     0.867414  s :     0.867414
      pz      :     0.008531  p :     0.023472
      px      :     0.009636
      py      :     0.005305
 15 H s       :     0.885334  s :     0.885334
      pz      :     0.014838  p :     0.023557
      px      :     0.004065
      py      :     0.004654


                     *******************************
                     * LOEWDIN POPULATION ANALYSIS *
                     *******************************

----------------------
LOEWDIN ATOMIC CHARGES
----------------------
   0 C :    0.030259
   1 C :    0.030339
   2 N :    0.092107
   3 N :    0.091957
   4 C :    0.112747
   5 H :    0.063216
   6 H :    0.063147
   7 C :    0.057041
   8 C :    0.057098
   9 H :    0.057991
  10 H :    0.053750
  11 H :    0.058015
  12 H :    0.062522
  13 H :    0.057965
  14 H :    0.057993
  15 H :    0.053854

-------------------------------
LOEWDIN REDUCED ORBITAL CHARGES
-------------------------------
  0 C s       :     2.857174  s :     2.857174
      pz      :     0.922222  p :     2.997333
      px      :     1.060627
      py      :     1.014484
      dz2     :     0.037246  d :     0.115234
      dxz     :     0.025309
      dyz     :     0.022210
      dx2y2   :     0.016583
      dxy     :     0.013885
  1 C s       :     2.857138  s :     2.857138
      pz      :     0.941267  p :     2.997280
      px      :     1.017380
      py      :     1.038632
      dz2     :     0.031978  d :     0.115243
      dxz     :     0.033328
      dyz     :     0.017879
      dx2y2   :     0.014660
      dxy     :     0.017398
  2 N s       :     3.048868  s :     3.048868
      pz      :     1.214272  p :     3.783212
      px      :     1.239079
      py      :     1.329861
      dz2     :     0.018033  d :     0.075813
      dxz     :     0.019736
      dyz     :     0.016213
      dx2y2   :     0.011063
      dxy     :     0.010768
  3 N s       :     3.049013  s :     3.049013
      pz      :     1.213601  p :     3.783273
      px      :     1.241371
      py      :     1.328300
      dz2     :     0.016347  d :     0.075757
      dxz     :     0.024138
      dyz     :     0.014612
      dx2y2   :     0.010414
      dxy     :     0.010245
  4 C s       :     2.838284  s :     2.838284
      pz      :     1.017117  p :     2.891844
      px      :     0.923558
      py      :     0.951169
      dz2     :     0.027835  d :     0.157125
      dxz     :     0.044863
      dyz     :     0.023796
      dx2y2   :     0.034195
      dxy     :     0.026435
  5 H s       :     0.864915  s :     0.864915
      pz      :     0.027771  p :     0.071869
      px      :     0.029945
      py      :     0.014153
  6 H s       :     0.864967  s :     0.864967
      pz      :     0.034165  p :     0.071887
      px      :     0.015558
      py      :     0.022164
  7 C s       :     2.833919  s :     2.833919
      pz      :     1.054362  p :     3.018318
      px      :     0.949945
      py      :     1.014010
      dz2     :     0.017258  d :     0.090722
      dxz     :     0.013212
      dyz     :     0.015428
      dx2y2   :     0.017521
      dxy     :     0.027303
  8 C s       :     2.834054  s :     2.834054
      pz      :     1.082039  p :     3.018188
      px      :     0.887584
      py      :     1.048565
      dz2     :     0.019382  d :     0.090660
      dxz     :     0.016836
      dyz     :     0.006439
      dx2y2   :     0.027028
      dxy     :     0.020976
  9 H s       :     0.875414  s :     0.875414
      pz      :     0.011920  p :     0.066595
      px      :     0.035969
      py      :     0.018706
 10 H s       :     0.879956  s :     0.879956
      pz      :     0.041775  p :     0.066294
      px      :     0.010905
      py      :     0.013613
 11 H s       :     0.875405  s :     0.875405
      pz      :     0.020202  p :     0.066580
      px      :     0.010299
      py      :     0.036079
 12 H s       :     0.864877  s :     0.864877
      pz      :     0.048680  p :     0.072600
      px      :     0.010494
      py      :     0.013427
 13 H s       :     0.875428  s :     0.875428
      pz      :     0.012613  p :     0.066607
      px      :     0.008722
      py      :     0.045273
 14 H s       :     0.875422  s :     0.875422
      pz      :     0.024032  p :     0.066586
      px      :     0.027621
      py      :     0.014932
 15 H s       :     0.879892  s :     0.879892
      pz      :     0.041390  p :     0.066254
      px      :     0.011697
      py      :     0.013168


                      *****************************
                      * MAYER POPULATION ANALYSIS *
                      *****************************

  NA   - Mulliken gross atomic population
  ZA   - Total nuclear charge
  QA   - Mulliken gross atomic charge
  VA   - Mayer's total valence
  BVA  - Mayer's bonded valence
  FA   - Mayer's free valence

  ATOM       NA         ZA         QA         VA         BVA        FA
  0 C      5.9215     6.0000     0.0785     3.8598     3.8598    -0.0000
  1 C      5.9213     6.0000     0.0787     3.8599     3.8599    -0.0000
  2 N      7.2227     7.0000    -0.2227     3.5013     3.5013     0.0000
  3 N      7.2232     7.0000    -0.2232     3.5012     3.5012     0.0000
  4 C      5.7934     6.0000     0.2066     3.8662     3.8662    -0.0000
  5 H      0.8929     1.0000     0.1071     0.9943     0.9943     0.0000
  6 H      0.8930     1.0000     0.1070     0.9944     0.9944    -0.0000
  7 C      5.9396     6.0000     0.0604     3.8413     3.8413    -0.0000
  8 C      5.9395     6.0000     0.0605     3.8413     3.8413     0.0000
  9 H      0.8892     1.0000     0.1108     0.9881     0.9881     0.0000
 10 H      0.9092     1.0000     0.0908     0.9972     0.9972    -0.0000
 11 H      0.8907     1.0000     0.1093     0.9888     0.9888    -0.0000
 12 H      0.8748     1.0000     0.1252     0.9952     0.9952     0.0000
 13 H      0.8892     1.0000     0.1108     0.9880     0.9880    -0.0000
 14 H      0.8909     1.0000     0.1091     0.9888     0.9888    -0.0000
 15 H      0.9089     1.0000     0.0911     0.9971     0.9971     0.0000

  Mayer bond orders larger than 0.100000
B(  0-C ,  1-C ) :   1.6156 B(  0-C ,  2-N ) :   1.1756 B(  0-C ,  5-H ) :   0.9826 
B(  1-C ,  3-N ) :   1.1757 B(  1-C ,  6-H ) :   0.9826 B(  2-N ,  4-C ) :   1.3593 
B(  2-N ,  7-C ) :   0.8874 B(  3-N ,  4-C ) :   1.3591 B(  3-N ,  8-C ) :   0.8874 
B(  4-C , 12-H ) :   0.9683 B(  7-C ,  9-H ) :   0.9722 B(  7-C , 10-H ) :   0.9724 
B(  7-C , 11-H ) :   0.9722 B(  8-C , 13-H ) :   0.9722 B(  8-C , 14-H ) :   0.9722 
B(  8-C , 15-H ) :   0.9724 

-------
TIMINGS
-------

Total SCF time: 0 days 0 hours 0 min 21 sec 

Total time                  ....      21.438 sec
Sum of individual times     ....      21.041 sec  ( 98.1%)

Fock matrix formation       ....      20.023 sec  ( 93.4%)
  Split-RI-J                ....       0.894 sec  (  4.5% of F)
  Chain of spheres X        ....      16.304 sec  ( 81.4% of F)
  XC integration            ....       2.766 sec  ( 13.8% of F)
    Basis function eval.    ....       0.752 sec  ( 27.2% of XC)
    Density eval.           ....       0.684 sec  ( 24.7% of XC)
    XC-Functional eval.     ....       0.355 sec  ( 12.8% of XC)
    XC-Potential eval.      ....       0.494 sec  ( 17.9% of XC)
Diagonalization             ....       0.028 sec  (  0.1%)
Density matrix formation    ....       0.003 sec  (  0.0%)
Population analysis         ....       0.008 sec  (  0.0%)
Initial guess               ....       0.106 sec  (  0.5%)
Orbital Transformation      ....       0.000 sec  (  0.0%)
Orbital Orthonormalization  ....       0.000 sec  (  0.0%)
DIIS solution               ....       0.018 sec  (  0.1%)
SOSCF solution              ....       0.019 sec  (  0.1%)
Grid generation             ....       0.835 sec  (  3.9%)

Maximum memory used throughout the entire SCF-calculation: 51.3 MB


-------------------------------------------------------------------------------
                          DFT DISPERSION CORRECTION                            
                                                                               
                                 DFTD4 V2.5                                    
-------------------------------------------------------------------------------
The WB97X functional is recognized
Active option DFTDOPT                   ...         5   

Starting D4
-------------------------   ----------------
Dispersion correction           -0.001653238
-------------------------   ----------------


-------------------------   --------------------
FINAL SINGLE POINT ENERGY      -304.931953464103
-------------------------   --------------------


                            ***************************************
                            *     ORCA property calculations      *
                            ***************************************

                                    ---------------------
                                    Active property flags
                                    ---------------------
   (+) Dipole Moment


------------------------------------------------------------------------------
                       ORCA ELECTRIC PROPERTIES CALCULATION
------------------------------------------------------------------------------

Dipole Moment Calculation                       ... on
Quadrupole Moment Calculation                   ... off
Polarizability Calculation                      ... off
GBWName                                         ... DFT_water_outs/1+-gasSP.gbw
Electron density                                ... DFT_water_outs/1+-gasSP.scfp
The origin for moment calculation is the CENTER OF MASS  = ( 0.299550, -0.418345 -0.468788)

-------------
DIPOLE MOMENT
-------------
                                X             Y             Z
Electronic contribution:      0.32210      -0.28635      -1.47033
Nuclear contribution   :     -0.40022       0.35637       1.82533
                        -----------------------------------------
Total Dipole Moment    :     -0.07811       0.07001       0.35500
                        -----------------------------------------
Magnitude (a.u.)       :      0.37017
Magnitude (Debye)      :      0.94090



--------------------
Rotational spectrum 
--------------------
 
Rotational constants in cm-1:     0.227840     0.068833     0.053965 
Rotational constants in MHz :  6830.471274  2063.557947  1617.820735 

 Dipole components along the rotational axes: 
x,y,z [a.u.] :    -0.000245    -0.370171     0.000779 
x,y,z [Debye]:    -0.000622    -0.940900     0.001979 

 

Timings for individual modules:

Sum of individual times         ...       22.371 sec (=   0.373 min)
GTO integral calculation        ...        0.558 sec (=   0.009 min)   2.5 %
SCF iterations                  ...       21.813 sec (=   0.364 min)  97.5 %
                             ****ORCA TERMINATED NORMALLY****
TOTAL RUN TIME: 0 days 0 hours 0 minutes 22 seconds 939 msec
