
                                 *****************
                                 * O   R   C   A *
                                 *****************

                                            #,                                       
                                            ###                                      
                                            ####                                     
                                            #####                                    
                                            ######                                   
                                           ########,                                 
                                     ,,################,,,,,                         
                               ,,#################################,,                 
                          ,,##########################################,,             
                       ,#########################################, ''#####,          
                    ,#############################################,,   '####,        
                  ,##################################################,,,,####,       
                ,###########''''           ''''###############################       
              ,#####''   ,,,,##########,,,,          '''####'''          '####       
            ,##' ,,,,###########################,,,                        '##       
           ' ,,###''''                  '''############,,,                           
         ,,##''                                '''############,,,,        ,,,,,,###''
      ,#''                                            '''#######################'''  
     '                                                          ''''####''''         
             ,#######,   #######,   ,#######,      ##                                
            ,#'     '#,  ##    ##  ,#'     '#,    #''#        ######   ,####,        
            ##       ##  ##   ,#'  ##            #'  '#       #        #'  '#        
            ##       ##  #######   ##           ,######,      #####,   #    #        
            '#,     ,#'  ##    ##  '#,     ,#' ,#      #,         ##   #,  ,#        
             '#######'   ##     ##  '#######'  #'      '#     #####' # '####'        



                  #######################################################
                  #                        -***-                        #
                  #          Department of theory and spectroscopy      #
                  #    Directorship and core code : Frank Neese         #
                  #        Max Planck Institute fuer Kohlenforschung    #
                  #                Kaiser Wilhelm Platz 1               #
                  #                 D-45470 Muelheim/Ruhr               #
                  #                      Germany                        #
                  #                                                     #
                  #                  All rights reserved                #
                  #                        -***-                        #
                  #######################################################


                         Program Version 5.0.4 -  RELEASE  -


 With contributions from (in alphabetic order):
   Daniel Aravena         : Magnetic Suceptibility
   Michael Atanasov       : Ab Initio Ligand Field Theory (pilot matlab implementation)
   Alexander A. Auer      : GIAO ZORA, VPT2 properties, NMR spectrum
   Ute Becker             : Parallelization
   Giovanni Bistoni       : ED, misc. LED, open-shell LED, HFLD
   Martin Brehm           : Molecular dynamics
   Dmytro Bykov           : SCF Hessian
   Vijay G. Chilkuri      : MRCI spin determinant printing, contributions to CSF-ICE
   Dipayan Datta          : RHF DLPNO-CCSD density
   Achintya Kumar Dutta   : EOM-CC, STEOM-CC
   Dmitry Ganyushin       : Spin-Orbit,Spin-Spin,Magnetic field MRCI
   Miquel Garcia          : C-PCM and meta-GGA Hessian, CC/C-PCM, Gaussian charge scheme
   Yang Guo               : DLPNO-NEVPT2, F12-NEVPT2, CIM, IAO-localization
   Andreas Hansen         : Spin unrestricted coupled pair/coupled cluster methods
   Benjamin Helmich-Paris : MC-RPA, TRAH-SCF, COSX integrals
   Lee Huntington         : MR-EOM, pCC
   Robert Izsak           : Overlap fitted RIJCOSX, COSX-SCS-MP3, EOM
   Marcus Kettner         : VPT2
   Christian Kollmar      : KDIIS, OOCD, Brueckner-CCSD(T), CCSD density, CASPT2, CASPT2-K
   Simone Kossmann        : Meta GGA functionals, TD-DFT gradient, OOMP2, MP2 Hessian
   Martin Krupicka        : Initial AUTO-CI
   Lucas Lang             : DCDCAS
   Marvin Lechner         : AUTO-CI (C++ implementation), FIC-MRCC
   Dagmar Lenk            : GEPOL surface, SMD
   Dimitrios Liakos       : Extrapolation schemes; Compound Job, initial MDCI parallelization
   Dimitrios Manganas     : Further ROCIS development; embedding schemes
   Dimitrios Pantazis     : SARC Basis sets
   Anastasios Papadopoulos: AUTO-CI, single reference methods and gradients
   Taras Petrenko         : DFT Hessian,TD-DFT gradient, ASA, ECA, R-Raman, ABS, FL, XAS/XES, NRVS
   Peter Pinski           : DLPNO-MP2, DLPNO-MP2 Gradient
   Christoph Reimann      : Effective Core Potentials
   Marius Retegan         : Local ZFS, SOC
   Christoph Riplinger    : Optimizer, TS searches, QM/MM, DLPNO-CCSD(T), (RO)-DLPNO pert. Triples
   Tobias Risthaus        : Range-separated hybrids, TD-DFT gradient, RPA, STAB
   Michael Roemelt        : Original ROCIS implementation
   Masaaki Saitow         : Open-shell DLPNO-CCSD energy and density
   Barbara Sandhoefer     : DKH picture change effects
   Avijit Sen             : IP-ROCIS
   Kantharuban Sivalingam : CASSCF convergence, NEVPT2, FIC-MRCI
   Bernardo de Souza      : ESD, SOC TD-DFT
   Georgi Stoychev        : AutoAux, RI-MP2 NMR, DLPNO-MP2 response
   Willem Van den Heuvel  : Paramagnetic NMR
   Boris Wezisla          : Elementary symmetry handling
   Frank Wennmohs         : Technical directorship


 We gratefully acknowledge several colleagues who have allowed us to
 interface, adapt or use parts of their codes:
   Stefan Grimme, W. Hujo, H. Kruse, P. Pracht,  : VdW corrections, initial TS optimization,
                  C. Bannwarth, S. Ehlert          DFT functionals, gCP, sTDA/sTD-DF
   Ed Valeev, F. Pavosevic, A. Kumar             : LibInt (2-el integral package), F12 methods
   Garnet Chan, S. Sharma, J. Yang, R. Olivares  : DMRG
   Ulf Ekstrom                                   : XCFun DFT Library
   Mihaly Kallay                                 : mrcc  (arbitrary order and MRCC methods)
   Jiri Pittner, Ondrej Demel                    : Mk-CCSD
   Frank Weinhold                                : gennbo (NPA and NBO analysis)
   Christopher J. Cramer and Donald G. Truhlar   : smd solvation model
   Lars Goerigk                                  : TD-DFT with DH, B97 family of functionals
   V. Asgeirsson, H. Jonsson                     : NEB implementation
   FAccTs GmbH                                   : IRC, NEB, NEB-TS, DLPNO-Multilevel, CI-OPT
                                                   MM, QMMM, 2- and 3-layer-ONIOM, Crystal-QMMM,
                                                   LR-CPCM, SF, NACMEs, symmetry and pop. for TD-DFT,
                                                   nearIR, NL-DFT gradient (VV10), updates on ESD,
                                                   ML-optimized integration grids
   S Lehtola, MJT Oliveira, MAL Marques          : LibXC Library
   Liviu Ungur et al                             : ANISO software


 Your calculation uses the libint2 library for the computation of 2-el integrals
 For citations please refer to: http://libint.valeyev.net

 Your ORCA version has been built with support for libXC version: 5.1.0
 For citations please refer to: https://tddft.org/programs/libxc/

 This ORCA versions uses:
   CBLAS   interface :  Fast vector & matrix operations
   LAPACKE interface :  Fast linear algebra routines
   SCALAPACK package :  Parallel linear algebra routines
   Shared memory     :  Shared parallel matrices
   BLAS/LAPACK       :  OpenBLAS 0.3.15  USE64BITINT DYNAMIC_ARCH NO_AFFINITY SkylakeX SINGLE_THREADED
        Core in use  :  SkylakeX
   Copyright (c) 2011-2014, The OpenBLAS Project




***************************************
The coordinates will be read from file: 10+.xyz
***************************************


Your calculation utilizes the atom-pairwise dispersion correction
based on tight binding partial charges (D4)
Cite in your paper:
E.Caldeweyher, C.Bannwarth, S.Grimme, J.Chem.Phys., (2017), 147, 034112.
E.Caldeweyher, S.Ehlert, A.Hansen, H.Neugebauer, S.Grimme, J.Chem.Phys., (2018), in progress.
   

XCFun DFT library Copyright 2009-2010 Ulf Ekstrom and contributors.
See http://admol.org/xcfun for more information.
This is free software; see the source code for copying conditions.
There is ABSOLUTELY NO WARRANTY; not even for MERCHANTABILITY or FITNESS FOR A PARTICULAR PURPOSE.
For details see the documentation.
Scientific users of this library should cite U. Ekstrom, L. Visscher, R. Bast, A. J. Thorvaldsen and K. Ruud;
J.Chem.Theor.Comp. 2010, DOI: 10.1021/ct100117s
XCFun Version 0.99 

================================================================================

----- Orbital basis set information -----
Your calculation utilizes the basis: def2-SVP
   F. Weigend and R. Ahlrichs, Phys. Chem. Chem. Phys. 7, 3297 (2005).

----- AuxJ basis set information -----
Your calculation utilizes the auxiliary basis: def2/J
   F. Weigend, Phys. Chem. Chem. Phys. 8, 1057 (2006).

================================================================================
                                        WARNINGS
                       Please study these warnings very carefully!
================================================================================


INFO   : the flag for use of the SHARK integral package has been found!

================================================================================
                                       INPUT FILE
================================================================================
NAME = 10+.inp
|  1> # ORCA 5.0.4 - 10+.inp # write input file
|  2> # Basic Mode
|  3> #
|  4> ! Freq wB97X Def2-SVP D4 SlowConv TightSCF DEFGRID2 Def2/J RIJCOSX 
|  5> 
|  6> 
|  7> 
|  8> %maxcore 4500
|  9> 
| 10> %geom
| 11> Maxiter 150
| 12> END
| 13> 
| 14> * xyzfile 1 1 10+.xyz
| 15> 
| 16>                          ****END OF INPUT****
================================================================================

                       ****************************
                       * Single Point Calculation *
                       ****************************

---------------------------------
CARTESIAN COORDINATES (ANGSTROEM)
---------------------------------
  C     -0.067683    1.112356    1.248474
  C     -0.068945   -0.959562    0.000000
  C     -0.067683    1.112356   -1.248474
  C      0.561895    1.706088   -0.000000
  H     -1.105754    1.460156    1.383121
  H     -0.071680   -2.054425   -0.000000
  H      0.501110    1.392500   -2.146431
  H      1.644471    1.501677   -0.000000
  N     -0.068599   -0.349025    1.164092
  N     -0.068601   -0.349025   -1.164092
  H     -1.105754    1.460157   -1.383122
  H      0.428817    2.796426    0.000000
  H      0.501110    1.392501    2.146431
  C     -0.109217   -1.099342    2.410388
  H     -0.144312   -2.175028    2.196723
  H      0.785775   -0.875494    3.009112
  H     -1.004184   -0.816030    2.983849
  C     -0.109217   -1.099342   -2.410387
  H      0.785776   -0.875495   -3.009110
  H     -0.144315   -2.175028   -2.196723
  H     -1.004183   -0.816028   -2.983850

----------------------------
CARTESIAN COORDINATES (A.U.)
----------------------------
  NO LB      ZA    FRAG     MASS         X           Y           Z
   0 C     6.0000    0    12.011   -0.127902    2.102048    2.359274
   1 C     6.0000    0    12.011   -0.130287   -1.813309    0.000000
   2 C     6.0000    0    12.011   -0.127902    2.102048   -2.359274
   3 C     6.0000    0    12.011    1.061828    3.224039   -0.000000
   4 H     1.0000    0     1.008   -2.089572    2.759295    2.613720
   5 H     1.0000    0     1.008   -0.135456   -3.882301   -0.000000
   6 H     1.0000    0     1.008    0.946961    2.631444   -4.056167
   7 H     1.0000    0     1.008    3.107600    2.837758   -0.000000
   8 N     7.0000    0    14.007   -0.129633   -0.659562    2.199815
   9 N     7.0000    0    14.007   -0.129637   -0.659562   -2.199815
  10 H     1.0000    0     1.008   -2.089572    2.759297   -2.613722
  11 H     1.0000    0     1.008    0.810347    5.284479    0.000000
  12 H     1.0000    0     1.008    0.946961    2.631446    4.056167
  13 C     6.0000    0    12.011   -0.206390   -2.077455    4.554973
  14 H     1.0000    0     1.008   -0.272710   -4.110207    4.151205
  15 H     1.0000    0     1.008    1.484900   -1.654444    5.686398
  16 H     1.0000    0     1.008   -1.897633   -1.542073    5.638657
  17 C     6.0000    0    12.011   -0.206390   -2.077455   -4.554971
  18 H     1.0000    0     1.008    1.484901   -1.654446   -5.686394
  19 H     1.0000    0     1.008   -0.272716   -4.110207   -4.151205
  20 H     1.0000    0     1.008   -1.897631   -1.542069   -5.638659

--------------------------------
INTERNAL COORDINATES (ANGSTROEM)
--------------------------------
 C      0   0   0     0.000000000000     0.00000000     0.00000000
 C      1   0   0     2.418994237290     0.00000000     0.00000000
 C      2   1   0     2.418994237290    62.14373640     0.00000000
 C      1   2   3     1.519069937358    84.88315742   335.42596001
 H      1   2   3     1.103034929479   109.42555237    86.48099644
 H      2   1   3     1.094866416050   148.92796216   180.20969674
 H      3   2   1     1.099241971285   129.80390096   137.67471521
 H      4   1   2     1.101705338417   109.55639073   277.87245441
 N      2   1   3     1.314483066665    31.25224702   180.00217404
 N      2   1   3     1.314483066140    93.39598345     0.00000000
 H      3   2   1     1.103035366861   109.42561996   273.51898485
 H      4   1   2     1.098429200417   109.74054588   159.88027733
 H      1   2   3     1.099242226137   129.80394801   222.32530834
 C      9   2   1     1.455293489997   121.26054834   178.15251285
 H     14   9   2     1.097262394255   109.85077706   359.61721292
 H     14   9   2     1.099813182020   109.78897732   119.91750323
 H     14   9   2     1.100040516960   109.65554537   239.66904293
 C     10   2   1     1.455292577790   121.26053224   181.84927356
 H     18  10   2     1.099813247868   109.78901392   240.08271921
 H     18  10   2     1.097262295486   109.85084956     0.38313047
 H     18  10   2     1.100041261099   109.65549069   120.33125715

---------------------------
INTERNAL COORDINATES (A.U.)
---------------------------
 C      0   0   0     0.000000000000     0.00000000     0.00000000
 C      1   0   0     4.571236628013     0.00000000     0.00000000
 C      2   1   0     4.571236628013    62.14373640     0.00000000
 C      1   2   3     2.870626159879    84.88315742   335.42596001
 H      1   2   3     2.084433932864   109.42555237    86.48099644
 H      2   1   3     2.068997679562   148.92796216   180.20969674
 H      3   2   1     2.077266280640   129.80390096   137.67471521
 H      4   1   2     2.081921369888   109.55639073   277.87245441
 N      2   1   3     2.484013003674    31.25224702   180.00217404
 N      2   1   3     2.484013002682    93.39598345     0.00000000
 H      3   2   1     2.084434759396   109.42561996   273.51898485
 H      4   1   2     2.075730366290   109.74054588   159.88027733
 H      1   2   3     2.077266762241   129.80394801   222.32530834
 C      9   2   1     2.750106140574   121.26054834   178.15251285
 H     14   9   2     2.073525422192   109.85077706   359.61721292
 H     14   9   2     2.078345712493   109.78897732   119.91750323
 H     14   9   2     2.078775313272   109.65554537   239.66904293
 C     10   2   1     2.750104416751   121.26053224   181.84927356
 H     18  10   2     2.078345836930   109.78901392   240.08271921
 H     18  10   2     2.073525235547   109.85084956     0.38313047
 H     18  10   2     2.078776719491   109.65549069   120.33125715

---------------------
BASIS SET INFORMATION
---------------------
There are 3 groups of distinct atoms

 Group   1 Type C   : 7s4p1d contracted to 3s2p1d pattern {511/31/1}
 Group   2 Type H   : 4s1p contracted to 2s1p pattern {31/1}
 Group   3 Type N   : 7s4p1d contracted to 3s2p1d pattern {511/31/1}

Atom   0C    basis set group =>   1
Atom   1C    basis set group =>   1
Atom   2C    basis set group =>   1
Atom   3C    basis set group =>   1
Atom   4H    basis set group =>   2
Atom   5H    basis set group =>   2
Atom   6H    basis set group =>   2
Atom   7H    basis set group =>   2
Atom   8N    basis set group =>   3
Atom   9N    basis set group =>   3
Atom  10H    basis set group =>   2
Atom  11H    basis set group =>   2
Atom  12H    basis set group =>   2
Atom  13C    basis set group =>   1
Atom  14H    basis set group =>   2
Atom  15H    basis set group =>   2
Atom  16H    basis set group =>   2
Atom  17C    basis set group =>   1
Atom  18H    basis set group =>   2
Atom  19H    basis set group =>   2
Atom  20H    basis set group =>   2
---------------------------------
AUXILIARY/J BASIS SET INFORMATION
---------------------------------
There are 3 groups of distinct atoms

 Group   1 Type C   : 12s5p4d2f1g contracted to 6s4p3d1f1g pattern {711111/2111/211/2/1}
 Group   2 Type H   : 5s2p1d contracted to 3s1p1d pattern {311/2/1}
 Group   3 Type N   : 12s5p4d2f1g contracted to 6s4p3d1f1g pattern {711111/2111/211/2/1}

Atom   0C    basis set group =>   1
Atom   1C    basis set group =>   1
Atom   2C    basis set group =>   1
Atom   3C    basis set group =>   1
Atom   4H    basis set group =>   2
Atom   5H    basis set group =>   2
Atom   6H    basis set group =>   2
Atom   7H    basis set group =>   2
Atom   8N    basis set group =>   3
Atom   9N    basis set group =>   3
Atom  10H    basis set group =>   2
Atom  11H    basis set group =>   2
Atom  12H    basis set group =>   2
Atom  13C    basis set group =>   1
Atom  14H    basis set group =>   2
Atom  15H    basis set group =>   2
Atom  16H    basis set group =>   2
Atom  17C    basis set group =>   1
Atom  18H    basis set group =>   2
Atom  19H    basis set group =>   2
Atom  20H    basis set group =>   2
------------------------------------------------------------------------------
                           ORCA GTO INTEGRAL CALCULATION
                           -- RI-GTO INTEGRALS CHOSEN --
------------------------------------------------------------------------------
------------------------------------------------------------------------------
                   ___                                                        
                  /   \      - P O W E R E D   B Y -                         
                 /     \                                                     
                 |  |  |   _    _      __       _____    __    __             
                 |  |  |  | |  | |    /  \     |  _  \  |  |  /  |          
                  \  \/   | |  | |   /    \    | | | |  |  | /  /          
                 / \  \   | |__| |  /  /\  \   | |_| |  |  |/  /          
                |  |  |   |  __  | /  /__\  \  |    /   |      \           
                |  |  |   | |  | | |   __   |  |    \   |  |\   \          
                \     /   | |  | | |  |  |  |  | |\  \  |  | \   \       
                 \___/    |_|  |_| |__|  |__|  |_| \__\ |__|  \__/        
                                                                              
                      - O R C A' S   B I G   F R I E N D -                    
                                      &                                       
                       - I N T E G R A L  F E E D E R -                       
                                                                              
 v1 FN, 2020, v2 2021                                                         
------------------------------------------------------------------------------


Reading SHARK input file 10+.SHARKINP.tmp ... ok
----------------------
SHARK INTEGRAL PACKAGE
----------------------

Number of atoms                             ...     21
Number of basis functions                   ...    177
Number of shells                            ...     87
Maximum angular momentum                    ...      2
Integral batch strategy                     ... SHARK/LIBINT Hybrid
RI-J (if used) integral strategy            ... SPLIT-RIJ (Revised 2003 algorithm where possible)
Printlevel                                  ...      1
Contraction scheme used                     ... SEGMENTED contraction
Coulomb Range Separation                    ... NOT USED
Exchange Range Separation                   ... Long Range
   Mu parameter                             ...  0.300000
   Scaling (regular/separated)              ...  0.157706  0.842294
Finite Nucleus Model                        ... NOT USED
Auxiliary Coulomb fitting basis             ... AVAILABLE
   # of basis functions in Aux-J            ...    535
   # of shells in Aux-J                     ...    185
   Maximum angular momentum in Aux-J        ...      4
Auxiliary J/K fitting basis                 ... NOT available
Auxiliary Correlation fitting basis         ... NOT available
Auxiliary 'external' fitting basis          ... NOT available
Integral threshold                          ...     2.500000e-11
Primitive cut-off                           ...     2.500000e-12
Primitive pair pre-selection threshold      ...     2.500000e-12

Calculating pre-screening integrals         ... done (  0.0 sec) Dimension = 87
Organizing shell pair data                  ... done (  0.0 sec)
Shell pair information
Total number of shell pairs                 ...      3828
Shell pairs after pre-screening             ...      3623
Total number of primitive shell pairs       ...     13184
Primitive shell pairs kept                  ...      9277
          la=0 lb=0:   1223 shell pairs
          la=1 lb=0:   1364 shell pairs
          la=1 lb=1:    398 shell pairs
          la=2 lb=0:    382 shell pairs
          la=2 lb=1:    220 shell pairs
          la=2 lb=2:     36 shell pairs

Calculating one electron integrals          ... done (  0.0 sec)
Calculating RI/J V-Matrix + Cholesky decomp.... done (  0.0 sec)
Calculating Nuclear repulsion               ... done (  0.0 sec) ENN=    409.212915922464 Eh

SHARK setup successfully completed in   0.2 seconds

Maximum memory used throughout the entire GTOINT-calculation: 24.1 MB
-------------------------------------------------------------------------------
                                 ORCA SCF
-------------------------------------------------------------------------------

------------
SCF SETTINGS
------------
Hamiltonian:
 Density Functional     Method          .... DFT(GTOs)
 Exchange Functional    Exchange        .... WB97X
 Correlation Functional Correlation     .... WB97X
 Gradients option       PostSCFGGA      .... off
 Hybrid DFT is turned on
   Fraction HF Exchange ScalHFX         ....  0.157706
   Scaling of DF-GGA-X  ScalDFX         ....  0.000000
   Scaling of DF-GGA-C  ScalDFC         ....  1.000000
   Scaling of DF-LDA-C  ScalLDAC        ....  1.000000
   Perturbative correction              ....  0.000000
   Density functional embedding theory  .... OFF
 Long-range corrected/Screened/Range-Separated Hybrid DFT is turned on
   Amount of maximum screened exact exchange              ....  0.842294
   Range separation parameter mu (erf(mu*r12)/r12)        ....  0.300000
 RI-approximation to the Coulomb term is turned on
   Number of AuxJ basis functions       .... 535
   RIJ-COSX (HFX calculated with COS-X)).... on


General Settings:
 Integral files         IntName         .... 10+
 Hartree-Fock type      HFTyp           .... RHF
 Total Charge           Charge          ....    1
 Multiplicity           Mult            ....    1
 Number of Electrons    NEL             ....   62
 Basis Dimension        Dim             ....  177
 Nuclear Repulsion      ENuc            ....    409.2129159225 Eh

Convergence Acceleration:
 DIIS                   CNVDIIS         .... on
   Start iteration      DIISMaxIt       ....     0
   Startup error        DIISStart       ....  0.200000
   # of expansion vecs  DIISMaxEq       ....     5
   Bias factor          DIISBfac        ....   1.050
   Max. coefficient     DIISMaxC        ....  10.000
 Trust-Rad. Augm. Hess. CNVTRAH         .... auto
   Auto Start mean grad. ratio tolernc. ....  1.125000
   Auto Start start iteration           ....    20
   Auto Start num. interpolation iter.  ....    10
   Max. Number of Micro iterations      ....    16
   Max. Number of Macro iterations      .... Maxiter - #DIIS iter
   Number of Davidson start vectors     ....     2
   Converg. threshold I  (grad. norm)   ....   1.000e-05
   Converg. threshold II (energy diff.) ....   1.000e-08
   Grad. Scal. Fac. for Micro threshold ....   0.100
   Minimum threshold for Micro iter.    ....   0.010
   NR start threshold (gradient norm)   ....   0.001
   Initial trust radius                 ....   0.400
   Minimum AH scaling param. (alpha)    ....   1.000
   Maximum AH scaling param. (alpha)    .... 1000.000
   Orbital update algorithm             .... Taylor
   White noise on init. David. guess    .... on
   Maximum white noise                  ....   0.010
   Quad. conv. algorithm                .... NR
 SOSCF                  CNVSOSCF        .... on
   Start iteration      SOSCFMaxIt      ....   150
   Startup grad/error   SOSCFStart      ....  0.001000
 Level Shifting         CNVShift        .... on
   Level shift para.    LevelShift      ....    0.2500
   Turn off err/grad.   ShiftErr        ....    0.0000
 Zerner damping         CNVZerner       .... off
 Static damping         CNVDamp         .... on
   Fraction old density DampFac         ....    0.8500
   Max. Damping (<1)    DampMax         ....    0.9800
   Min. Damping (>=0)   DampMin         ....    0.0000
   Turn off err/grad.   DampErr         ....    0.0300
 Fernandez-Rico         CNVRico         .... off

SCF Procedure:
 Maximum # iterations   MaxIter         ....   125
 SCF integral mode      SCFMode         .... Direct
   Integral package                     .... SHARK and LIBINT hybrid scheme
 Reset frequency        DirectResetFreq ....    20
 Integral Threshold     Thresh          ....  2.500e-11 Eh
 Primitive CutOff       TCut            ....  2.500e-12 Eh

Convergence Tolerance:
 Convergence Check Mode ConvCheckMode   .... Total+1el-Energy
 Convergence forced     ConvForced      .... 0
 Energy Change          TolE            ....  1.000e-08 Eh
 1-El. energy change                    ....  1.000e-05 Eh
 Orbital Gradient       TolG            ....  1.000e-05
 Orbital Rotation angle TolX            ....  1.000e-05
 DIIS Error             TolErr          ....  5.000e-07


Diagonalization of the overlap matrix:
Smallest eigenvalue                        ... 2.073e-03
Time for diagonalization                   ...    0.006 sec
Threshold for overlap eigenvalues          ... 1.000e-08
Number of eigenvalues below threshold      ... 0
Time for construction of square roots      ...    0.002 sec
Total time needed                          ...    0.008 sec

Time for model grid setup =    0.293 sec

------------------------------
INITIAL GUESS: MODEL POTENTIAL
------------------------------
Loading Hartree-Fock densities                     ... done
Calculating cut-offs                               ... done
Initializing the effective Hamiltonian             ... done
Setting up the integral package (SHARK)            ... done
Starting the Coulomb interaction                   ... done (   0.3 sec)
Reading the grid                                   ... done
Mapping shells                                     ... done
Starting the XC term evaluation                    ... done (   0.4 sec)
  promolecular density results
     # of electrons  =     62.996986984
     EX              =    -47.678196282
     EC              =     -2.090596982
     EX+EC           =    -49.768793264
Transforming the Hamiltonian                       ... done (   0.0 sec)
Diagonalizing the Hamiltonian                      ... done (   0.0 sec)
Back transforming the eigenvectors                 ... done (   0.0 sec)
Now organizing SCF variables                       ... done
                      ------------------
                      INITIAL GUESS DONE (   1.0 sec)
                      ------------------
-------------------
DFT GRID GENERATION
-------------------

General Integration Accuracy     IntAcc      ... 4.388
Radial Grid Type                 RadialGrid  ... OptM3 with GC (2021)
Angular Grid (max. ang.)         AngularGrid ... 4 (Lebedev-302)
Angular grid pruning method      GridPruning ... 4 (adaptive)
Weight generation scheme         WeightScheme... Becke
Basis function cutoff            BFCut       ... 1.0000e-11
Integration weight cutoff        WCut        ... 1.0000e-14
Angular grids for H and He will be reduced by one unit
Partially contracted basis set               ... off
Rotationally invariant grid construction     ... off

Total number of grid points                  ...    89500
Total number of batches                      ...     1409
Average number of points per batch           ...       63
Average number of grid points per atom       ...     4262
Time for grid setup =    1.184 sec

--------------------
COSX GRID GENERATION
--------------------

GRIDX 1
-------
General Integration Accuracy     IntAcc      ... 3.816
Radial Grid Type                 RadialGrid  ... OptM3 with GC (2021)
Angular Grid (max. ang.)         AngularGrid ... 1 (Lebedev-50)
Angular grid pruning method      GridPruning ... 4 (adaptive)
Weight generation scheme         WeightScheme... Becke
Basis function cutoff            BFCut       ... 1.0000e-11
Integration weight cutoff        WCut        ... 1.0000e-14
Angular grids for H and He will be reduced by one unit
Partially contracted basis set               ... on
Rotationally invariant grid construction     ... off

Total number of grid points                  ...    11510
Total number of batches                      ...      192
Average number of points per batch           ...       59
Average number of grid points per atom       ...      548
UseSFitting                                  ... on

GRIDX 2
-------
General Integration Accuracy     IntAcc      ... 4.020
Radial Grid Type                 RadialGrid  ... OptM3 with GC (2021)
Angular Grid (max. ang.)         AngularGrid ... 2 (Lebedev-110)
Angular grid pruning method      GridPruning ... 4 (adaptive)
Weight generation scheme         WeightScheme... Becke
Basis function cutoff            BFCut       ... 1.0000e-11
Integration weight cutoff        WCut        ... 1.0000e-14
Angular grids for H and He will be reduced by one unit
Partially contracted basis set               ... on
Rotationally invariant grid construction     ... off

Total number of grid points                  ...    24032
Total number of batches                      ...      385
Average number of points per batch           ...       62
Average number of grid points per atom       ...     1144
UseSFitting                                  ... on

GRIDX 3
-------
General Integration Accuracy     IntAcc      ... 4.338
Radial Grid Type                 RadialGrid  ... OptM3 with GC (2021)
Angular Grid (max. ang.)         AngularGrid ... 3 (Lebedev-194)
Angular grid pruning method      GridPruning ... 4 (adaptive)
Weight generation scheme         WeightScheme... Becke
Basis function cutoff            BFCut       ... 1.0000e-11
Integration weight cutoff        WCut        ... 1.0000e-14
Angular grids for H and He will be reduced by one unit
Partially contracted basis set               ... on
Rotationally invariant grid construction     ... off

Total number of grid points                  ...    52505
Total number of batches                      ...      831
Average number of points per batch           ...       63
Average number of grid points per atom       ...     2500
UseSFitting                                  ... on

Time for X-Grid setup             =    1.671 sec

--------------
SCF ITERATIONS
--------------
ITER       Energy         Delta-E        Max-DP      RMS-DP      [F,P]     Damp
               ***  Starting incremental Fock matrix formation  ***
  0   -345.3171145086   0.000000000000 0.02737029  0.00065089  0.1064157 0.8500
  1   -345.3391463164  -0.022031807782 0.02486494  0.00060435  0.0857947 0.8500
                               ***Turning on DIIS***
  2   -345.3559356861  -0.016789369782 0.01965903  0.00049131  0.0663176 0.8500
  3   -345.3684978849  -0.012562198760 0.01279241  0.00035353  0.0508071 0.8500
  4   -345.3782579249  -0.009760039965 0.00889135  0.00027413  0.0406527 0.8500
  5   -345.3859839525  -0.007726027675 0.00693616  0.00022676  0.0337093 0.8500
  6   -345.3922895988  -0.006305646255 0.03824518  0.00127949  0.0284224 0.0000
                      *** Initiating the SOSCF procedure ***
                           *** Shutting down DIIS ***
                      *** Re-Reading the Fockian *** 
                      *** Removing any level shift *** 
ITER      Energy       Delta-E        Grad      Rot      Max-DP    RMS-DP
  7   -345.42560152  -0.0333119245  0.000448  0.000448  0.001525  0.000044
               *** Restarting incremental Fock matrix formation ***
  8   -345.42563834  -0.0000368154  0.000400  0.000786  0.001024  0.000027
  9   -345.42564123  -0.0000028913  0.000187  0.000234  0.000444  0.000014
 10   -345.42564204  -0.0000008124  0.000040  0.000043  0.000079  0.000003
 11   -345.42564208  -0.0000000411  0.000010  0.000016  0.000044  0.000001
 12   -345.42564209  -0.0000000113  0.000003  0.000006  0.000011  0.000000
                  ***Gradient check signals convergence***
              ***Rediagonalizing the Fockian in SOSCF/NRSCF***

               *****************************************************
               *                     SUCCESS                       *
               *           SCF CONVERGED AFTER  13 CYCLES          *
               *****************************************************

Old exchange energy                            =    -15.846695759 Eh
New exchange energy                            =    -15.846639164 Eh
Exchange energy change after final integration =      0.000056595 Eh
Total energy after final integration           =   -345.425585497 Eh
Final COS-X integration done in                =    32.975 sec

----------------
TOTAL SCF ENERGY
----------------

Total Energy       :         -345.42558550 Eh           -9399.50804 eV

Components:
Nuclear Repulsion  :          409.21291592 Eh           11135.24955 eV
Electronic Energy  :         -754.63850142 Eh          -20534.75759 eV
One Electron Energy:        -1264.19357366 Eh          -34400.45602 eV
Two Electron Energy:          509.55507225 Eh           13865.69843 eV
Max COSX asymmetry :            0.00000202 Eh               0.00006 eV

Virial components:
Potential Energy   :         -686.71366885 Eh          -18686.42893 eV
Kinetic Energy     :          341.28808336 Eh            9286.92089 eV
Virial Ratio       :            2.01212320


DFT components:
N(Alpha)           :       31.000020713736 electrons
N(Beta)            :       31.000020713736 electrons
N(Total)           :       62.000041427471 electrons
E(XC)              :      -35.034943000572 Eh       
DFET-embed. en.    :        0.000000000000 Eh       

---------------
SCF CONVERGENCE
---------------

  Last Energy change         ...    3.4036e-09  Tolerance :   1.0000e-08
  Last MAX-Density change    ...    3.1086e-15  Tolerance :   1.0000e-07
  Last RMS-Density change    ...    4.1910e-17  Tolerance :   5.0000e-09
  Last Orbital Gradient      ...    8.9689e-07  Tolerance :   1.0000e-05
  Last Orbital Rotation      ...    2.3411e-06  Tolerance :   1.0000e-05

             **** THE GBW FILE WAS UPDATED (10+.gbw) ****
             **** DENSITY 10+.scfp WAS UPDATED ****
             **** ENERGY FILE WAS UPDATED (10+.en.tmp) ****
             **** THE GBW FILE WAS UPDATED (10+.gbw) ****
             **** DENSITY 10+.scfp WAS UPDATED ****
----------------
ORBITAL ENERGIES
----------------

  NO   OCC          E(Eh)            E(eV) 
   0   2.0000     -14.638053      -398.3217 
   1   2.0000     -14.638051      -398.3216 
   2   2.0000     -10.556532      -287.2579 
   3   2.0000     -10.477459      -285.1061 
   4   2.0000     -10.477444      -285.1057 
   5   2.0000     -10.470022      -284.9038 
   6   2.0000     -10.470009      -284.9034 
   7   2.0000     -10.439251      -284.0665 
   8   2.0000      -1.320745       -35.9393 
   9   2.0000      -1.242647       -33.8141 
  10   2.0000      -1.099971       -29.9317 
  11   2.0000      -1.042589       -28.3703 
  12   2.0000      -1.009358       -27.4660 
  13   2.0000      -0.958654       -26.0863 
  14   2.0000      -0.945140       -25.7186 
  15   2.0000      -0.837098       -22.7786 
  16   2.0000      -0.811984       -22.0952 
  17   2.0000      -0.805064       -21.9069 
  18   2.0000      -0.778443       -21.1825 
  19   2.0000      -0.746340       -20.3089 
  20   2.0000      -0.730719       -19.8839 
  21   2.0000      -0.721305       -19.6277 
  22   2.0000      -0.717517       -19.5246 
  23   2.0000      -0.682552       -18.5732 
  24   2.0000      -0.677021       -18.4227 
  25   2.0000      -0.668366       -18.1872 
  26   2.0000      -0.646148       -17.5826 
  27   2.0000      -0.628173       -17.0935 
  28   2.0000      -0.620506       -16.8848 
  29   2.0000      -0.603998       -16.4356 
  30   2.0000      -0.511617       -13.9218 
  31   0.0000      -0.094804        -2.5798 
  32   0.0000      -0.019456        -0.5294 
  33   0.0000       0.007844         0.2134 
  34   0.0000       0.014283         0.3887 
  35   0.0000       0.038798         1.0557 
  36   0.0000       0.044780         1.2185 
  37   0.0000       0.054582         1.4852 
  38   0.0000       0.066759         1.8166 
  39   0.0000       0.070673         1.9231 
  40   0.0000       0.075231         2.0471 
  41   0.0000       0.091444         2.4883 
  42   0.0000       0.094019         2.5584 
  43   0.0000       0.096287         2.6201 
  44   0.0000       0.103626         2.8198 
  45   0.0000       0.105500         2.8708 
  46   0.0000       0.107970         2.9380 
  47   0.0000       0.160321         4.3626 
  48   0.0000       0.161258         4.3881 
  49   0.0000       0.168611         4.5881 
  50   0.0000       0.181910         4.9500 
  51   0.0000       0.214795         5.8449 
  52   0.0000       0.256406         6.9772 
  53   0.0000       0.308745         8.4014 
  54   0.0000       0.331146         9.0109 
  55   0.0000       0.355611         9.6767 
  56   0.0000       0.356083         9.6895 
  57   0.0000       0.380994        10.3674 
  58   0.0000       0.392759        10.6875 
  59   0.0000       0.409965        11.1557 
  60   0.0000       0.424959        11.5637 
  61   0.0000       0.464511        12.6400 
  62   0.0000       0.480850        13.0846 
  63   0.0000       0.493759        13.4359 
  64   0.0000       0.537544        14.6273 
  65   0.0000       0.539450        14.6792 
  66   0.0000       0.549591        14.9551 
  67   0.0000       0.550913        14.9911 
  68   0.0000       0.578404        15.7392 
  69   0.0000       0.579300        15.7636 
  70   0.0000       0.589916        16.0524 
  71   0.0000       0.590892        16.0790 
  72   0.0000       0.615680        16.7535 
  73   0.0000       0.616318        16.7709 
  74   0.0000       0.624776        17.0010 
  75   0.0000       0.630333        17.1522 
  76   0.0000       0.633221        17.2308 
  77   0.0000       0.634542        17.2668 
  78   0.0000       0.636305        17.3148 
  79   0.0000       0.639223        17.3942 
  80   0.0000       0.644646        17.5417 
  81   0.0000       0.648167        17.6375 
  82   0.0000       0.651449        17.7268 
  83   0.0000       0.667004        18.1501 
  84   0.0000       0.698808        19.0155 
  85   0.0000       0.749887        20.4055 
  86   0.0000       0.796486        21.6735 
  87   0.0000       0.817015        22.2321 
  88   0.0000       0.871208        23.7068 
  89   0.0000       0.889954        24.2169 
  90   0.0000       0.913081        24.8462 
  91   0.0000       0.946072        25.7439 
  92   0.0000       1.020033        27.7565 
  93   0.0000       1.057245        28.7691 
  94   0.0000       1.096534        29.8382 
  95   0.0000       1.128960        30.7206 
  96   0.0000       1.141050        31.0496 
  97   0.0000       1.150877        31.3169 
  98   0.0000       1.191891        32.4330 
  99   0.0000       1.229450        33.4550 
 100   0.0000       1.236024        33.6339 
 101   0.0000       1.236348        33.6427 
 102   0.0000       1.323652        36.0184 
 103   0.0000       1.355257        36.8784 
 104   0.0000       1.413178        38.4545 
 105   0.0000       1.438332        39.1390 
 106   0.0000       1.470683        40.0193 
 107   0.0000       1.478336        40.2276 
 108   0.0000       1.503530        40.9131 
 109   0.0000       1.510845        41.1122 
 110   0.0000       1.583566        43.0910 
 111   0.0000       1.586389        43.1678 
 112   0.0000       1.648294        44.8524 
 113   0.0000       1.671693        45.4891 
 114   0.0000       1.689248        45.9668 
 115   0.0000       1.699359        46.2419 
 116   0.0000       1.704983        46.3949 
 117   0.0000       1.723506        46.8990 
 118   0.0000       1.732677        47.1485 
 119   0.0000       1.736796        47.2606 
 120   0.0000       1.748442        47.5775 
 121   0.0000       1.761843        47.9422 
 122   0.0000       1.762865        47.9700 
 123   0.0000       1.773360        48.2556 
 124   0.0000       1.783051        48.5193 
 125   0.0000       1.800666        48.9986 
 126   0.0000       1.816415        49.4272 
 127   0.0000       1.821863        49.5754 
 128   0.0000       1.824305        49.6419 
 129   0.0000       1.836498        49.9737 
 130   0.0000       1.849978        50.3405 
 131   0.0000       1.889311        51.4108 
 132   0.0000       1.919721        52.2383 
 133   0.0000       1.922683        52.3189 
 134   0.0000       1.956483        53.2386 
 135   0.0000       1.991948        54.2037 
 136   0.0000       2.001033        54.4509 
 137   0.0000       2.003148        54.5084 
 138   0.0000       2.052505        55.8515 
 139   0.0000       2.092049        56.9275 
 140   0.0000       2.119747        57.6813 
 141   0.0000       2.130428        57.9719 
 142   0.0000       2.182408        59.3863 
 143   0.0000       2.208027        60.0835 
 144   0.0000       2.243493        61.0486 
 145   0.0000       2.257295        61.4241 
 146   0.0000       2.270104        61.7727 
 147   0.0000       2.342567        63.7445 
 148   0.0000       2.352358        64.0109 
 149   0.0000       2.358399        64.1753 
 150   0.0000       2.384905        64.8966 
 151   0.0000       2.431512        66.1648 
 152   0.0000       2.463691        67.0404 
 153   0.0000       2.524555        68.6966 
 154   0.0000       2.544987        69.2526 
 155   0.0000       2.561787        69.7098 
 156   0.0000       2.595017        70.6140 
 157   0.0000       2.608123        70.9706 
 158   0.0000       2.652257        72.1716 
 159   0.0000       2.678518        72.8862 
 160   0.0000       2.692179        73.2579 
 161   0.0000       2.712419        73.8087 
 162   0.0000       2.745545        74.7101 
 163   0.0000       2.818567        76.6971 
 164   0.0000       2.830299        77.0164 
 165   0.0000       2.847207        77.4764 
 166   0.0000       2.869985        78.0963 
 167   0.0000       2.883492        78.4638 
 168   0.0000       2.889385        78.6242 
 169   0.0000       2.902708        78.9867 
 170   0.0000       2.930670        79.7476 
 171   0.0000       2.962718        80.6197 
 172   0.0000       2.983798        81.1933 
 173   0.0000       3.034597        82.5756 
 174   0.0000       3.080635        83.8283 
 175   0.0000       3.261724        88.7560 
 176   0.0000       3.421501        93.1038 

                    ********************************
                    * MULLIKEN POPULATION ANALYSIS *
                    ********************************

-----------------------
MULLIKEN ATOMIC CHARGES
-----------------------
   0 C :    0.100756
   1 C :    0.239856
   2 C :    0.100758
   3 C :   -0.094961
   4 H :    0.087129
   5 H :    0.098946
   6 H :    0.085178
   7 H :    0.078436
   8 N :   -0.313588
   9 N :   -0.313587
  10 H :    0.087128
  11 H :    0.096290
  12 H :    0.085177
  13 C :    0.064085
  14 H :    0.079613
  15 H :    0.094612
  16 H :    0.092932
  17 C :    0.064086
  18 H :    0.094611
  19 H :    0.079613
  20 H :    0.092932
Sum of atomic charges:    1.0000000

--------------------------------
MULLIKEN REDUCED ORBITAL CHARGES
--------------------------------
  0 C s       :     3.016700  s :     3.016700
      pz      :     1.041804  p :     2.835560
      px      :     1.056178
      py      :     0.737577
      dz2     :     0.010236  d :     0.046984
      dxz     :     0.006596
      dyz     :     0.006248
      dx2y2   :     0.015113
      dxy     :     0.008792
  1 C s       :     3.065698  s :     3.065698
      pz      :     0.851862  p :     2.617761
      px      :     0.815802
      py      :     0.950098
      dz2     :     0.019805  d :     0.076684
      dxz     :     0.028027
      dyz     :     0.019379
      dx2y2   :     0.005282
      dxy     :     0.004192
  2 C s       :     3.016699  s :     3.016699
      pz      :     1.041804  p :     2.835559
      px      :     1.056177
      py      :     0.737577
      dz2     :     0.010236  d :     0.046984
      dxz     :     0.006596
      dyz     :     0.006248
      dx2y2   :     0.015113
      dxy     :     0.008792
  3 C s       :     3.066823  s :     3.066823
      pz      :     0.923413  p :     2.994336
      px      :     1.016852
      py      :     1.054071
      dz2     :     0.009215  d :     0.033802
      dxz     :     0.007576
      dyz     :     0.005531
      dx2y2   :     0.008320
      dxy     :     0.003160
  4 H s       :     0.890959  s :     0.890959
      pz      :     0.003956  p :     0.021912
      px      :     0.014391
      py      :     0.003565
  5 H s       :     0.879158  s :     0.879158
      pz      :     0.001337  p :     0.021896
      px      :     0.002974
      py      :     0.017586
  6 H s       :     0.892509  s :     0.892509
      pz      :     0.011511  p :     0.022313
      px      :     0.007554
      py      :     0.003249
  7 H s       :     0.899018  s :     0.899018
      pz      :     0.003251  p :     0.022546
      px      :     0.015024
      py      :     0.004271
  8 N s       :     3.411005  s :     3.411005
      pz      :     1.123780  p :     3.873245
      px      :     1.559535
      py      :     1.189930
      dz2     :     0.006897  d :     0.029339
      dxz     :     0.005554
      dyz     :     0.009126
      dx2y2   :     0.003829
      dxy     :     0.003932
  9 N s       :     3.411004  s :     3.411004
      pz      :     1.123779  p :     3.873245
      px      :     1.559535
      py      :     1.189930
      dz2     :     0.006897  d :     0.029339
      dxz     :     0.005554
      dyz     :     0.009126
      dx2y2   :     0.003829
      dxy     :     0.003932
 10 H s       :     0.890960  s :     0.890960
      pz      :     0.003956  p :     0.021912
      px      :     0.014391
      py      :     0.003565
 11 H s       :     0.880475  s :     0.880475
      pz      :     0.003481  p :     0.023235
      px      :     0.004252
      py      :     0.015503
 12 H s       :     0.892509  s :     0.892509
      pz      :     0.011511  p :     0.022313
      px      :     0.007554
      py      :     0.003249
 13 C s       :     3.036507  s :     3.036507
      pz      :     0.816648  p :     2.861449
      px      :     1.075499
      py      :     0.969302
      dz2     :     0.007742  d :     0.037958
      dxz     :     0.011007
      dyz     :     0.009618
      dx2y2   :     0.007104
      dxy     :     0.002488
 14 H s       :     0.896967  s :     0.896967
      pz      :     0.003119  p :     0.023421
      px      :     0.004871
      py      :     0.015431
 15 H s       :     0.882289  s :     0.882289
      pz      :     0.006712  p :     0.023099
      px      :     0.012183
      py      :     0.004204
 16 H s       :     0.883946  s :     0.883946
      pz      :     0.006418  p :     0.023122
      px      :     0.012246
      py      :     0.004458
 17 C s       :     3.036507  s :     3.036507
      pz      :     0.816648  p :     2.861449
      px      :     1.075499
      py      :     0.969302
      dz2     :     0.007742  d :     0.037958
      dxz     :     0.011007
      dyz     :     0.009618
      dx2y2   :     0.007104
      dxy     :     0.002488
 18 H s       :     0.882289  s :     0.882289
      pz      :     0.006712  p :     0.023099
      px      :     0.012183
      py      :     0.004204
 19 H s       :     0.896967  s :     0.896967
      pz      :     0.003119  p :     0.023421
      px      :     0.004871
      py      :     0.015431
 20 H s       :     0.883946  s :     0.883946
      pz      :     0.006418  p :     0.023122
      px      :     0.012246
      py      :     0.004458


                     *******************************
                     * LOEWDIN POPULATION ANALYSIS *
                     *******************************

----------------------
LOEWDIN ATOMIC CHARGES
----------------------
   0 C :    0.053767
   1 C :    0.160820
   2 C :    0.053767
   3 C :   -0.040394
   4 H :    0.045251
   5 H :    0.057714
   6 H :    0.051065
   7 H :    0.046806
   8 N :    0.013195
   9 N :    0.013196
  10 H :    0.045251
  11 H :    0.062439
  12 H :    0.051066
  13 C :    0.049823
  14 H :    0.045973
  15 H :    0.048151
  16 H :    0.049081
  17 C :    0.049823
  18 H :    0.048151
  19 H :    0.045973
  20 H :    0.049082

-------------------------------
LOEWDIN REDUCED ORBITAL CHARGES
-------------------------------
  0 C s       :     2.831525  s :     2.831525
      pz      :     1.064358  p :     3.002070
      px      :     1.087724
      py      :     0.849988
      dz2     :     0.024768  d :     0.112637
      dxz     :     0.016284
      dyz     :     0.014705
      dx2y2   :     0.035676
      dxy     :     0.021204
  1 C s       :     2.830645  s :     2.830645
      pz      :     0.958799  p :     2.827771
      px      :     0.837199
      py      :     1.031773
      dz2     :     0.053325  d :     0.180765
      dxz     :     0.057033
      dyz     :     0.050468
      dx2y2   :     0.012958
      dxy     :     0.006980
  2 C s       :     2.831525  s :     2.831525
      pz      :     1.064358  p :     3.002071
      px      :     1.087724
      py      :     0.849988
      dz2     :     0.024768  d :     0.112637
      dxz     :     0.016284
      dyz     :     0.014705
      dx2y2   :     0.035676
      dxy     :     0.021204
  3 C s       :     2.831942  s :     2.831942
      pz      :     1.000731  p :     3.122334
      px      :     1.057658
      py      :     1.063945
      dz2     :     0.023880  d :     0.086119
      dxz     :     0.018556
      dyz     :     0.014621
      dx2y2   :     0.022190
      dxy     :     0.006872
  4 H s       :     0.888644  s :     0.888644
      pz      :     0.013362  p :     0.066105
      px      :     0.040278
      py      :     0.012465
  5 H s       :     0.875234  s :     0.875234
      pz      :     0.007066  p :     0.067052
      px      :     0.009518
      py      :     0.050469
  6 H s       :     0.882888  s :     0.882888
      pz      :     0.033881  p :     0.066047
      px      :     0.021464
      py      :     0.010702
  7 H s       :     0.886278  s :     0.886278
      pz      :     0.011874  p :     0.066915
      px      :     0.041695
      py      :     0.013346
  8 N s       :     3.053759  s :     3.053759
      pz      :     1.179981  p :     3.866533
      px      :     1.489422
      py      :     1.197130
      dz2     :     0.018454  d :     0.066512
      dxz     :     0.009365
      dyz     :     0.023998
      dx2y2   :     0.007969
      dxy     :     0.006727
  9 N s       :     3.053759  s :     3.053759
      pz      :     1.179981  p :     3.866533
      px      :     1.489422
      py      :     1.197130
      dz2     :     0.018454  d :     0.066512
      dxz     :     0.009365
      dyz     :     0.023998
      dx2y2   :     0.007969
      dxy     :     0.006727
 10 H s       :     0.888644  s :     0.888644
      pz      :     0.013362  p :     0.066105
      px      :     0.040278
      py      :     0.012465
 11 H s       :     0.870297  s :     0.870297
      pz      :     0.011995  p :     0.067263
      px      :     0.012576
      py      :     0.042692
 12 H s       :     0.882888  s :     0.882888
      pz      :     0.033881  p :     0.066047
      px      :     0.021464
      py      :     0.010702
 13 C s       :     2.834386  s :     2.834386
      pz      :     0.904076  p :     3.020688
      px      :     1.097384
      py      :     1.019228
      dz2     :     0.018113  d :     0.095103
      dxz     :     0.029466
      dyz     :     0.023339
      dx2y2   :     0.019228
      dxy     :     0.004957
 14 H s       :     0.888467  s :     0.888467
      pz      :     0.009407  p :     0.065560
      px      :     0.013015
      py      :     0.043138
 15 H s       :     0.886303  s :     0.886303
      pz      :     0.019912  p :     0.065546
      px      :     0.033745
      py      :     0.011888
 16 H s       :     0.885293  s :     0.885293
      pz      :     0.019024  p :     0.065626
      px      :     0.033937
      py      :     0.012666
 17 C s       :     2.834386  s :     2.834386
      pz      :     0.904076  p :     3.020689
      px      :     1.097384
      py      :     1.019228
      dz2     :     0.018113  d :     0.095103
      dxz     :     0.029466
      dyz     :     0.023339
      dx2y2   :     0.019228
      dxy     :     0.004957
 18 H s       :     0.886303  s :     0.886303
      pz      :     0.019912  p :     0.065546
      px      :     0.033745
      py      :     0.011888
 19 H s       :     0.888467  s :     0.888467
      pz      :     0.009407  p :     0.065560
      px      :     0.013015
      py      :     0.043138
 20 H s       :     0.885293  s :     0.885293
      pz      :     0.019024  p :     0.065626
      px      :     0.033936
      py      :     0.012666


                      *****************************
                      * MAYER POPULATION ANALYSIS *
                      *****************************

  NA   - Mulliken gross atomic population
  ZA   - Total nuclear charge
  QA   - Mulliken gross atomic charge
  VA   - Mayer's total valence
  BVA  - Mayer's bonded valence
  FA   - Mayer's free valence

  ATOM       NA         ZA         QA         VA         BVA        FA
  0 C      5.8992     6.0000     0.1008     3.9143     3.9143     0.0000
  1 C      5.7601     6.0000     0.2399     3.9554     3.9554     0.0000
  2 C      5.8992     6.0000     0.1008     3.9143     3.9143    -0.0000
  3 C      6.0950     6.0000    -0.0950     4.0711     4.0711    -0.0000
  4 H      0.9129     1.0000     0.0871     0.9841     0.9841     0.0000
  5 H      0.9011     1.0000     0.0989     1.0041     1.0041     0.0000
  6 H      0.9148     1.0000     0.0852     0.9884     0.9884    -0.0000
  7 H      0.9216     1.0000     0.0784     0.9786     0.9786     0.0000
  8 N      7.3136     7.0000    -0.3136     3.3633     3.3633     0.0000
  9 N      7.3136     7.0000    -0.3136     3.3633     3.3633     0.0000
 10 H      0.9129     1.0000     0.0871     0.9841     0.9841    -0.0000
 11 H      0.9037     1.0000     0.0963     0.9828     0.9828    -0.0000
 12 H      0.9148     1.0000     0.0852     0.9884     0.9884     0.0000
 13 C      5.9359     6.0000     0.0641     3.8740     3.8740     0.0000
 14 H      0.9204     1.0000     0.0796     0.9970     0.9970    -0.0000
 15 H      0.9054     1.0000     0.0946     0.9894     0.9894     0.0000
 16 H      0.9071     1.0000     0.0929     0.9885     0.9885     0.0000
 17 C      5.9359     6.0000     0.0641     3.8740     3.8740     0.0000
 18 H      0.9054     1.0000     0.0946     0.9894     0.9894    -0.0000
 19 H      0.9204     1.0000     0.0796     0.9970     0.9970    -0.0000
 20 H      0.9071     1.0000     0.0929     0.9885     0.9885     0.0000

  Mayer bond orders larger than 0.100000
B(  0-C ,  3-C ) :   1.0669 B(  0-C ,  4-H ) :   0.9573 B(  0-C ,  8-N ) :   0.8932 
B(  0-C , 12-H ) :   0.9514 B(  1-C ,  5-H ) :   0.9625 B(  1-C ,  8-N ) :   1.4300 
B(  1-C ,  9-N ) :   1.4300 B(  2-C ,  3-C ) :   1.0669 B(  2-C ,  6-H ) :   0.9514 
B(  2-C ,  9-N ) :   0.8932 B(  2-C , 10-H ) :   0.9573 B(  3-C ,  7-H ) :   0.9484 
B(  3-C , 11-H ) :   0.9431 B(  8-N , 13-C ) :   0.9118 B(  9-N , 17-C ) :   0.9118 
B( 13-C , 14-H ) :   0.9705 B( 13-C , 15-H ) :   0.9721 B( 13-C , 16-H ) :   0.9708 
B( 17-C , 18-H ) :   0.9721 B( 17-C , 19-H ) :   0.9705 B( 17-C , 20-H ) :   0.9708 


-------
TIMINGS
-------

Total SCF time: 0 days 0 hours 3 min 24 sec 

Total time                  ....     204.149 sec
Sum of individual times     ....     203.947 sec  ( 99.9%)

Fock matrix formation       ....     200.022 sec  ( 98.0%)
  Split-RI-J                ....       7.520 sec  (  3.8% of F)
  Chain of spheres X        ....     171.558 sec  ( 85.8% of F)
  XC integration            ....      20.813 sec  ( 10.4% of F)
    Basis function eval.    ....       7.470 sec  ( 35.9% of XC)
    Density eval.           ....       4.677 sec  ( 22.5% of XC)
    XC-Functional eval.     ....       3.151 sec  ( 15.1% of XC)
    XC-Potential eval.      ....       5.003 sec  ( 24.0% of XC)
Diagonalization             ....       0.055 sec  (  0.0%)
Density matrix formation    ....       0.009 sec  (  0.0%)
Population analysis         ....       0.008 sec  (  0.0%)
Initial guess               ....       0.660 sec  (  0.3%)
Orbital Transformation      ....       0.000 sec  (  0.0%)
Orbital Orthonormalization  ....       0.000 sec  (  0.0%)
DIIS solution               ....       0.016 sec  (  0.0%)
SOSCF solution              ....       0.028 sec  (  0.0%)
Grid generation             ....       3.148 sec  (  1.5%)

Maximum memory used throughout the entire SCF-calculation: 73.9 MB


-------------------------------------------------------------------------------
                          DFT DISPERSION CORRECTION                            
                                                                               
                                 DFTD4 V2.5                                    
-------------------------------------------------------------------------------
The WB97X functional is recognized
Active option DFTDOPT                   ...         5   

Starting D4
-------------------------   ----------------
Dispersion correction           -0.002463552
-------------------------   ----------------


-------------------------   --------------------
FINAL SINGLE POINT ENERGY      -345.428049048648
-------------------------   --------------------


                            ***************************************
                            *     ORCA property calculations      *
                            ***************************************

                                    ---------------------
                                    Active property flags
                                    ---------------------
   (+) Dipole Moment


------------------------------------------------------------------------------
                       ORCA ELECTRIC PROPERTIES CALCULATION
------------------------------------------------------------------------------

Dipole Moment Calculation                       ... on
Quadrupole Moment Calculation                   ... off
Polarizability Calculation                      ... off
GBWName                                         ... 10+.gbw
Electron density                                ... 10+.scfp
The origin for moment calculation is the CENTER OF MASS  = (-0.003056, -0.004689  0.000000)

-------------
DIPOLE MOMENT
-------------
                                X             Y             Z
Electronic contribution:     -0.16195      -0.64287       0.00000
Nuclear contribution   :      0.08173       0.22899      -0.00000
                        -----------------------------------------
Total Dipole Moment    :     -0.08022      -0.41388       0.00000
                        -----------------------------------------
Magnitude (a.u.)       :      0.42158
Magnitude (Debye)      :      1.07158



--------------------
Rotational spectrum 
--------------------
 
Rotational constants in cm-1:     0.107501     0.059056     0.040189 
Rotational constants in MHz :  3222.792127  1770.443766  1204.840213 

 Dipole components along the rotational axes: 
x,y,z [a.u.] :     0.000001     0.420732    -0.026782 
x,y,z [Debye]:     0.000002     1.069416    -0.068076 

 

-------------------------------------------------------------------------------
                               ORCA SCF HESSIAN
-------------------------------------------------------------------------------

                   --------- SHARK INITIALIZATION DONE ---------

Hessian of the Kohn-Sham DFT energy:
Kohn-Sham wavefunction type                      ... RKS
Hartree-Fock exchange scaling                    ...    0.158
Number of operators                              ...    1
Number of atoms                                  ...   21
Basis set dimensions                             ...  177
Integral neglect threshold                       ... 2.5e-11
Integral primitive cutoff                        ... 2.5e-12

Setting up DFT Hessian calculations              ... 

HESS GRID
---------

General Integration Accuracy     IntAcc      ... 4.629
Radial Grid Type                 RadialGrid  ... OptM3 with GC (2021)
Angular Grid (max. ang.)         AngularGrid ... 5 (Lebedev-434)
Angular grid pruning method      GridPruning ... 4 (adaptive)
Weight generation scheme         WeightScheme... Becke
Basis function cutoff            BFCut       ... 1.0000e-11
Integration weight cutoff        WCut        ... 1.0000e-14
Angular grids for H and He will be reduced by one unit
Partially contracted basis set               ... off
Rotationally invariant grid construction     ... off

Total number of grid points                  ...   138533
Total number of batches                      ...     2176
Average number of points per batch           ...       63
Average number of grid points per atom       ...     6597

Building densities                               ... done   (      0.0 sec)
Calculating rho(r) on the grid                   ... done   (      1.4 sec)
Building xc-kernel on the grid                   ... done   (      1.3 sec)
                                                     done   (      5.0 sec)

Nuclear repulsion Hessian  (SHARK)               ... done   (      0.0 sec)

----------------------------------------------
Forming right-hand sides of CP-SCF equations     ...
----------------------------------------------
One electron integral derivatives  (SHARK)       ... done   (      0.4 sec)
Transforming the overlap derivative matrices     ... done   (      0.1 sec)
Making the Q(x) pseudodensities                  ... done   (      0.1 sec)
Adding the E*S(x)*S(y) terms to the Hessian      ... done   (      0.1 sec)
Calculating energy weighted overlap derivatives  ... done   (      0.0 sec)
Two electron integral derivatives (SHARK-RI)     ... done   (     44.0 sec)
Exchange-correlation integral derivatives        ... done   (    149.9 sec)
tr(F(y)Q(x)) contribution to the Hessian         ... done   (      0.0 sec)
Response fock operator R(S(x)) (SHARK-RIJCOSX)   ... done   (     41.5 sec)
XC Response fock operator R(S(x))                ... done   (     59.5 sec)
tr(F(y)S(x)) contribution to the Hessian         ... done   (      0.0 sec)
Transforming and finalizing RHSs                 ... done   (      0.1 sec)

----------------------------------------------
Solving the CP-SCF equations (RIJCOSX)           ...
----------------------------------------------
     CP-SCF ITERATION   0:   1.6060e-01 (  21.9 sec   0/ 63 done)
     CP-SCF ITERATION   1:   1.1243e-01 (  21.8 sec   0/ 63 done)
     CP-SCF ITERATION   2:   2.2756e-02 (  22.0 sec   0/ 63 done)
     CP-SCF ITERATION   3:   1.0692e-02 (  22.1 sec   0/ 63 done)
     CP-SCF ITERATION   4:   4.5446e-03 (  22.0 sec   0/ 63 done)
     CP-SCF ITERATION   5:   1.3480e-03 (  22.0 sec   9/ 63 done)
     CP-SCF ITERATION   6:   4.4401e-04 (  19.6 sec  43/ 63 done)
     CP-SCF ITERATION   7:   1.6673e-04 (  12.0 sec  57/ 63 done)
     CP-SCF ITERATION   8:   4.7799e-05 (   6.9 sec  63/ 63 done)
                    *** THE CP-SCF HAS CONVERGED ***

                                                 ... done   (    170.9 sec)
Forming perturbed density Hessian contributions  ... done   (      0.0 sec)
2nd integral derivative contribs (SHARK-RI)      ... done   (    188.1 sec)
Exchange-correlation Hessian                     ... done   (    119.1 sec)
Dispersion correction in the Hessian             ... Starting D4


------------------- 
Dispersion Gradient 
------------------- 
   1  :   -0.000001406    0.000020369    0.000019271
   2  :   -0.000000817   -0.000012322    0.000000001
   3  :   -0.000001353    0.000020366   -0.000019284
   4  :    0.000009246    0.000028541   -0.000000006
   5  :    0.000000207    0.000002642    0.000003434
   6  :   -0.000000412   -0.000005048    0.000000000
   7  :    0.000000940    0.000002575   -0.000004808
   8  :    0.000001021    0.000005470    0.000000004
   9  :   -0.000001079   -0.000003703    0.000018539
  10  :   -0.000001073   -0.000003704   -0.000018538
  11  :    0.000000151    0.000002653   -0.000003440
  12  :    0.000001265    0.000009465    0.000000001
  13  :    0.000000965    0.000002580    0.000004826
  14  :   -0.000002031   -0.000019853    0.000041691
  15  :   -0.000000580   -0.000004854    0.000011323
  16  :   -0.000000977   -0.000005223    0.000008902
  17  :   -0.000000237   -0.000005012    0.000008919
  18  :   -0.000002034   -0.000019853   -0.000041691
  19  :   -0.000000978   -0.000005224   -0.000008904
  20  :   -0.000000581   -0.000004854   -0.000011323
  21  :   -0.000000237   -0.000005010   -0.000008918

  |G| =    0.000055166

Starting D4


------------------- 
Dispersion Gradient 
------------------- 
   1  :   -0.000001300    0.000020362    0.000019297
   2  :   -0.000000819   -0.000012324   -0.000000001
   3  :   -0.000001352    0.000020365   -0.000019284
   4  :    0.000009244    0.000028536    0.000000006
   5  :    0.000000100    0.000002663    0.000003441
   6  :   -0.000000411   -0.000005049   -0.000000000
   7  :    0.000000943    0.000002575   -0.000004809
   8  :    0.000001025    0.000005475   -0.000000004
   9  :   -0.000001059   -0.000003706    0.000018538
  10  :   -0.000001066   -0.000003704   -0.000018539
  11  :    0.000000152    0.000002653   -0.000003435
  12  :    0.000001263    0.000009465   -0.000000001
  13  :    0.000000918    0.000002570    0.000004791
  14  :   -0.000002030   -0.000019853    0.000041690
  15  :   -0.000000579   -0.000004854    0.000011323
  16  :   -0.000000976   -0.000005225    0.000008905
  17  :   -0.000000236   -0.000005008    0.000008917
  18  :   -0.000002027   -0.000019853   -0.000041690
  19  :   -0.000000975   -0.000005223   -0.000008903
  20  :   -0.000000578   -0.000004854   -0.000011323
  21  :   -0.000000236   -0.000005010   -0.000008918

  |G| =    0.000055170

Starting D4


------------------- 
Dispersion Gradient 
------------------- 
   1  :   -0.000001349    0.000020369    0.000019273
   2  :   -0.000000819   -0.000012333   -0.000000002
   3  :   -0.000001352    0.000020365   -0.000019283
   4  :    0.000009246    0.000028536   -0.000000008
   5  :    0.000000151    0.000002665    0.000003436
   6  :   -0.000000412   -0.000005052   -0.000000001
   7  :    0.000000942    0.000002574   -0.000004810
   8  :    0.000001023    0.000005473    0.000000003
   9  :   -0.000001068   -0.000003677    0.000018542
  10  :   -0.000001069   -0.000003706   -0.000018539
  11  :    0.000000151    0.000002653   -0.000003436
  12  :    0.000001262    0.000009462    0.000000006
  13  :    0.000000941    0.000002586    0.000004806
  14  :   -0.000002031   -0.000019874    0.000041698
  15  :   -0.000000580   -0.000004856    0.000011324
  16  :   -0.000000977   -0.000005225    0.000008904
  17  :   -0.000000236   -0.000005012    0.000008918
  18  :   -0.000002031   -0.000019856   -0.000041690
  19  :   -0.000000976   -0.000005224   -0.000008903
  20  :   -0.000000579   -0.000004855   -0.000011321
  21  :   -0.000000237   -0.000005011   -0.000008917

  |G| =    0.000055178

Starting D4


------------------- 
Dispersion Gradient 
------------------- 
   1  :   -0.000001356    0.000020361    0.000019295
   2  :   -0.000000818   -0.000012313    0.000000002
   3  :   -0.000001353    0.000020366   -0.000019285
   4  :    0.000009244    0.000028541    0.000000008
   5  :    0.000000153    0.000002640    0.000003439
   6  :   -0.000000412   -0.000005045    0.000000001
   7  :    0.000000942    0.000002576   -0.000004808
   8  :    0.000001023    0.000005472   -0.000000003
   9  :   -0.000001070   -0.000003731    0.000018535
  10  :   -0.000001069   -0.000003702   -0.000018538
  11  :    0.000000153    0.000002653   -0.000003439
  12  :    0.000001267    0.000009467   -0.000000006
  13  :    0.000000943    0.000002564    0.000004812
  14  :   -0.000002030   -0.000019832    0.000041683
  15  :   -0.000000579   -0.000004852    0.000011322
  16  :   -0.000000976   -0.000005222    0.000008903
  17  :   -0.000000237   -0.000005008    0.000008918
  18  :   -0.000002031   -0.000019850   -0.000041691
  19  :   -0.000000977   -0.000005223   -0.000008904
  20  :   -0.000000579   -0.000004854   -0.000011324
  21  :   -0.000000236   -0.000005009   -0.000008919

  |G| =    0.000055157

Starting D4


------------------- 
Dispersion Gradient 
------------------- 
   1  :   -0.000001364    0.000020355    0.000019294
   2  :   -0.000000818   -0.000012330   -0.000000007
   3  :   -0.000001352    0.000020364   -0.000019305
   4  :    0.000009239    0.000028532    0.000000009
   5  :    0.000000154    0.000002651    0.000003449
   6  :   -0.000000412   -0.000005050   -0.000000002
   7  :    0.000000941    0.000002575   -0.000004812
   8  :    0.000001024    0.000005473    0.000000000
   9  :   -0.000001069   -0.000003705    0.000018528
  10  :   -0.000001069   -0.000003704   -0.000018541
  11  :    0.000000152    0.000002653   -0.000003441
  12  :    0.000001265    0.000009465    0.000000000
  13  :    0.000000955    0.000002580    0.000004840
  14  :   -0.000002030   -0.000019842    0.000041683
  15  :   -0.000000580   -0.000004856    0.000011321
  16  :   -0.000000976   -0.000005220    0.000008902
  17  :   -0.000000237   -0.000005006    0.000008917
  18  :   -0.000002031   -0.000019853   -0.000041693
  19  :   -0.000000977   -0.000005222   -0.000008903
  20  :   -0.000000579   -0.000004853   -0.000011323
  21  :   -0.000000236   -0.000005009   -0.000008917

  |G| =    0.000055157

Starting D4


------------------- 
Dispersion Gradient 
------------------- 
   1  :   -0.000001339    0.000020376    0.000019274
   2  :   -0.000000818   -0.000012316    0.000000007
   3  :   -0.000001352    0.000020366   -0.000019262
   4  :    0.000009251    0.000028545   -0.000000009
   5  :    0.000000150    0.000002655    0.000003426
   6  :   -0.000000412   -0.000005047    0.000000002
   7  :    0.000000942    0.000002575   -0.000004806
   8  :    0.000001022    0.000005472   -0.000000000
   9  :   -0.000001070   -0.000003703    0.000018549
  10  :   -0.000001069   -0.000003704   -0.000018536
  11  :    0.000000151    0.000002653   -0.000003434
  12  :    0.000001264    0.000009464   -0.000000000
  13  :    0.000000927    0.000002570    0.000004777
  14  :   -0.000002031   -0.000019865    0.000041698
  15  :   -0.000000579   -0.000004853    0.000011324
  16  :   -0.000000977   -0.000005227    0.000008905
  17  :   -0.000000236   -0.000005014    0.000008919
  18  :   -0.000002031   -0.000019854   -0.000041688
  19  :   -0.000000976   -0.000005225   -0.000008904
  20  :   -0.000000579   -0.000004855   -0.000011323
  21  :   -0.000000237   -0.000005011   -0.000008919

  |G| =    0.000055179

Starting D4


------------------- 
Dispersion Gradient 
------------------- 
   1  :   -0.000001351    0.000020365    0.000019284
   2  :   -0.000000787   -0.000012320   -0.000000000
   3  :   -0.000001351    0.000020365   -0.000019284
   4  :    0.000009244    0.000028537   -0.000000000
   5  :    0.000000151    0.000002654    0.000003438
   6  :   -0.000000409   -0.000005049   -0.000000000
   7  :    0.000000940    0.000002575   -0.000004809
   8  :    0.000001021    0.000005471    0.000000000
   9  :   -0.000001083   -0.000003705    0.000018538
  10  :   -0.000001083   -0.000003705   -0.000018538
  11  :    0.000000151    0.000002654   -0.000003438
  12  :    0.000001263    0.000009464    0.000000000
  13  :    0.000000940    0.000002575    0.000004809
  14  :   -0.000002029   -0.000019853    0.000041691
  15  :   -0.000000579   -0.000004854    0.000011323
  16  :   -0.000000977   -0.000005224    0.000008903
  17  :   -0.000000237   -0.000005010    0.000008919
  18  :   -0.000002029   -0.000019853   -0.000041691
  19  :   -0.000000977   -0.000005224   -0.000008903
  20  :   -0.000000579   -0.000004854   -0.000011323
  21  :   -0.000000237   -0.000005010   -0.000008919

  |G| =    0.000055166

Starting D4


------------------- 
Dispersion Gradient 
------------------- 
   1  :   -0.000001353    0.000020366    0.000019284
   2  :   -0.000000850   -0.000012326   -0.000000000
   3  :   -0.000001353    0.000020366   -0.000019284
   4  :    0.000009246    0.000028540   -0.000000000
   5  :    0.000000153    0.000002652    0.000003437
   6  :   -0.000000414   -0.000005048   -0.000000000
   7  :    0.000000943    0.000002576   -0.000004809
   8  :    0.000001024    0.000005474    0.000000000
   9  :   -0.000001055   -0.000003704    0.000018539
  10  :   -0.000001055   -0.000003704   -0.000018539
  11  :    0.000000153    0.000002652   -0.000003437
  12  :    0.000001266    0.000009465    0.000000000
  13  :    0.000000943    0.000002576    0.000004809
  14  :   -0.000002032   -0.000019853    0.000041690
  15  :   -0.000000580   -0.000004854    0.000011323
  16  :   -0.000000976   -0.000005224    0.000008905
  17  :   -0.000000236   -0.000005010    0.000008917
  18  :   -0.000002032   -0.000019853   -0.000041690
  19  :   -0.000000976   -0.000005224   -0.000008905
  20  :   -0.000000580   -0.000004854   -0.000011323
  21  :   -0.000000236   -0.000005010   -0.000008917

  |G| =    0.000055170

Starting D4


------------------- 
Dispersion Gradient 
------------------- 
   1  :   -0.000001351    0.000020355    0.000019277
   2  :   -0.000000815   -0.000012269   -0.000000000
   3  :   -0.000001351    0.000020355   -0.000019277
   4  :    0.000009246    0.000028534   -0.000000000
   5  :    0.000000149    0.000002652    0.000003438
   6  :   -0.000000412   -0.000005036   -0.000000000
   7  :    0.000000943    0.000002573   -0.000004810
   8  :    0.000001021    0.000005471    0.000000000
   9  :   -0.000001069   -0.000003713    0.000018547
  10  :   -0.000001069   -0.000003713   -0.000018547
  11  :    0.000000149    0.000002652   -0.000003438
  12  :    0.000001264    0.000009461    0.000000000
  13  :    0.000000943    0.000002573    0.000004810
  14  :   -0.000002031   -0.000019856    0.000041694
  15  :   -0.000000580   -0.000004855    0.000011326
  16  :   -0.000000978   -0.000005225    0.000008904
  17  :   -0.000000235   -0.000005011    0.000008918
  18  :   -0.000002031   -0.000019856   -0.000041694
  19  :   -0.000000978   -0.000005225   -0.000008904
  20  :   -0.000000580   -0.000004855   -0.000011326
  21  :   -0.000000235   -0.000005011   -0.000008918

  |G| =    0.000055147

Starting D4


------------------- 
Dispersion Gradient 
------------------- 
   1  :   -0.000001353    0.000020376    0.000019291
   2  :   -0.000000821   -0.000012378   -0.000000000
   3  :   -0.000001353    0.000020376   -0.000019291
   4  :    0.000009244    0.000028543   -0.000000000
   5  :    0.000000154    0.000002654    0.000003438
   6  :   -0.000000412   -0.000005059   -0.000000000
   7  :    0.000000941    0.000002577   -0.000004808
   8  :    0.000001024    0.000005474    0.000000000
   9  :   -0.000001069   -0.000003696    0.000018530
  10  :   -0.000001069   -0.000003696   -0.000018530
  11  :    0.000000154    0.000002654   -0.000003438
  12  :    0.000001265    0.000009469    0.000000000
  13  :    0.000000941    0.000002577    0.000004808
  14  :   -0.000002030   -0.000019850    0.000041687
  15  :   -0.000000579   -0.000004854    0.000011320
  16  :   -0.000000975   -0.000005222    0.000008904
  17  :   -0.000000238   -0.000005009    0.000008918
  18  :   -0.000002030   -0.000019850   -0.000041687
  19  :   -0.000000975   -0.000005222   -0.000008904
  20  :   -0.000000579   -0.000004854   -0.000011320
  21  :   -0.000000238   -0.000005009   -0.000008918

  |G| =    0.000055188

Starting D4


------------------- 
Dispersion Gradient 
------------------- 
   1  :   -0.000001352    0.000020363    0.000019277
   2  :   -0.000000818   -0.000012323    0.000000086
   3  :   -0.000001353    0.000020368   -0.000019290
   4  :    0.000009245    0.000028539   -0.000000003
   5  :    0.000000150    0.000002653    0.000003436
   6  :   -0.000000412   -0.000005049    0.000000002
   7  :    0.000000941    0.000002576   -0.000004810
   8  :    0.000001023    0.000005472   -0.000000001
   9  :   -0.000001069   -0.000003697    0.000018539
  10  :   -0.000001069   -0.000003712   -0.000018538
  11  :    0.000000154    0.000002653   -0.000003439
  12  :    0.000001264    0.000009465   -0.000000002
  13  :    0.000000943    0.000002575    0.000004808
  14  :   -0.000002030   -0.000019854    0.000041661
  15  :   -0.000000580   -0.000004861    0.000011319
  16  :   -0.000000971   -0.000005222    0.000008904
  17  :   -0.000000242   -0.000005008    0.000008918
  18  :   -0.000002031   -0.000019853   -0.000041720
  19  :   -0.000000982   -0.000005225   -0.000008904
  20  :   -0.000000579   -0.000004848   -0.000011327
  21  :   -0.000000231   -0.000005011   -0.000008918

  |G| =    0.000055169

Starting D4


------------------- 
Dispersion Gradient 
------------------- 
   1  :   -0.000001353    0.000020368    0.000019290
   2  :   -0.000000818   -0.000012323   -0.000000086
   3  :   -0.000001352    0.000020363   -0.000019277
   4  :    0.000009245    0.000028539    0.000000003
   5  :    0.000000154    0.000002653    0.000003439
   6  :   -0.000000412   -0.000005049   -0.000000002
   7  :    0.000000943    0.000002575   -0.000004808
   8  :    0.000001023    0.000005472    0.000000001
   9  :   -0.000001069   -0.000003712    0.000018538
[...]
     10       0.028536   0.000004   0.021096   0.076910  -0.000263   0.014922
     11       0.000000  -0.000845   0.000000  -0.000000  -0.000056  -0.000001
     12      -0.072121  -0.292924  -0.285716   0.095742   0.025312   0.044239
     13       0.021727   0.098111   0.095095  -0.030641  -0.007062  -0.013076
     14       0.008091   0.039933   0.039532  -0.015247  -0.003910  -0.006925
     15       0.000218   0.000000   0.001713  -0.000341   0.000012  -0.000711
     16       0.004523  -0.000001  -0.014202  -0.000011   0.000007  -0.000377
     17       0.000000  -0.000503   0.000000   0.000000   0.000163   0.000003
     18       0.063731   0.326102  -0.316222   0.057069  -0.023417   0.032436
     19       0.033063   0.157482  -0.152238   0.026579  -0.010025   0.014076
     20      -0.093085  -0.514388   0.498233  -0.088717   0.036599  -0.050383
     21      -0.832201   0.000003   0.019189   0.465984  -0.001706   0.097201
     22       0.162555  -0.000001  -0.005423  -0.083583   0.000306  -0.017463
     23      -0.000000   0.003672  -0.000000  -0.000000  -0.000034  -0.000001
     24      -0.000245  -0.000408  -0.000421   0.000172  -0.000565  -0.000458
     25      -0.000316  -0.000235  -0.000302  -0.000547   0.000119  -0.000027
     26       0.000070  -0.000134  -0.000095   0.000346   0.000078   0.000097
     27      -0.000245   0.000408  -0.000421   0.000172   0.000579  -0.000439
     28      -0.000316   0.000235  -0.000302  -0.000547  -0.000117  -0.000031
     29      -0.000070  -0.000134   0.000095  -0.000346   0.000081  -0.000095
     30      -0.072127   0.292809  -0.285788   0.095718  -0.026780   0.043410
     31       0.021729  -0.098073   0.095120  -0.030634   0.007497  -0.012845
     32      -0.008092   0.039918  -0.039543   0.015244  -0.004140   0.006797
     33       0.069303   0.000005   0.028305   0.100033  -0.000343   0.019445
     34      -0.481339  -0.000043  -0.240975  -0.818450   0.002794  -0.158212
     35      -0.000000   0.000662  -0.000000   0.000000   0.000189   0.000003
     36       0.063734  -0.326197  -0.316111   0.057086   0.022324   0.033161
     37       0.033065  -0.157529  -0.152185   0.026586   0.009550   0.014385
     38       0.093090  -0.514538  -0.498059   0.088743   0.034902   0.051515
     39       0.000085   0.004743   0.004251  -0.013991   0.066341   0.067060
     40       0.000305  -0.001218  -0.001352   0.000962  -0.004196  -0.004259
     41      -0.000240  -0.000419  -0.000358  -0.000025   0.000130   0.000124
     42      -0.000019   0.000086   0.000158  -0.001475   0.007134   0.007260
     43      -0.003949   0.009587   0.011463  -0.005854   0.021227   0.021433
     44      -0.000677   0.001244   0.001665  -0.001002   0.004526   0.004611
     45       0.002621  -0.026136  -0.023903   0.082786  -0.392698  -0.396753
     46       0.000287  -0.005422  -0.004937   0.021890  -0.104703  -0.105929
     47       0.001830  -0.018749  -0.017339   0.055467  -0.261907  -0.264450
     48      -0.003015  -0.031738  -0.028348   0.084347  -0.399802  -0.403945
     49       0.000570   0.010377   0.009228  -0.027758   0.132423   0.133967
     50       0.002059   0.021047   0.018813  -0.054416   0.256413   0.258871
     51       0.000085  -0.004743   0.004254  -0.014035  -0.068441   0.064904
     52       0.000305   0.001217  -0.001352   0.000965   0.004333  -0.004126
     53       0.000240  -0.000418   0.000358   0.000025   0.000133  -0.000118
     54       0.002621   0.026137  -0.023919   0.083046   0.405122  -0.383993
     55       0.000287   0.005422  -0.004940   0.021959   0.108020  -0.102527
     56      -0.001830  -0.018748   0.017350  -0.055640  -0.270187   0.255940
     57      -0.000019  -0.000086   0.000159  -0.001480  -0.007363   0.007029
     58      -0.003948  -0.009586   0.011469  -0.005876  -0.021942   0.020786
     59       0.000677   0.001244  -0.001666   0.001006   0.004679  -0.004473
     60      -0.003015   0.031736  -0.028366   0.084611   0.412455  -0.390959
     61       0.000570  -0.010377   0.009234  -0.027845  -0.136621   0.129667
     62      -0.002059   0.021045  -0.018824   0.054586   0.264523  -0.250544
                 60         61         62    
      0       0.000889   0.000713   0.000057
      1      -0.000053  -0.000205   0.001318
      2       0.000812   0.000622   0.001335
      3       0.000021  -0.000000  -0.000332
      4      -0.008596   0.000006  -0.090063
      5       0.000000   0.000017   0.000000
      6       0.000888  -0.000714   0.000057
      7      -0.000053   0.000206   0.001318
      8      -0.000811   0.000623  -0.001336
      9      -0.000184   0.000000  -0.000063
     10       0.000062  -0.000000   0.000117
     11       0.000000   0.000010   0.000000
     12      -0.004867  -0.004162   0.005038
     13       0.000933   0.000924  -0.001870
     14       0.000815   0.000767  -0.000520
     15       0.000308  -0.000000   0.002854
     16       0.092243  -0.000063   0.991356
     17      -0.000002  -0.002331  -0.000000
     18      -0.005538   0.004352  -0.005925
     19      -0.003800   0.003059  -0.002710
     20       0.007756  -0.006268   0.009873
     21       0.001362  -0.000002   0.001197
     22      -0.000140   0.000000  -0.000253
     23      -0.000000  -0.000094  -0.000000
     24      -0.000054  -0.000047   0.000069
     25      -0.000077  -0.000099   0.002033
     26       0.000874   0.000402   0.002961
     27      -0.000054   0.000047   0.000069
     28      -0.000077   0.000099   0.002033
     29      -0.000874   0.000403  -0.002961
     30      -0.004860   0.004168   0.005037
     31       0.000931  -0.000926  -0.001870
     32      -0.000813   0.000768   0.000520
     33       0.000205  -0.000000  -0.000219
     34      -0.001601   0.000002  -0.001656
     35      -0.000000  -0.000028  -0.000000
     36      -0.005545  -0.004345  -0.005925
     37      -0.003804  -0.003053  -0.002709
     38      -0.007766  -0.006258  -0.009873
     39       0.003946   0.003930  -0.000333
     40       0.059746   0.059913  -0.005693
     41       0.030819   0.030889  -0.002262
     42      -0.019262  -0.019324   0.001876
     43      -0.598440  -0.600443   0.060220
     44      -0.125569  -0.125886   0.010810
     45      -0.214412  -0.214626   0.015241
     46      -0.049250  -0.049396   0.004522
     47      -0.135732  -0.135792   0.008273
     48       0.187254   0.187803  -0.013460
     49      -0.054051  -0.054325   0.004890
     50      -0.112542  -0.112828   0.006977
     51       0.003945  -0.003940  -0.000333
     52       0.059662  -0.059997  -0.005693
     53      -0.030775   0.030932   0.002262
     54      -0.214128   0.214948   0.015241
     55      -0.049185   0.049470   0.004522
     56       0.135552  -0.135996  -0.008273
     57      -0.019236   0.019353   0.001876
     58      -0.597595   0.601292   0.060218
     59       0.125391  -0.126063  -0.010810
     60       0.186959  -0.188037  -0.013457
     61      -0.053965   0.054392   0.004889
     62       0.112364  -0.112969  -0.006976


-----------
IR SPECTRUM
-----------

 Mode   freq       eps      Int      T**2         TX        TY        TZ
       cm**-1   L/(mol*cm) km/mol    a.u.
----------------------------------------------------------------------------
  6:    113.91   0.000003    0.02  0.000009  ( 0.000000  0.000000 -0.003007)
  7:    158.96   0.000681    3.44  0.001337  (-0.036490 -0.002347 -0.000001)
  8:    198.01   0.000024    0.12  0.000038  ( 0.000002  0.000000 -0.006202)
  9:    219.18   0.000171    0.86  0.000244  (-0.015588 -0.000783 -0.000000)
 10:    274.49   0.000025    0.13  0.000029  ( 0.005304  0.000911 -0.000000)
 11:    308.67   0.000000    0.00  0.000000  (-0.000000  0.000000 -0.000104)
 12:    319.09   0.000011    0.06  0.000011  ( 0.001880  0.002672  0.000000)
 13:    425.96   0.000007    0.04  0.000005  ( 0.000000  0.000000  0.002265)
 14:    468.03   0.002877   14.54  0.001918  ( 0.043795 -0.000545 -0.000001)
 15:    474.31   0.000767    3.88  0.000505  (-0.000001  0.000000 -0.022465)
 16:    534.32   0.001511    7.64  0.000883  ( 0.029000  0.006441  0.000000)
 17:    626.24   0.000076    0.38  0.000038  (-0.003650  0.004960 -0.000000)
 18:    809.64   0.000132    0.67  0.000051  (-0.004866 -0.005219 -0.000000)
 19:    885.61   0.000402    2.03  0.000142  (-0.000000 -0.000000  0.011897)
 20:    917.85   0.000058    0.29  0.000020  ( 0.000000 -0.000000  0.004440)
 21:    944.42   0.000200    1.01  0.000066  (-0.006854  0.004371  0.000000)
 22:   1006.88   0.000318    1.61  0.000099  (-0.009048  0.004081  0.000000)
 23:   1048.23   0.003472   17.55  0.001034  ( 0.007434 -0.031279  0.000000)
 24:   1077.64   0.000401    2.03  0.000116  ( 0.000000  0.000000 -0.010783)
 25:   1121.94   0.000815    4.12  0.000227  ( 0.002174  0.014898  0.000000)
 26:   1128.47   0.000999    5.05  0.000276  (-0.015427 -0.006187  0.000000)
 27:   1141.79   0.001445    7.30  0.000395  (-0.000000  0.000000 -0.019872)
 28:   1144.27   0.000043    0.22  0.000012  (-0.000001  0.000000  0.003433)
 29:   1165.33   0.000259    1.31  0.000069  (-0.008090 -0.002005 -0.000000)
 30:   1209.68   0.010150   51.30  0.002618  (-0.000000 -0.000000  0.051171)
 31:   1245.23   0.005941   30.02  0.001489  (-0.000000 -0.000000 -0.038585)
 32:   1282.39   0.000243    1.23  0.000059  (-0.000001 -0.000001  0.007692)
 33:   1289.67   0.006010   30.37  0.001454  ( 0.017421  0.033924  0.000001)
 34:   1344.70   0.002024   10.23  0.000470  ( 0.005199 -0.021040  0.000001)
 35:   1358.37   0.005019   25.37  0.001153  ( 0.000000 -0.000000 -0.033958)
 36:   1413.55   0.003839   19.40  0.000847  (-0.000000 -0.000000  0.029111)
 37:   1415.39   0.001510    7.63  0.000333  (-0.000000 -0.000000 -0.018249)
 38:   1432.82   0.003307   16.71  0.000720  ( 0.004237 -0.026501  0.000001)
 39:   1457.17   0.006985   35.30  0.001496  ( 0.000000 -0.000000 -0.038676)
 40:   1460.14   0.006376   32.22  0.001363  ( 0.035915  0.008527  0.000001)
 41:   1462.13   0.000336    1.70  0.000072  (-0.000001  0.000001 -0.008467)
 42:   1463.79   0.004101   20.73  0.000874  ( 0.029012 -0.005714 -0.000001)
 43:   1465.88   0.000863    4.36  0.000184  ( 0.000208 -0.013551  0.000002)
 44:   1478.87   0.000054    0.28  0.000011  ( 0.000000  0.000000  0.003391)
 45:   1483.19   0.004830   24.41  0.001016  ( 0.005701  0.031364  0.000001)
 46:   1491.46   0.000053    0.27  0.000011  ( 0.000370  0.003310  0.000000)
 47:   1498.44   0.001093    5.52  0.000228  (-0.000000 -0.000000  0.015089)
 48:   1591.77   0.006307   31.87  0.001237  (-0.004495  0.034876  0.000000)
 49:   1815.25   0.116896  590.74  0.020096  ( 0.000000 -0.000000  0.141760)
 50:   3080.51   0.003254   16.45  0.000330  ( 0.000000  0.000029  0.018157)
 51:   3080.87   0.000699    3.53  0.000071  (-0.000106 -0.008411  0.000063)
 52:   3089.38   0.001375    6.95  0.000139  ( 0.000003 -0.000003  0.011787)
 53:   3091.81   0.001236    6.25  0.000125  (-0.007924  0.007874  0.000005)
 54:   3105.31   0.000847    4.28  0.000085  ( 0.009222  0.000237  0.000000)
 55:   3169.22   0.000130    0.66  0.000013  ( 0.000001 -0.000000  0.003575)
 56:   3170.41   0.000343    1.73  0.000034  ( 0.005768  0.000679 -0.000001)
 57:   3185.66   0.000244    1.24  0.000024  (-0.004887  0.000260  0.000000)
 58:   3186.99   0.000004    0.02  0.000000  (-0.000074 -0.000004  0.000600)
 59:   3187.11   0.000231    1.17  0.000023  ( 0.004751  0.000256  0.000010)
 60:   3214.62   0.000265    1.34  0.000026  ( 0.000483  0.005054  0.000003)
 61:   3214.66   0.000127    0.64  0.000012  (-0.000000 -0.000004  0.003505)
 62:   3236.42   0.000193    0.98  0.000019  (-0.000602  0.004276 -0.000000)

* The epsilon (eps) is given for a Dirac delta lineshape.
** The dipole moment derivative (T) already includes vibrational overlap.

The first frequency considered to be a vibration is 6
The total number of vibrations considered is 57


--------------------------
THERMOCHEMISTRY AT 298.15K
--------------------------

Temperature         ... 298.15 K
Pressure            ... 1.00 atm
Total Mass          ... 113.18 AMU

Throughout the following assumptions are being made:
  (1) The electronic state is orbitally nondegenerate
  (2) There are no thermally accessible electronically excited states
  (3) Hindered rotations indicated by low frequency modes are not
      treated as such but are treated as vibrations and this may
      cause some error
  (4) All equations used are the standard statistical mechanics
      equations for an ideal gas
  (5) All vibrations are strictly harmonic

freq.     113.91  E(vib)   ...       0.44 
freq.     158.96  E(vib)   ...       0.39 
freq.     198.01  E(vib)   ...       0.35 
freq.     219.18  E(vib)   ...       0.33 
freq.     274.49  E(vib)   ...       0.28 
freq.     308.67  E(vib)   ...       0.26 
freq.     319.09  E(vib)   ...       0.25 
freq.     425.96  E(vib)   ...       0.18 
freq.     468.03  E(vib)   ...       0.16 
freq.     474.31  E(vib)   ...       0.15 
freq.     534.32  E(vib)   ...       0.13 
freq.     626.24  E(vib)   ...       0.09 
freq.     809.64  E(vib)   ...       0.05 
freq.     885.61  E(vib)   ...       0.04 
freq.     917.85  E(vib)   ...       0.03 
freq.     944.42  E(vib)   ...       0.03 
freq.    1006.88  E(vib)   ...       0.02 
freq.    1048.23  E(vib)   ...       0.02 
freq.    1077.64  E(vib)   ...       0.02 
freq.    1121.94  E(vib)   ...       0.01 
freq.    1128.47  E(vib)   ...       0.01 
freq.    1141.79  E(vib)   ...       0.01 
freq.    1144.27  E(vib)   ...       0.01 
freq.    1165.33  E(vib)   ...       0.01 
freq.    1209.68  E(vib)   ...       0.01 
freq.    1245.23  E(vib)   ...       0.01 
freq.    1282.39  E(vib)   ...       0.01 
freq.    1289.67  E(vib)   ...       0.01 
freq.    1344.70  E(vib)   ...       0.01 
freq.    1358.37  E(vib)   ...       0.01 
freq.    1413.55  E(vib)   ...       0.00 
freq.    1415.39  E(vib)   ...       0.00 
freq.    1432.82  E(vib)   ...       0.00 
freq.    1457.17  E(vib)   ...       0.00 
freq.    1460.14  E(vib)   ...       0.00 
freq.    1462.13  E(vib)   ...       0.00 
freq.    1463.79  E(vib)   ...       0.00 
freq.    1465.88  E(vib)   ...       0.00 
freq.    1478.87  E(vib)   ...       0.00 
freq.    1483.19  E(vib)   ...       0.00 
freq.    1491.46  E(vib)   ...       0.00 
freq.    1498.44  E(vib)   ...       0.00 
freq.    1591.77  E(vib)   ...       0.00 
freq.    1815.25  E(vib)   ...       0.00 
freq.    3080.51  E(vib)   ...       0.00 
freq.    3080.87  E(vib)   ...       0.00 
freq.    3089.38  E(vib)   ...       0.00 
freq.    3091.81  E(vib)   ...       0.00 
freq.    3105.31  E(vib)   ...       0.00 
freq.    3169.22  E(vib)   ...       0.00 
freq.    3170.41  E(vib)   ...       0.00 
freq.    3185.66  E(vib)   ...       0.00 
freq.    3186.99  E(vib)   ...       0.00 
freq.    3187.11  E(vib)   ...       0.00 
freq.    3214.62  E(vib)   ...       0.00 
freq.    3214.66  E(vib)   ...       0.00 
freq.    3236.42  E(vib)   ...       0.00 

------------
INNER ENERGY
------------

The inner energy is: U= E(el) + E(ZPE) + E(vib) + E(rot) + E(trans)
    E(el)   - is the total energy from the electronic structure calculation
              = E(kin-el) + E(nuc-el) + E(el-el) + E(nuc-nuc)
    E(ZPE)  - the the zero temperature vibrational energy from the frequency calculation
    E(vib)  - the the finite temperature correction to E(ZPE) due to population
              of excited vibrational states
    E(rot)  - is the rotational thermal energy
    E(trans)- is the translational thermal energy

Summary of contributions to the inner energy U:
Electronic energy                ...   -345.42804905 Eh
Zero point energy                ...      0.19634638 Eh     123.21 kcal/mol
Thermal vibrational correction   ...      0.00539003 Eh       3.38 kcal/mol
Thermal rotational correction    ...      0.00141627 Eh       0.89 kcal/mol
Thermal translational correction ...      0.00141627 Eh       0.89 kcal/mol
-----------------------------------------------------------------------
Total thermal energy                   -345.22348009 Eh


Summary of corrections to the electronic energy:
(perhaps to be used in another calculation)
Total thermal correction                  0.00822257 Eh       5.16 kcal/mol
Non-thermal (ZPE) correction              0.19634638 Eh     123.21 kcal/mol
-----------------------------------------------------------------------
Total correction                          0.20456895 Eh     128.37 kcal/mol


--------
ENTHALPY
--------

The enthalpy is H = U + kB*T
                kB is Boltzmann's constant
Total free energy                 ...   -345.22348009 Eh 
Thermal Enthalpy correction       ...      0.00094421 Eh       0.59 kcal/mol
-----------------------------------------------------------------------
Total Enthalpy                    ...   -345.22253589 Eh


Note: Rotational entropy computed according to Herzberg 
Infrared and Raman Spectra, Chapter V,1, Van Nostrand Reinhold, 1945 
Point Group:  Cs, Symmetry Number:   1  
Rotational constants in cm-1:     0.107501     0.059056     0.040189 

Vibrational entropy computed according to the QRRHO of S. Grimme
Chem.Eur.J. 2012 18 9955


-------
ENTROPY
-------

The entropy contributions are T*S = T*(S(el)+S(vib)+S(rot)+S(trans))
     S(el)   - electronic entropy
     S(vib)  - vibrational entropy
     S(rot)  - rotational entropy
     S(trans)- translational entropy
The entropies will be listed as multiplied by the temperature to get
units of energy

Electronic entropy                ...      0.00000000 Eh      0.00 kcal/mol
Vibrational entropy               ...      0.00890092 Eh      5.59 kcal/mol
Rotational entropy                ...      0.01341674 Eh      8.42 kcal/mol
Translational entropy             ...      0.01904664 Eh     11.95 kcal/mol
-----------------------------------------------------------------------
Final entropy term                ...      0.04136430 Eh     25.96 kcal/mol

In case the symmetry of your molecule has not been determined correctly
or in case you have a reason to use a different symmetry number we print 
out the resulting rotational entropy values for sn=1,12 :
 --------------------------------------------------------
|  sn= 1 | S(rot)=       0.01341674 Eh      8.42 kcal/mol|
|  sn= 2 | S(rot)=       0.01276228 Eh      8.01 kcal/mol|
|  sn= 3 | S(rot)=       0.01237945 Eh      7.77 kcal/mol|
|  sn= 4 | S(rot)=       0.01210783 Eh      7.60 kcal/mol|
|  sn= 5 | S(rot)=       0.01189714 Eh      7.47 kcal/mol|
|  sn= 6 | S(rot)=       0.01172500 Eh      7.36 kcal/mol|
|  sn= 7 | S(rot)=       0.01157945 Eh      7.27 kcal/mol|
|  sn= 8 | S(rot)=       0.01145337 Eh      7.19 kcal/mol|
|  sn= 9 | S(rot)=       0.01134216 Eh      7.12 kcal/mol|
|  sn=10 | S(rot)=       0.01124268 Eh      7.05 kcal/mol|
|  sn=11 | S(rot)=       0.01115269 Eh      7.00 kcal/mol|
|  sn=12 | S(rot)=       0.01107054 Eh      6.95 kcal/mol|
 --------------------------------------------------------


-------------------
GIBBS FREE ENERGY
-------------------

The Gibbs free energy is G = H - T*S

Total enthalpy                    ...   -345.22253589 Eh 
Total entropy correction          ...     -0.04136430 Eh    -25.96 kcal/mol
-----------------------------------------------------------------------
Final Gibbs free energy         ...   -345.26390018 Eh

For completeness - the Gibbs free energy minus the electronic energy
G-E(el)                           ...      0.16414886 Eh    103.00 kcal/mol


Timings for individual modules:

Sum of individual times         ...      989.420 sec (=  16.490 min)
GTO integral calculation        ...        0.273 sec (=   0.005 min)   0.0 %
SCF iterations                  ...      204.179 sec (=   3.403 min)  20.6 %
Analytical frequency calculation...      784.968 sec (=  13.083 min)  79.3 %
                             ****ORCA TERMINATED NORMALLY****
TOTAL RUN TIME: 0 days 0 hours 16 minutes 29 seconds 715 msec
