
                                 *****************
                                 * O   R   C   A *
                                 *****************

                                            #,                                       
                                            ###                                      
                                            ####                                     
                                            #####                                    
                                            ######                                   
                                           ########,                                 
                                     ,,################,,,,,                         
                               ,,#################################,,                 
                          ,,##########################################,,             
                       ,#########################################, ''#####,          
                    ,#############################################,,   '####,        
                  ,##################################################,,,,####,       
                ,###########''''           ''''###############################       
              ,#####''   ,,,,##########,,,,          '''####'''          '####       
            ,##' ,,,,###########################,,,                        '##       
           ' ,,###''''                  '''############,,,                           
         ,,##''                                '''############,,,,        ,,,,,,###''
      ,#''                                            '''#######################'''  
     '                                                          ''''####''''         
             ,#######,   #######,   ,#######,      ##                                
            ,#'     '#,  ##    ##  ,#'     '#,    #''#        ######   ,####,        
            ##       ##  ##   ,#'  ##            #'  '#       #        #'  '#        
            ##       ##  #######   ##           ,######,      #####,   #    #        
            '#,     ,#'  ##    ##  '#,     ,#' ,#      #,         ##   #,  ,#        
             '#######'   ##     ##  '#######'  #'      '#     #####' # '####'        



                  #######################################################
                  #                        -***-                        #
                  #          Department of theory and spectroscopy      #
                  #    Directorship and core code : Frank Neese         #
                  #        Max Planck Institute fuer Kohlenforschung    #
                  #                Kaiser Wilhelm Platz 1               #
                  #                 D-45470 Muelheim/Ruhr               #
                  #                      Germany                        #
                  #                                                     #
                  #                  All rights reserved                #
                  #                        -***-                        #
                  #######################################################


                         Program Version 5.0.4 -  RELEASE  -


 With contributions from (in alphabetic order):
   Daniel Aravena         : Magnetic Suceptibility
   Michael Atanasov       : Ab Initio Ligand Field Theory (pilot matlab implementation)
   Alexander A. Auer      : GIAO ZORA, VPT2 properties, NMR spectrum
   Ute Becker             : Parallelization
   Giovanni Bistoni       : ED, misc. LED, open-shell LED, HFLD
   Martin Brehm           : Molecular dynamics
   Dmytro Bykov           : SCF Hessian
   Vijay G. Chilkuri      : MRCI spin determinant printing, contributions to CSF-ICE
   Dipayan Datta          : RHF DLPNO-CCSD density
   Achintya Kumar Dutta   : EOM-CC, STEOM-CC
   Dmitry Ganyushin       : Spin-Orbit,Spin-Spin,Magnetic field MRCI
   Miquel Garcia          : C-PCM and meta-GGA Hessian, CC/C-PCM, Gaussian charge scheme
   Yang Guo               : DLPNO-NEVPT2, F12-NEVPT2, CIM, IAO-localization
   Andreas Hansen         : Spin unrestricted coupled pair/coupled cluster methods
   Benjamin Helmich-Paris : MC-RPA, TRAH-SCF, COSX integrals
   Lee Huntington         : MR-EOM, pCC
   Robert Izsak           : Overlap fitted RIJCOSX, COSX-SCS-MP3, EOM
   Marcus Kettner         : VPT2
   Christian Kollmar      : KDIIS, OOCD, Brueckner-CCSD(T), CCSD density, CASPT2, CASPT2-K
   Simone Kossmann        : Meta GGA functionals, TD-DFT gradient, OOMP2, MP2 Hessian
   Martin Krupicka        : Initial AUTO-CI
   Lucas Lang             : DCDCAS
   Marvin Lechner         : AUTO-CI (C++ implementation), FIC-MRCC
   Dagmar Lenk            : GEPOL surface, SMD
   Dimitrios Liakos       : Extrapolation schemes; Compound Job, initial MDCI parallelization
   Dimitrios Manganas     : Further ROCIS development; embedding schemes
   Dimitrios Pantazis     : SARC Basis sets
   Anastasios Papadopoulos: AUTO-CI, single reference methods and gradients
   Taras Petrenko         : DFT Hessian,TD-DFT gradient, ASA, ECA, R-Raman, ABS, FL, XAS/XES, NRVS
   Peter Pinski           : DLPNO-MP2, DLPNO-MP2 Gradient
   Christoph Reimann      : Effective Core Potentials
   Marius Retegan         : Local ZFS, SOC
   Christoph Riplinger    : Optimizer, TS searches, QM/MM, DLPNO-CCSD(T), (RO)-DLPNO pert. Triples
   Tobias Risthaus        : Range-separated hybrids, TD-DFT gradient, RPA, STAB
   Michael Roemelt        : Original ROCIS implementation
   Masaaki Saitow         : Open-shell DLPNO-CCSD energy and density
   Barbara Sandhoefer     : DKH picture change effects
   Avijit Sen             : IP-ROCIS
   Kantharuban Sivalingam : CASSCF convergence, NEVPT2, FIC-MRCI
   Bernardo de Souza      : ESD, SOC TD-DFT
   Georgi Stoychev        : AutoAux, RI-MP2 NMR, DLPNO-MP2 response
   Willem Van den Heuvel  : Paramagnetic NMR
   Boris Wezisla          : Elementary symmetry handling
   Frank Wennmohs         : Technical directorship


 We gratefully acknowledge several colleagues who have allowed us to
 interface, adapt or use parts of their codes:
   Stefan Grimme, W. Hujo, H. Kruse, P. Pracht,  : VdW corrections, initial TS optimization,
                  C. Bannwarth, S. Ehlert          DFT functionals, gCP, sTDA/sTD-DF
   Ed Valeev, F. Pavosevic, A. Kumar             : LibInt (2-el integral package), F12 methods
   Garnet Chan, S. Sharma, J. Yang, R. Olivares  : DMRG
   Ulf Ekstrom                                   : XCFun DFT Library
   Mihaly Kallay                                 : mrcc  (arbitrary order and MRCC methods)
   Jiri Pittner, Ondrej Demel                    : Mk-CCSD
   Frank Weinhold                                : gennbo (NPA and NBO analysis)
   Christopher J. Cramer and Donald G. Truhlar   : smd solvation model
   Lars Goerigk                                  : TD-DFT with DH, B97 family of functionals
   V. Asgeirsson, H. Jonsson                     : NEB implementation
   FAccTs GmbH                                   : IRC, NEB, NEB-TS, DLPNO-Multilevel, CI-OPT
                                                   MM, QMMM, 2- and 3-layer-ONIOM, Crystal-QMMM,
                                                   LR-CPCM, SF, NACMEs, symmetry and pop. for TD-DFT,
                                                   nearIR, NL-DFT gradient (VV10), updates on ESD,
                                                   ML-optimized integration grids
   S Lehtola, MJT Oliveira, MAL Marques          : LibXC Library
   Liviu Ungur et al                             : ANISO software


 Your calculation uses the libint2 library for the computation of 2-el integrals
 For citations please refer to: http://libint.valeyev.net

 Your ORCA version has been built with support for libXC version: 5.1.0
 For citations please refer to: https://tddft.org/programs/libxc/

 This ORCA versions uses:
   CBLAS   interface :  Fast vector & matrix operations
   LAPACKE interface :  Fast linear algebra routines
   SCALAPACK package :  Parallel linear algebra routines
   Shared memory     :  Shared parallel matrices
   BLAS/LAPACK       :  OpenBLAS 0.3.15  USE64BITINT DYNAMIC_ARCH NO_AFFINITY SkylakeX SINGLE_THREADED
        Core in use  :  SkylakeX
   Copyright (c) 2011-2014, The OpenBLAS Project


Your calculation utilizes the atom-pairwise dispersion correction
based on tight binding partial charges (D4)
Cite in your paper:
E.Caldeweyher, C.Bannwarth, S.Grimme, J.Chem.Phys., (2017), 147, 034112.
E.Caldeweyher, S.Ehlert, A.Hansen, H.Neugebauer, S.Grimme, J.Chem.Phys., (2018), in progress.
   

XCFun DFT library Copyright 2009-2010 Ulf Ekstrom and contributors.
See http://admol.org/xcfun for more information.
This is free software; see the source code for copying conditions.
There is ABSOLUTELY NO WARRANTY; not even for MERCHANTABILITY or FITNESS FOR A PARTICULAR PURPOSE.
For details see the documentation.
Scientific users of this library should cite U. Ekstrom, L. Visscher, R. Bast, A. J. Thorvaldsen and K. Ruud;
J.Chem.Theor.Comp. 2010, DOI: 10.1021/ct100117s
XCFun Version 0.99 

================================================================================

----- Orbital basis set information -----
Your calculation utilizes the basis: def2-SVP
   F. Weigend and R. Ahlrichs, Phys. Chem. Chem. Phys. 7, 3297 (2005).

----- AuxJ basis set information -----
Your calculation utilizes the auxiliary basis: def2/J
   F. Weigend, Phys. Chem. Chem. Phys. 8, 1057 (2006).

================================================================================
                                        WARNINGS
                       Please study these warnings very carefully!
================================================================================


INFO   : the flag for use of the SHARK integral package has been found!

================================================================================
                                       INPUT FILE
================================================================================
NAME = DFT_water_outs/10-gasSP.inp
|  1> ! SP wB97X D4 def2-SVP def2/J defgrid2 
|  2> %maxcore 3000
|  3> %PAL NPROCS 4 END
|  4> * xyz 0 1
|  5> C -0.1932 1.0513 1.2375
|  6> C 0.0775 -1.1004 0.0
|  7> C -0.1932 1.0513 -1.2375
|  8> C 0.3557 1.7352 -0.0
|  9> H -1.2668 1.2842 1.3688
| 10> H 0.3244 1.4124 -2.1408
| 11> H 1.4564 1.6699 -0.0
| 12> N -0.0051 -0.3945 1.1414
| 13> N -0.0051 -0.3945 -1.1414
| 14> H -1.2668 1.2842 -1.3688
| 15> H 0.0866 2.8016 -0.0
| 16> H 0.3244 1.4124 2.1408
| 17> C 0.0037 -1.0917 2.4111
| 18> H 0.1013 -2.1683 2.2253
| 19> H 0.8432 -0.757 3.0449
| 20> H -0.9321 -0.9097 2.9682
| 21> C 0.0037 -1.0917 -2.4111
| 22> H 0.8432 -0.757 -3.0449
| 23> H 0.1013 -2.1683 -2.2253
| 24> H -0.9321 -0.9097 -2.9682
| 25> **                         ****END OF INPUT****
================================================================================

                       ****************************
                       * Single Point Calculation *
                       ****************************

---------------------------------
CARTESIAN COORDINATES (ANGSTROEM)
---------------------------------
  C     -0.193200    1.051300    1.237500
  C      0.077500   -1.100400    0.000000
  C     -0.193200    1.051300   -1.237500
  C      0.355700    1.735200   -0.000000
  H     -1.266800    1.284200    1.368800
  H      0.324400    1.412400   -2.140800
  H      1.456400    1.669900   -0.000000
  N     -0.005100   -0.394500    1.141400
  N     -0.005100   -0.394500   -1.141400
  H     -1.266800    1.284200   -1.368800
  H      0.086600    2.801600   -0.000000
  H      0.324400    1.412400    2.140800
  C      0.003700   -1.091700    2.411100
  H      0.101300   -2.168300    2.225300
  H      0.843200   -0.757000    3.044900
  H     -0.932100   -0.909700    2.968200
  C      0.003700   -1.091700   -2.411100
  H      0.843200   -0.757000   -3.044900
  H      0.101300   -2.168300   -2.225300
  H     -0.932100   -0.909700   -2.968200

----------------------------
CARTESIAN COORDINATES (A.U.)
----------------------------
  NO LB      ZA    FRAG     MASS         X           Y           Z
   0 C     6.0000    0    12.011   -0.365095    1.986669    2.338536
   1 C     6.0000    0    12.011    0.146454   -2.079455    0.000000
   2 C     6.0000    0    12.011   -0.365095    1.986669   -2.338536
   3 C     6.0000    0    12.011    0.672176    3.279053   -0.000000
   4 H     1.0000    0     1.008   -2.393905    2.426786    2.586657
   5 H     1.0000    0     1.008    0.613027    2.669049   -4.045526
   6 H     1.0000    0     1.008    2.752197    3.155654   -0.000000
   7 N     7.0000    0    14.007   -0.009638   -0.745497    2.156933
   8 N     7.0000    0    14.007   -0.009638   -0.745497   -2.156933
   9 H     1.0000    0     1.008   -2.393905    2.426786   -2.586657
  10 H     1.0000    0     1.008    0.163650    5.294257   -0.000000
  11 H     1.0000    0     1.008    0.613027    2.669049    4.045526
  12 C     6.0000    0    12.011    0.006992   -2.063014    4.556319
  13 H     1.0000    0     1.008    0.191429   -4.097493    4.205208
  14 H     1.0000    0     1.008    1.593417   -1.430523    5.754027
  15 H     1.0000    0     1.008   -1.761414   -1.719084    5.609085
  16 C     6.0000    0    12.011    0.006992   -2.063014   -4.556319
  17 H     1.0000    0     1.008    1.593417   -1.430523   -5.754027
  18 H     1.0000    0     1.008    0.191429   -4.097493   -4.205208
  19 H     1.0000    0     1.008   -1.761414   -1.719084   -5.609085

--------------------------------
INTERNAL COORDINATES (ANGSTROEM)
--------------------------------
 C      0   0   0     0.000000000000     0.00000000     0.00000000
 C      1   0   0     2.496897601024     0.00000000     0.00000000
 C      1   2   0     2.475000000000    60.28968517     0.00000000
 C      1   2   3     1.516712454620    86.84476703   335.41861018
 H      1   2   3     1.106390102993   110.20745100    86.30548630
 H      3   1   2     1.101931876297   145.05898981   242.26928287
 H      4   1   2     1.102635288751   109.54592510   278.60857606
 N      2   1   3     1.344586006918    28.38245448   179.44788359
 N      2   1   3     1.344586006918    87.80199470     0.26264129
 H      3   1   2     1.106390102993    96.81559514   109.41030110
 H      4   1   2     1.099828973068   110.40514761   160.33950639
 H      1   2   3     1.101931876297   129.62386527   221.16018112
 C      8   2   1     1.448552163369   119.40744633   175.80874547
 H     13   8   2     1.096865971758   108.93401251     1.03750108
 H     13   8   2     1.103850886669   111.22068425   121.32067554
 H     13   8   2     1.104176638949   110.96279056   241.25428314
 C      9   2   1     1.448552163369   119.40744633   183.71557549
 H     17   9   2     1.103850886669   111.22068425   238.67932446
 H     17   9   2     1.096865971758   108.93401251   358.96249892
 H     17   9   2     1.104176638949   110.96279056   118.74571686

---------------------------
INTERNAL COORDINATES (A.U.)
---------------------------
 C      0   0   0     0.000000000000     0.00000000     0.00000000
 C      1   0   0     4.718452650381     0.00000000     0.00000000
 C      1   2   0     4.677072181455    60.28968517     0.00000000
 C      1   2   3     2.866171163140    86.84476703   335.41861018
 H      1   2   3     2.090774291937   110.20745100    86.30548630
 H      3   1   2     2.082349464440   145.05898981   242.26928287
 H      4   1   2     2.083678721337   109.54592510   278.60857606
 N      2   1   3     2.540899316578    28.38245448   179.44788359
 N      2   1   3     2.540899316578    87.80199470     0.26264129
 H      3   1   2     2.090774291937    96.81559514   109.41030110
 H      4   1   2     2.078375553251   110.40514761   160.33950639
 H      1   2   3     2.082349464440   129.62386527   221.16018112
 C      8   2   1     2.737366879466   119.40744633   175.80874547
 H     13   8   2     2.072776292239   108.93401251     1.03750108
 H     13   8   2     2.085975868491   111.22068425   121.32067554
 H     13   8   2     2.086591451087   110.96279056   241.25428314
 C      9   2   1     2.737366879466   119.40744633   183.71557549
 H     17   9   2     2.085975868491   111.22068425   238.67932446
 H     17   9   2     2.072776292239   108.93401251   358.96249892
 H     17   9   2     2.086591451087   110.96279056   118.74571686

---------------------
BASIS SET INFORMATION
---------------------
There are 3 groups of distinct atoms

 Group   1 Type C   : 7s4p1d contracted to 3s2p1d pattern {511/31/1}
 Group   2 Type H   : 4s1p contracted to 2s1p pattern {31/1}
 Group   3 Type N   : 7s4p1d contracted to 3s2p1d pattern {511/31/1}

Atom   0C    basis set group =>   1
Atom   1C    basis set group =>   1
Atom   2C    basis set group =>   1
Atom   3C    basis set group =>   1
Atom   4H    basis set group =>   2
Atom   5H    basis set group =>   2
Atom   6H    basis set group =>   2
Atom   7N    basis set group =>   3
Atom   8N    basis set group =>   3
Atom   9H    basis set group =>   2
Atom  10H    basis set group =>   2
Atom  11H    basis set group =>   2
Atom  12C    basis set group =>   1
Atom  13H    basis set group =>   2
Atom  14H    basis set group =>   2
Atom  15H    basis set group =>   2
Atom  16C    basis set group =>   1
Atom  17H    basis set group =>   2
Atom  18H    basis set group =>   2
Atom  19H    basis set group =>   2
---------------------------------
AUXILIARY/J BASIS SET INFORMATION
---------------------------------
There are 3 groups of distinct atoms

 Group   1 Type C   : 12s5p4d2f1g contracted to 6s4p3d1f1g pattern {711111/2111/211/2/1}
 Group   2 Type H   : 5s2p1d contracted to 3s1p1d pattern {311/2/1}
 Group   3 Type N   : 12s5p4d2f1g contracted to 6s4p3d1f1g pattern {711111/2111/211/2/1}

Atom   0C    basis set group =>   1
Atom   1C    basis set group =>   1
Atom   2C    basis set group =>   1
Atom   3C    basis set group =>   1
Atom   4H    basis set group =>   2
Atom   5H    basis set group =>   2
Atom   6H    basis set group =>   2
Atom   7N    basis set group =>   3
Atom   8N    basis set group =>   3
Atom   9H    basis set group =>   2
Atom  10H    basis set group =>   2
Atom  11H    basis set group =>   2
Atom  12C    basis set group =>   1
Atom  13H    basis set group =>   2
Atom  14H    basis set group =>   2
Atom  15H    basis set group =>   2
Atom  16C    basis set group =>   1
Atom  17H    basis set group =>   2
Atom  18H    basis set group =>   2
Atom  19H    basis set group =>   2


           ************************************************************
           *        Program running with 4 parallel MPI-processes     *
           *              working on a common directory               *
           ************************************************************
------------------------------------------------------------------------------
                           ORCA GTO INTEGRAL CALCULATION
                           -- RI-GTO INTEGRALS CHOSEN --
------------------------------------------------------------------------------
------------------------------------------------------------------------------
                   ___                                                        
                  /   \      - P O W E R E D   B Y -                         
                 /     \                                                     
                 |  |  |   _    _      __       _____    __    __             
                 |  |  |  | |  | |    /  \     |  _  \  |  |  /  |          
                  \  \/   | |  | |   /    \    | | | |  |  | /  /          
                 / \  \   | |__| |  /  /\  \   | |_| |  |  |/  /          
                |  |  |   |  __  | /  /__\  \  |    /   |      \           
                |  |  |   | |  | | |   __   |  |    \   |  |\   \          
                \     /   | |  | | |  |  |  |  | |\  \  |  | \   \       
                 \___/    |_|  |_| |__|  |__|  |_| \__\ |__|  \__/        
                                                                              
                      - O R C A' S   B I G   F R I E N D -                    
                                      &                                       
                       - I N T E G R A L  F E E D E R -                       
                                                                              
 v1 FN, 2020, v2 2021                                                         
------------------------------------------------------------------------------


Reading SHARK input file DFT_water_outs/10-gasSP.SHARKINP.tmp ... ok
----------------------
SHARK INTEGRAL PACKAGE
----------------------

Number of atoms                             ...     20
Number of basis functions                   ...    172
Number of shells                            ...     84
Maximum angular momentum                    ...      2
Integral batch strategy                     ... SHARK/LIBINT Hybrid
RI-J (if used) integral strategy            ... SPLIT-RIJ (Revised 2003 algorithm where possible)
Printlevel                                  ...      1
Contraction scheme used                     ... SEGMENTED contraction
Coulomb Range Separation                    ... NOT USED
Exchange Range Separation                   ... Long Range
   Mu parameter                             ...  0.300000
   Scaling (regular/separated)              ...  0.157706  0.842294
Finite Nucleus Model                        ... NOT USED
Auxiliary Coulomb fitting basis             ... AVAILABLE
   # of basis functions in Aux-J            ...    524
   # of shells in Aux-J                     ...    180
   Maximum angular momentum in Aux-J        ...      4
Auxiliary J/K fitting basis                 ... NOT available
Auxiliary Correlation fitting basis         ... NOT available
Auxiliary 'external' fitting basis          ... NOT available
Integral threshold                          ...     1.000000e-10
Primitive cut-off                           ...     1.000000e-11
Primitive pair pre-selection threshold      ...     1.000000e-11

Calculating pre-screening integrals         ... done (  0.0 sec) Dimension = 84
Organizing shell pair data                  ... done (  0.0 sec)
Shell pair information
Total number of shell pairs                 ...      3570
Shell pairs after pre-screening             ...      3344
Total number of primitive shell pairs       ...     12386
Primitive shell pairs kept                  ...      8543
          la=0 lb=0:   1118 shell pairs
          la=1 lb=0:   1247 shell pairs
          la=1 lb=1:    370 shell pairs
          la=2 lb=0:    366 shell pairs
          la=2 lb=1:    208 shell pairs
          la=2 lb=2:     35 shell pairs

Calculating one electron integrals          ... done (  0.0 sec)
Calculating RI/J V-Matrix + Cholesky decomp.... done (  0.0 sec)
Calculating Nuclear repulsion               ... done (  0.0 sec) ENN=    395.523253533488 Eh

SHARK setup successfully completed in   0.2 seconds

Maximum memory used throughout the entire GTOINT-calculation: 12.0 MB


           ************************************************************
           *        Program running with 4 parallel MPI-processes     *
           *              working on a common directory               *
           ************************************************************
-------------------------------------------------------------------------------
                                 ORCA SCF
-------------------------------------------------------------------------------

------------
SCF SETTINGS
------------
Hamiltonian:
 Density Functional     Method          .... DFT(GTOs)
 Exchange Functional    Exchange        .... WB97X
 Correlation Functional Correlation     .... WB97X
 Gradients option       PostSCFGGA      .... off
 Hybrid DFT is turned on
   Fraction HF Exchange ScalHFX         ....  0.157706
   Scaling of DF-GGA-X  ScalDFX         ....  0.000000
   Scaling of DF-GGA-C  ScalDFC         ....  1.000000
   Scaling of DF-LDA-C  ScalLDAC        ....  1.000000
   Perturbative correction              ....  0.000000
   Density functional embedding theory  .... OFF
 Long-range corrected/Screened/Range-Separated Hybrid DFT is turned on
   Amount of maximum screened exact exchange              ....  0.842294
   Range separation parameter mu (erf(mu*r12)/r12)        ....  0.300000
 RI-approximation to the Coulomb term is turned on
   Number of AuxJ basis functions       .... 524
   RIJ-COSX (HFX calculated with COS-X)).... on


General Settings:
 Integral files         IntName         .... DFT_water_outs/10-gasSP
 Hartree-Fock type      HFTyp           .... RHF
 Total Charge           Charge          ....    0
 Multiplicity           Mult            ....    1
 Number of Electrons    NEL             ....   62
 Basis Dimension        Dim             ....  172
 Nuclear Repulsion      ENuc            ....    395.5232535335 Eh

Convergence Acceleration:
 DIIS                   CNVDIIS         .... on
   Start iteration      DIISMaxIt       ....    12
   Startup error        DIISStart       ....  0.200000
   # of expansion vecs  DIISMaxEq       ....     5
   Bias factor          DIISBfac        ....   1.050
   Max. coefficient     DIISMaxC        ....  10.000
 Trust-Rad. Augm. Hess. CNVTRAH         .... auto
   Auto Start mean grad. ratio tolernc. ....  1.125000
   Auto Start start iteration           ....    20
   Auto Start num. interpolation iter.  ....    10
   Max. Number of Micro iterations      ....    16
   Max. Number of Macro iterations      .... Maxiter - #DIIS iter
   Number of Davidson start vectors     ....     2
   Converg. threshold I  (grad. norm)   ....   5.000e-05
   Converg. threshold II (energy diff.) ....   1.000e-06
   Grad. Scal. Fac. for Micro threshold ....   0.100
   Minimum threshold for Micro iter.    ....   0.010
   NR start threshold (gradient norm)   ....   0.001
   Initial trust radius                 ....   0.400
   Minimum AH scaling param. (alpha)    ....   1.000
   Maximum AH scaling param. (alpha)    .... 1000.000
   Orbital update algorithm             .... Taylor
   White noise on init. David. guess    .... on
   Maximum white noise                  ....   0.010
   Quad. conv. algorithm                .... NR
 SOSCF                  CNVSOSCF        .... on
   Start iteration      SOSCFMaxIt      ....   150
   Startup grad/error   SOSCFStart      ....  0.003300
 Level Shifting         CNVShift        .... on
   Level shift para.    LevelShift      ....    0.2500
   Turn off err/grad.   ShiftErr        ....    0.0010
 Zerner damping         CNVZerner       .... off
 Static damping         CNVDamp         .... on
   Fraction old density DampFac         ....    0.7000
   Max. Damping (<1)    DampMax         ....    0.9800
   Min. Damping (>=0)   DampMin         ....    0.0000
   Turn off err/grad.   DampErr         ....    0.1000
 Fernandez-Rico         CNVRico         .... off

SCF Procedure:
 Maximum # iterations   MaxIter         ....   125
 SCF integral mode      SCFMode         .... Direct
   Integral package                     .... SHARK and LIBINT hybrid scheme
 Reset frequency        DirectResetFreq ....    20
 Integral Threshold     Thresh          ....  1.000e-10 Eh
 Primitive CutOff       TCut            ....  1.000e-11 Eh

Convergence Tolerance:
 Convergence Check Mode ConvCheckMode   .... Total+1el-Energy
 Convergence forced     ConvForced      .... 0
 Energy Change          TolE            ....  1.000e-06 Eh
 1-El. energy change                    ....  1.000e-03 Eh
 Orbital Gradient       TolG            ....  5.000e-05
 Orbital Rotation angle TolX            ....  5.000e-05
 DIIS Error             TolErr          ....  1.000e-06


Diagonalization of the overlap matrix:
Smallest eigenvalue                        ... 2.066e-03
Time for diagonalization                   ...    0.006 sec
Threshold for overlap eigenvalues          ... 1.000e-08
Number of eigenvalues below threshold      ... 0
Time for construction of square roots      ...    0.004 sec
Total time needed                          ...    0.010 sec

Time for model grid setup =    0.113 sec

------------------------------
INITIAL GUESS: MODEL POTENTIAL
------------------------------
Loading Hartree-Fock densities                     ... done
Calculating cut-offs                               ... done
Initializing the effective Hamiltonian             ... done
Setting up the integral package (SHARK)            ... done
Starting the Coulomb interaction                   ... done (   0.1 sec)
Reading the grid                                   ... done
Mapping shells                                     ... done
Starting the XC term evaluation                    ... done (   0.1 sec)
  promolecular density results
     # of electrons  =     61.994737895
     EX              =    -47.318991379
     EC              =     -2.050924237
     EX+EC           =    -49.369915616
Transforming the Hamiltonian                       ... done (   0.0 sec)
Diagonalizing the Hamiltonian                      ... done (   0.0 sec)
Back transforming the eigenvectors                 ... done (   0.0 sec)
Now organizing SCF variables                       ... done
                      ------------------
                      INITIAL GUESS DONE (   0.3 sec)
                      ------------------
-------------------
DFT GRID GENERATION
-------------------

General Integration Accuracy     IntAcc      ... 4.388
Radial Grid Type                 RadialGrid  ... OptM3 with GC (2021)
Angular Grid (max. ang.)         AngularGrid ... 4 (Lebedev-302)
Angular grid pruning method      GridPruning ... 4 (adaptive)
Weight generation scheme         WeightScheme... Becke
Basis function cutoff            BFCut       ... 1.0000e-10
Integration weight cutoff        WCut        ... 1.0000e-14
Angular grids for H and He will be reduced by one unit
Partially contracted basis set               ... off
Rotationally invariant grid construction     ... off

Total number of grid points                  ...    86471
Total number of batches                      ...     1360
Average number of points per batch           ...       63
Average number of grid points per atom       ...     4324
Time for grid setup =    0.591 sec

--------------------
COSX GRID GENERATION
--------------------

GRIDX 1
-------
General Integration Accuracy     IntAcc      ... 3.816
Radial Grid Type                 RadialGrid  ... OptM3 with GC (2021)
Angular Grid (max. ang.)         AngularGrid ... 1 (Lebedev-50)
Angular grid pruning method      GridPruning ... 4 (adaptive)
Weight generation scheme         WeightScheme... Becke
Basis function cutoff            BFCut       ... 1.0000e-10
Integration weight cutoff        WCut        ... 1.0000e-14
Angular grids for H and He will be reduced by one unit
Partially contracted basis set               ... on
Rotationally invariant grid construction     ... off

Total number of grid points                  ...    11105
Total number of batches                      ...      186
Average number of points per batch           ...       59
Average number of grid points per atom       ...      555
UseSFitting                                  ... on

GRIDX 2
-------
General Integration Accuracy     IntAcc      ... 4.020
Radial Grid Type                 RadialGrid  ... OptM3 with GC (2021)
Angular Grid (max. ang.)         AngularGrid ... 2 (Lebedev-110)
Angular grid pruning method      GridPruning ... 4 (adaptive)
Weight generation scheme         WeightScheme... Becke
Basis function cutoff            BFCut       ... 1.0000e-10
Integration weight cutoff        WCut        ... 1.0000e-14
Angular grids for H and He will be reduced by one unit
Partially contracted basis set               ... on
Rotationally invariant grid construction     ... off

Total number of grid points                  ...    23342
Total number of batches                      ...      375
Average number of points per batch           ...       62
Average number of grid points per atom       ...     1167
UseSFitting                                  ... on

GRIDX 3
-------
General Integration Accuracy     IntAcc      ... 4.338
Radial Grid Type                 RadialGrid  ... OptM3 with GC (2021)
Angular Grid (max. ang.)         AngularGrid ... 3 (Lebedev-194)
Angular grid pruning method      GridPruning ... 4 (adaptive)
Weight generation scheme         WeightScheme... Becke
Basis function cutoff            BFCut       ... 1.0000e-10
Integration weight cutoff        WCut        ... 1.0000e-14
Angular grids for H and He will be reduced by one unit
Partially contracted basis set               ... on
Rotationally invariant grid construction     ... off

Total number of grid points                  ...    50986
Total number of batches                      ...      806
Average number of points per batch           ...       63
Average number of grid points per atom       ...     2549
UseSFitting                                  ... on

Time for X-Grid setup             =    0.956 sec

--------------
SCF ITERATIONS
--------------
ITER       Energy         Delta-E        Max-DP      RMS-DP      [F,P]     Damp
               ***  Starting incremental Fock matrix formation  ***
  0   -344.8131909683   0.000000000000 0.07299125  0.00166458  0.1307239 0.7000
  1   -344.8769474108  -0.063756442486 0.06553548  0.00128021  0.0826159 0.7000
                               ***Turning on DIIS***
  2   -344.9122887719  -0.035341361037 0.15509739  0.00267031  0.0460950 0.0000
  3   -344.9726253749  -0.060336603015 0.02566409  0.00080439  0.0296990 0.0000
  4   -344.9798411479  -0.007215773055 0.00647488  0.00019053  0.0048202 0.0000
                      *** Initiating the SOSCF procedure ***
                           *** Shutting down DIIS ***
                      *** Re-Reading the Fockian *** 
                      *** Removing any level shift *** 
ITER      Energy       Delta-E        Grad      Rot      Max-DP    RMS-DP
  5   -344.98004751  -0.0002063576  0.001333  0.001333  0.003709  0.000084
               *** Restarting incremental Fock matrix formation ***
  6   -344.98007914  -0.0000316359  0.000550  0.001034  0.001954  0.000058
  7   -344.98008824  -0.0000090977  0.000308  0.000993  0.001636  0.000039
  8   -344.98008970  -0.0000014575  0.000110  0.000203  0.000587  0.000011
  9   -344.98009010  -0.0000004016  0.000016  0.000021  0.000090  0.000002
                 **** Energy Check signals convergence ****
              ***Rediagonalizing the Fockian in SOSCF/NRSCF***

               *****************************************************
               *                     SUCCESS                       *
               *           SCF CONVERGED AFTER  10 CYCLES          *
               *****************************************************

Old exchange energy                            =    -15.810286406 Eh
New exchange energy                            =    -15.810243889 Eh
Exchange energy change after final integration =      0.000042517 Eh
Total energy after final integration           =   -344.980047606 Eh
Final COS-X integration done in                =     6.462 sec

----------------
TOTAL SCF ENERGY
----------------

Total Energy       :         -344.98004761 Eh           -9387.38434 eV

Components:
Nuclear Repulsion  :          395.52325353 Eh           10762.73490 eV
Electronic Energy  :         -740.50330114 Eh          -20150.11924 eV
One Electron Energy:        -1248.59012481 Eh          -33975.86460 eV
Two Electron Energy:          508.08682367 Eh           13825.74536 eV
Max COSX asymmetry :            0.00000352 Eh               0.00010 eV

Virial components:
Potential Energy   :         -685.87393832 Eh          -18663.57870 eV
Kinetic Energy     :          340.89389071 Eh            9276.19436 eV
Virial Ratio       :            2.01198659


DFT components:
N(Alpha)           :       31.000078336955 electrons
N(Beta)            :       31.000078336955 electrons
N(Total)           :       62.000156673911 electrons
E(XC)              :      -34.928590263945 Eh       
DFET-embed. en.    :        0.000000000000 Eh       

---------------
SCF CONVERGENCE
---------------

  Last Energy change         ...   -2.4249e-08  Tolerance :   1.0000e-06
  Last MAX-Density change    ...    2.1658e-15  Tolerance :   1.0000e-05
  Last RMS-Density change    ...    4.0739e-17  Tolerance :   1.0000e-06
  Last Orbital Gradient      ...    6.2949e-06  Tolerance :   5.0000e-05
  Last Orbital Rotation      ...    1.2845e-05  Tolerance :   5.0000e-05

             **** THE GBW FILE WAS UPDATED (DFT_water_outs/10-gasSP.gbw) ****
             **** DENSITY DFT_water_outs/10-gasSP.scfp WAS UPDATED ****
             **** ENERGY FILE WAS UPDATED (DFT_water_outs/10-gasSP.en.tmp) ****
             **** THE GBW FILE WAS UPDATED (DFT_water_outs/10-gasSP.gbw) ****
             **** DENSITY DFT_water_outs/10-gasSP.scfp WAS UPDATED ****
----------------
ORBITAL ENERGIES
----------------

  NO   OCC          E(Eh)            E(eV) 
   0   2.0000     -14.416207      -392.2849 
   1   2.0000     -14.416200      -392.2847 
   2   2.0000     -10.303490      -280.3722 
   3   2.0000     -10.303487      -280.3721 
   4   2.0000     -10.287110      -279.9265 
   5   2.0000     -10.287087      -279.9259 
   6   2.0000     -10.279537      -279.7204 
   7   2.0000     -10.265720      -279.3445 
   8   2.0000      -1.091717       -29.7071 
   9   2.0000      -1.024927       -27.8897 
  10   2.0000      -0.916777       -24.9468 
  11   2.0000      -0.835858       -22.7449 
  12   2.0000      -0.822965       -22.3940 
  13   2.0000      -0.749089       -20.3837 
  14   2.0000      -0.746864       -20.3232 
  15   2.0000      -0.638456       -17.3733 
  16   2.0000      -0.608557       -16.5597 
  17   2.0000      -0.606085       -16.4924 
  18   2.0000      -0.580699       -15.8016 
  19   2.0000      -0.563944       -15.3457 
  20   2.0000      -0.538438       -14.6516 
  21   2.0000      -0.532635       -14.4937 
  22   2.0000      -0.516145       -14.0450 
  23   2.0000      -0.502174       -13.6649 
  24   2.0000      -0.477349       -12.9893 
  25   2.0000      -0.466498       -12.6941 
  26   2.0000      -0.456680       -12.4269 
  27   2.0000      -0.444076       -12.0839 
  28   2.0000      -0.404389       -11.0040 
  29   2.0000      -0.309521        -8.4225 
  30   2.0000      -0.279224        -7.5981 
  31   0.0000       0.127762         3.4766 
  32   0.0000       0.143100         3.8940 
  33   0.0000       0.162137         4.4120 
  34   0.0000       0.182721         4.9721 
  35   0.0000       0.192260         5.2317 
  36   0.0000       0.211238         5.7481 
  37   0.0000       0.223957         6.0942 
  38   0.0000       0.226848         6.1728 
  39   0.0000       0.233083         6.3425 
  40   0.0000       0.233572         6.3558 
  41   0.0000       0.240940         6.5563 
  42   0.0000       0.243713         6.6318 
  43   0.0000       0.256050         6.9675 
  44   0.0000       0.263152         7.1607 
  45   0.0000       0.271376         7.3845 
  46   0.0000       0.305583         8.3153 
  47   0.0000       0.334611         9.1052 
  48   0.0000       0.340077         9.2540 
  49   0.0000       0.349285         9.5045 
  50   0.0000       0.415397        11.3035 
  51   0.0000       0.472581        12.8596 
  52   0.0000       0.510264        13.8850 
  53   0.0000       0.516761        14.0618 
  54   0.0000       0.520309        14.1583 
  55   0.0000       0.533682        14.5222 
  56   0.0000       0.562793        15.3144 
  57   0.0000       0.577129        15.7045 
  58   0.0000       0.588389        16.0109 
  59   0.0000       0.617688        16.8081 
  60   0.0000       0.645684        17.5699 
  61   0.0000       0.652426        17.7534 
  62   0.0000       0.680993        18.5308 
  63   0.0000       0.699005        19.0209 
  64   0.0000       0.723372        19.6839 
  65   0.0000       0.733339        19.9552 
  66   0.0000       0.733374        19.9561 
  67   0.0000       0.737919        20.0798 
  68   0.0000       0.741417        20.1750 
  69   0.0000       0.753026        20.4909 
  70   0.0000       0.768892        20.9226 
  71   0.0000       0.777658        21.1612 
  72   0.0000       0.778631        21.1876 
  73   0.0000       0.787866        21.4389 
  74   0.0000       0.794314        21.6144 
  75   0.0000       0.796015        21.6607 
  76   0.0000       0.796581        21.6761 
  77   0.0000       0.803354        21.8604 
  78   0.0000       0.812654        22.1134 
  79   0.0000       0.817203        22.2372 
  80   0.0000       0.822874        22.3915 
  81   0.0000       0.824558        22.4374 
  82   0.0000       0.839160        22.8347 
  83   0.0000       0.893881        24.3237 
  84   0.0000       0.922141        25.0927 
  85   0.0000       0.994163        27.0525 
  86   0.0000       1.052600        28.6427 
  87   0.0000       1.062529        28.9129 
  88   0.0000       1.096046        29.8249 
  89   0.0000       1.108284        30.1580 
  90   0.0000       1.168657        31.8008 
  91   0.0000       1.227803        33.4102 
  92   0.0000       1.247820        33.9549 
  93   0.0000       1.311220        35.6801 
  94   0.0000       1.318708        35.8839 
  95   0.0000       1.327661        36.1275 
  96   0.0000       1.337504        36.3953 
  97   0.0000       1.398015        38.0419 
  98   0.0000       1.425302        38.7844 
  99   0.0000       1.484627        40.3988 
 100   0.0000       1.507534        41.0221 
 101   0.0000       1.601013        43.5658 
 102   0.0000       1.617135        44.0045 
 103   0.0000       1.645872        44.7864 
 104   0.0000       1.647255        44.8241 
 105   0.0000       1.674063        45.5536 
 106   0.0000       1.706038        46.4236 
 107   0.0000       1.734078        47.1867 
 108   0.0000       1.767489        48.0958 
 109   0.0000       1.774454        48.2854 
 110   0.0000       1.848079        50.2888 
 111   0.0000       1.849053        50.3153 
 112   0.0000       1.877571        51.0913 
 113   0.0000       1.879671        51.1485 
 114   0.0000       1.879781        51.1514 
 115   0.0000       1.896723        51.6124 
 116   0.0000       1.915379        52.1201 
 117   0.0000       1.915512        52.1237 
 118   0.0000       1.917818        52.1865 
 119   0.0000       1.928705        52.4827 
 120   0.0000       1.941416        52.8286 
 121   0.0000       1.950728        53.0820 
 122   0.0000       1.974852        53.7385 
 123   0.0000       1.984040        53.9885 
 124   0.0000       2.002823        54.4996 
 125   0.0000       2.012437        54.7612 
 126   0.0000       2.017513        54.8993 
 127   0.0000       2.073495        56.4227 
 128   0.0000       2.084523        56.7227 
 129   0.0000       2.094094        56.9832 
 130   0.0000       2.135298        58.1044 
 131   0.0000       2.158868        58.7458 
 132   0.0000       2.168823        59.0167 
 133   0.0000       2.177650        59.2569 
 134   0.0000       2.232626        60.7528 
 135   0.0000       2.284874        62.1746 
 136   0.0000       2.294745        62.4432 
 137   0.0000       2.303214        62.6736 
 138   0.0000       2.363572        64.3161 
 139   0.0000       2.374625        64.6168 
 140   0.0000       2.427620        66.0589 
 141   0.0000       2.428432        66.0810 
 142   0.0000       2.457253        66.8652 
 143   0.0000       2.467820        67.1528 
 144   0.0000       2.522698        68.6461 
 145   0.0000       2.547216        69.3133 
 146   0.0000       2.564851        69.7932 
 147   0.0000       2.612824        71.0985 
 148   0.0000       2.639766        71.8317 
 149   0.0000       2.688755        73.1647 
 150   0.0000       2.725499        74.1646 
 151   0.0000       2.750118        74.8345 
 152   0.0000       2.755152        74.9715 
 153   0.0000       2.775064        75.5133 
 154   0.0000       2.816689        76.6460 
 155   0.0000       2.858877        77.7940 
 156   0.0000       2.892944        78.7210 
 157   0.0000       2.929010        79.7024 
 158   0.0000       2.983875        81.1954 
 159   0.0000       2.994783        81.4922 
 160   0.0000       3.016463        82.0821 
 161   0.0000       3.033312        82.5406 
 162   0.0000       3.041946        82.7756 
 163   0.0000       3.053568        83.0918 
 164   0.0000       3.067948        83.4831 
 165   0.0000       3.115846        84.7865 
 166   0.0000       3.136563        85.3502 
 167   0.0000       3.150396        85.7266 
 168   0.0000       3.211705        87.3949 
 169   0.0000       3.261502        88.7500 
 170   0.0000       3.396484        92.4230 
 171   0.0000       3.532771        96.1316 

                    ********************************
                    * MULLIKEN POPULATION ANALYSIS *
                    ********************************

-----------------------
MULLIKEN ATOMIC CHARGES
-----------------------
   0 C :    0.121585
   1 C :   -0.088299
   2 C :    0.121587
   3 C :   -0.057386
   4 H :    0.023923
   5 H :    0.022913
   6 H :    0.039790
   7 N :   -0.341831
   8 N :   -0.341833
   9 H :    0.023923
  10 H :    0.032915
  11 H :    0.022913
  12 C :    0.122701
  13 H :    0.050409
  14 H :    0.020350
  15 H :    0.016442
  16 C :    0.122701
  17 H :    0.020349
  18 H :    0.050409
  19 H :    0.016441
Sum of atomic charges:   -0.0000000

--------------------------------
MULLIKEN REDUCED ORBITAL CHARGES
--------------------------------
  0 C s       :     2.984372  s :     2.984372
      pz      :     1.010179  p :     2.845350
      px      :     1.010035
      py      :     0.825136
      dz2     :     0.009884  d :     0.048693
      dxz     :     0.005871
      dyz     :     0.008120
      dx2y2   :     0.014627
      dxy     :     0.010191
  1 C s       :     3.557980  s :     3.557980
      pz      :     0.678870  p :     2.461001
      px      :     0.577449
      py      :     1.204682
      dz2     :     0.009669  d :     0.069318
      dxz     :     0.019223
      dyz     :     0.025895
      dx2y2   :     0.006426
      dxy     :     0.008106
  2 C s       :     2.984372  s :     2.984372
      pz      :     1.010178  p :     2.845348
      px      :     1.010034
      py      :     0.825136
      dz2     :     0.009884  d :     0.048693
      dxz     :     0.005871
      dyz     :     0.008120
      dx2y2   :     0.014627
      dxy     :     0.010191
  3 C s       :     3.033956  s :     3.033956
      pz      :     0.966287  p :     2.988672
      px      :     1.021416
      py      :     1.000969
      dz2     :     0.009735  d :     0.034757
      dxz     :     0.006520
      dyz     :     0.006180
      dx2y2   :     0.009237
      dxy     :     0.003085
  4 H s       :     0.954674  s :     0.954674
      pz      :     0.004052  p :     0.021404
      px      :     0.014406
      py      :     0.002946
  5 H s       :     0.955323  s :     0.955323
      pz      :     0.011073  p :     0.021764
      px      :     0.006918
      py      :     0.003773
  6 H s       :     0.938071  s :     0.938071
      pz      :     0.003325  p :     0.022139
      px      :     0.014732
      py      :     0.004082
  7 N s       :     3.410009  s :     3.410009
      pz      :     1.146819  p :     3.902620
      px      :     1.634601
      py      :     1.121200
      dz2     :     0.008786  d :     0.029203
      dxz     :     0.003719
      dyz     :     0.009230
      dx2y2   :     0.004397
      dxy     :     0.003072
  8 N s       :     3.410010  s :     3.410010
      pz      :     1.146819  p :     3.902621
      px      :     1.634601
      py      :     1.121200
      dz2     :     0.008786  d :     0.029202
      dxz     :     0.003719
      dyz     :     0.009230
      dx2y2   :     0.004397
      dxy     :     0.003072
  9 H s       :     0.954674  s :     0.954674
      pz      :     0.004052  p :     0.021404
      px      :     0.014406
      py      :     0.002946
 10 H s       :     0.944589  s :     0.944589
      pz      :     0.003626  p :     0.022497
      px      :     0.004890
      py      :     0.013981
 11 H s       :     0.955324  s :     0.955324
      pz      :     0.011073  p :     0.021764
      px      :     0.006918
      py      :     0.003773
 12 C s       :     2.987128  s :     2.987128
      pz      :     0.841009  p :     2.849790
      px      :     1.002069
      py      :     1.006712
      dz2     :     0.008008  d :     0.040380
      dxz     :     0.013818
      dyz     :     0.008872
      dx2y2   :     0.007128
      dxy     :     0.002554
 13 H s       :     0.926529  s :     0.926529
      pz      :     0.003451  p :     0.023062
      px      :     0.004719
      py      :     0.014891
 14 H s       :     0.957077  s :     0.957077
      pz      :     0.006632  p :     0.022573
      px      :     0.010970
      py      :     0.004972
 15 H s       :     0.960948  s :     0.960948
      pz      :     0.005853  p :     0.022610
      px      :     0.012280
      py      :     0.004477
 16 C s       :     2.987128  s :     2.987128
      pz      :     0.841010  p :     2.849791
      px      :     1.002069
      py      :     1.006713
      dz2     :     0.008008  d :     0.040380
      dxz     :     0.013818
      dyz     :     0.008872
      dx2y2   :     0.007128
      dxy     :     0.002554
 17 H s       :     0.957077  s :     0.957077
      pz      :     0.006632  p :     0.022574
      px      :     0.010970
      py      :     0.004972
 18 H s       :     0.926529  s :     0.926529
      pz      :     0.003451  p :     0.023062
      px      :     0.004719
      py      :     0.014891
 19 H s       :     0.960948  s :     0.960948
      pz      :     0.005853  p :     0.022610
      px      :     0.012280
      py      :     0.004477


                     *******************************
                     * LOEWDIN POPULATION ANALYSIS *
                     *******************************

----------------------
LOEWDIN ATOMIC CHARGES
----------------------
   0 C :    0.030682
   1 C :   -0.209820
   2 C :    0.030682
   3 C :   -0.048406
   4 H :    0.016997
   5 H :    0.022365
   6 H :    0.031549
   7 N :   -0.059901
   8 N :   -0.059901
   9 H :    0.016997
  10 H :    0.032541
  11 H :    0.022365
  12 C :    0.026565
  13 H :    0.033112
  14 H :    0.013636
  15 H :    0.013613
  16 C :    0.026565
  17 H :    0.013636
  18 H :    0.033112
  19 H :    0.013613

-------------------------------
LOEWDIN REDUCED ORBITAL CHARGES
-------------------------------
  0 C s       :     2.831145  s :     2.831145
      pz      :     1.045822  p :     3.020885
      px      :     1.064033
      py      :     0.911029
      dz2     :     0.024540  d :     0.117289
      dxz     :     0.014385
      dyz     :     0.019913
      dx2y2   :     0.035049
      dxy     :     0.023402
  1 C s       :     3.157830  s :     3.157830
      pz      :     0.859737  p :     2.897059
      px      :     0.636832
      py      :     1.400490
      dz2     :     0.031698  d :     0.154932
      dxz     :     0.042429
      dyz     :     0.058992
      dx2y2   :     0.010112
      dxy     :     0.011701
  2 C s       :     2.831145  s :     2.831145
      pz      :     1.045822  p :     3.020884
      px      :     1.064033
      py      :     0.911029
      dz2     :     0.024540  d :     0.117289
      dxz     :     0.014385
      dyz     :     0.019913
      dx2y2   :     0.035049
      dxy     :     0.023402
  3 C s       :     2.832622  s :     2.832622
      pz      :     1.024495  p :     3.127559
      px      :     1.059464
      py      :     1.043599
      dz2     :     0.024526  d :     0.088225
      dxz     :     0.015210
      dyz     :     0.017003
      dx2y2   :     0.024358
      dxy     :     0.007128
  4 H s       :     0.918628  s :     0.918628
      pz      :     0.012936  p :     0.064375
      px      :     0.039666
      py      :     0.011773
  5 H s       :     0.913086  s :     0.913086
      pz      :     0.031941  p :     0.064549
      px      :     0.019063
      py      :     0.013544
  6 H s       :     0.903040  s :     0.903040
      pz      :     0.012647  p :     0.065412
      px      :     0.040538
      py      :     0.012227
  7 N s       :     3.065291  s :     3.065291
      pz      :     1.194686  p :     3.925955
      px      :     1.563016
      py      :     1.168253
      dz2     :     0.021220  d :     0.068655
      dxz     :     0.006532
      dyz     :     0.025450
      dx2y2   :     0.009912
      dxy     :     0.005542
  8 N s       :     3.065291  s :     3.065291
      pz      :     1.194686  p :     3.925955
      px      :     1.563016
      py      :     1.168253
      dz2     :     0.021220  d :     0.068655
      dxz     :     0.006532
      dyz     :     0.025450
      dx2y2   :     0.009912
      dxy     :     0.005542
  9 H s       :     0.918628  s :     0.918628
      pz      :     0.012936  p :     0.064375
      px      :     0.039666
      py      :     0.011773
 10 H s       :     0.902027  s :     0.902027
      pz      :     0.013153  p :     0.065432
      px      :     0.014090
      py      :     0.038188
 11 H s       :     0.913086  s :     0.913086
      pz      :     0.031941  p :     0.064549
      px      :     0.019063
      py      :     0.013544
 12 C s       :     2.836494  s :     2.836494
      pz      :     0.928343  p :     3.037162
      px      :     1.065385
      py      :     1.043433
      dz2     :     0.018572  d :     0.099780
      dxz     :     0.035754
      dyz     :     0.020941
      dx2y2   :     0.019262
      dxy     :     0.005251
 13 H s       :     0.901118  s :     0.901118
      pz      :     0.010384  p :     0.065770
      px      :     0.012127
      py      :     0.043258
 14 H s       :     0.923383  s :     0.923383
      pz      :     0.019825  p :     0.062981
      px      :     0.029222
      py      :     0.013934
 15 H s       :     0.923285  s :     0.923285
      pz      :     0.017563  p :     0.063102
      px      :     0.033035
      py      :     0.012504
 16 C s       :     2.836494  s :     2.836494
      pz      :     0.928344  p :     3.037162
      px      :     1.065385
      py      :     1.043433
      dz2     :     0.018572  d :     0.099780
      dxz     :     0.035754
      dyz     :     0.020941
      dx2y2   :     0.019262
      dxy     :     0.005251
 17 H s       :     0.923383  s :     0.923383
      pz      :     0.019825  p :     0.062981
      px      :     0.029222
      py      :     0.013934
 18 H s       :     0.901118  s :     0.901118
      pz      :     0.010384  p :     0.065770
      px      :     0.012127
      py      :     0.043258
 19 H s       :     0.923285  s :     0.923285
      pz      :     0.017563  p :     0.063102
      px      :     0.033035
      py      :     0.012504


                      *****************************
                      * MAYER POPULATION ANALYSIS *
                      *****************************

  NA   - Mulliken gross atomic population
  ZA   - Total nuclear charge
  QA   - Mulliken gross atomic charge
  VA   - Mayer's total valence
  BVA  - Mayer's bonded valence
  FA   - Mayer's free valence

  ATOM       NA         ZA         QA         VA         BVA        FA
  0 C      5.8784     6.0000     0.1216     3.9704     3.9704    -0.0000
  1 C      6.0883     6.0000    -0.0883     2.7114     2.7114    -0.0000
  2 C      5.8784     6.0000     0.1216     3.9704     3.9704    -0.0000
  3 C      6.0574     6.0000    -0.0574     4.0976     4.0976    -0.0000
  4 H      0.9761     1.0000     0.0239     0.9825     0.9825    -0.0000
  5 H      0.9771     1.0000     0.0229     0.9866     0.9866    -0.0000
  6 H      0.9602     1.0000     0.0398     0.9823     0.9823    -0.0000
  7 N      7.3418     7.0000    -0.3418     3.2618     3.2618    -0.0000
  8 N      7.3418     7.0000    -0.3418     3.2618     3.2618    -0.0000
  9 H      0.9761     1.0000     0.0239     0.9825     0.9825    -0.0000
 10 H      0.9671     1.0000     0.0329     0.9827     0.9827    -0.0000
 11 H      0.9771     1.0000     0.0229     0.9866     0.9866    -0.0000
 12 C      5.8773     6.0000     0.1227     3.8979     3.8979    -0.0000
 13 H      0.9496     1.0000     0.0504     1.0269     1.0269    -0.0000
 14 H      0.9797     1.0000     0.0203     0.9890     0.9890     0.0000
 15 H      0.9836     1.0000     0.0164     0.9876     0.9876     0.0000
 16 C      5.8773     6.0000     0.1227     3.8979     3.8979     0.0000
 17 H      0.9797     1.0000     0.0203     0.9890     0.9890     0.0000
 18 H      0.9496     1.0000     0.0504     1.0269     1.0269     0.0000
 19 H      0.9836     1.0000     0.0164     0.9876     0.9876     0.0000

  Mayer bond orders larger than 0.100000
B(  0-C ,  3-C ) :   1.0712 B(  0-C ,  4-H ) :   0.9538 B(  0-C ,  7-N ) :   0.9281 
B(  0-C , 11-H ) :   0.9531 B(  1-C ,  7-N ) :   1.2689 B(  1-C ,  8-N ) :   1.2689 
B(  2-C ,  3-C ) :   1.0712 B(  2-C ,  5-H ) :   0.9531 B(  2-C ,  8-N ) :   0.9281 
B(  2-C ,  9-H ) :   0.9538 B(  3-C ,  6-H ) :   0.9492 B(  3-C , 10-H ) :   0.9502 
B(  7-N , 12-C ) :   0.9806 B(  8-N , 16-C ) :   0.9806 B( 12-C , 13-H ) :   0.9708 
B( 12-C , 14-H ) :   0.9751 B( 12-C , 15-H ) :   0.9731 B( 16-C , 17-H ) :   0.9751 
B( 16-C , 18-H ) :   0.9708 B( 16-C , 19-H ) :   0.9731 

-------
TIMINGS
-------

Total SCF time: 0 days 0 hours 0 min 43 sec 

Total time                  ....      43.519 sec
Sum of individual times     ....      43.244 sec  ( 99.4%)

Fock matrix formation       ....      41.293 sec  ( 94.9%)
  Split-RI-J                ....       1.847 sec  (  4.5% of F)
  Chain of spheres X        ....      34.134 sec  ( 82.7% of F)
  XC integration            ....       5.218 sec  ( 12.6% of F)
    Basis function eval.    ....       1.451 sec  ( 27.8% of XC)
    Density eval.           ....       1.251 sec  ( 24.0% of XC)
    XC-Functional eval.     ....       0.945 sec  ( 18.1% of XC)
    XC-Potential eval.      ....       0.958 sec  ( 18.4% of XC)
Diagonalization             ....       0.054 sec  (  0.1%)
Density matrix formation    ....       0.006 sec  (  0.0%)
Population analysis         ....       0.009 sec  (  0.0%)
Initial guess               ....       0.156 sec  (  0.4%)
Orbital Transformation      ....       0.000 sec  (  0.0%)
Orbital Orthonormalization  ....       0.000 sec  (  0.0%)
DIIS solution               ....       0.034 sec  (  0.1%)
SOSCF solution              ....       0.032 sec  (  0.1%)
Grid generation             ....       1.660 sec  (  3.8%)

Maximum memory used throughout the entire SCF-calculation: 54.6 MB


-------------------------------------------------------------------------------
                          DFT DISPERSION CORRECTION                            
                                                                               
                                 DFTD4 V2.5                                    
-------------------------------------------------------------------------------
The WB97X functional is recognized
Active option DFTDOPT                   ...         5   

Starting D4
-------------------------   ----------------
Dispersion correction           -0.002578939
-------------------------   ----------------


-------------------------   --------------------
FINAL SINGLE POINT ENERGY      -344.982626544697
-------------------------   --------------------


                            ***************************************
                            *     ORCA property calculations      *
                            ***************************************

                                    ---------------------
                                    Active property flags
                                    ---------------------
   (+) Dipole Moment


------------------------------------------------------------------------------
                       ORCA ELECTRIC PROPERTIES CALCULATION
------------------------------------------------------------------------------

Dipole Moment Calculation                       ... on
Quadrupole Moment Calculation                   ... off
Polarizability Calculation                      ... off
GBWName                                         ... DFT_water_outs/10-gasSP.gbw
Electron density                                ... DFT_water_outs/10-gasSP.scfp
The origin for moment calculation is the CENTER OF MASS  = ( 0.003177, -0.036812 -0.000000)

-------------
DIPOLE MOMENT
-------------
                                X             Y             Z
Electronic contribution:      0.17494      -1.12367       0.00000
Nuclear contribution   :     -0.31640       2.27419      -0.00000
                        -----------------------------------------
Total Dipole Moment    :     -0.14146       1.15053       0.00000
                        -----------------------------------------
Magnitude (a.u.)       :      1.15919
Magnitude (Debye)      :      2.94643



--------------------
Rotational spectrum 
--------------------
 
Rotational constants in cm-1:     0.111005     0.059431     0.040819 
Rotational constants in MHz :  3327.853830  1781.709136  1223.719603 

 Dipole components along the rotational axes: 
x,y,z [a.u.] :     0.000002    -1.148454     0.157398 
x,y,z [Debye]:     0.000004    -2.919138     0.400073 

 

Timings for individual modules:

Sum of individual times         ...       44.445 sec (=   0.741 min)
GTO integral calculation        ...        0.546 sec (=   0.009 min)   1.2 %
SCF iterations                  ...       43.899 sec (=   0.732 min)  98.8 %
                             ****ORCA TERMINATED NORMALLY****
TOTAL RUN TIME: 0 days 0 hours 0 minutes 45 seconds 4 msec
