
                                 *****************
                                 * O   R   C   A *
                                 *****************

                                            #,                                       
                                            ###                                      
                                            ####                                     
                                            #####                                    
                                            ######                                   
                                           ########,                                 
                                     ,,################,,,,,                         
                               ,,#################################,,                 
                          ,,##########################################,,             
                       ,#########################################, ''#####,          
                    ,#############################################,,   '####,        
                  ,##################################################,,,,####,       
                ,###########''''           ''''###############################       
              ,#####''   ,,,,##########,,,,          '''####'''          '####       
            ,##' ,,,,###########################,,,                        '##       
           ' ,,###''''                  '''############,,,                           
         ,,##''                                '''############,,,,        ,,,,,,###''
      ,#''                                            '''#######################'''  
     '                                                          ''''####''''         
             ,#######,   #######,   ,#######,      ##                                
            ,#'     '#,  ##    ##  ,#'     '#,    #''#        ######   ,####,        
            ##       ##  ##   ,#'  ##            #'  '#       #        #'  '#        
            ##       ##  #######   ##           ,######,      #####,   #    #        
            '#,     ,#'  ##    ##  '#,     ,#' ,#      #,         ##   #,  ,#        
             '#######'   ##     ##  '#######'  #'      '#     #####' # '####'        



                  #######################################################
                  #                        -***-                        #
                  #          Department of theory and spectroscopy      #
                  #    Directorship and core code : Frank Neese         #
                  #        Max Planck Institute fuer Kohlenforschung    #
                  #                Kaiser Wilhelm Platz 1               #
                  #                 D-45470 Muelheim/Ruhr               #
                  #                      Germany                        #
                  #                                                     #
                  #                  All rights reserved                #
                  #                        -***-                        #
                  #######################################################


                         Program Version 5.0.4 -  RELEASE  -


 With contributions from (in alphabetic order):
   Daniel Aravena         : Magnetic Suceptibility
   Michael Atanasov       : Ab Initio Ligand Field Theory (pilot matlab implementation)
   Alexander A. Auer      : GIAO ZORA, VPT2 properties, NMR spectrum
   Ute Becker             : Parallelization
   Giovanni Bistoni       : ED, misc. LED, open-shell LED, HFLD
   Martin Brehm           : Molecular dynamics
   Dmytro Bykov           : SCF Hessian
   Vijay G. Chilkuri      : MRCI spin determinant printing, contributions to CSF-ICE
   Dipayan Datta          : RHF DLPNO-CCSD density
   Achintya Kumar Dutta   : EOM-CC, STEOM-CC
   Dmitry Ganyushin       : Spin-Orbit,Spin-Spin,Magnetic field MRCI
   Miquel Garcia          : C-PCM and meta-GGA Hessian, CC/C-PCM, Gaussian charge scheme
   Yang Guo               : DLPNO-NEVPT2, F12-NEVPT2, CIM, IAO-localization
   Andreas Hansen         : Spin unrestricted coupled pair/coupled cluster methods
   Benjamin Helmich-Paris : MC-RPA, TRAH-SCF, COSX integrals
   Lee Huntington         : MR-EOM, pCC
   Robert Izsak           : Overlap fitted RIJCOSX, COSX-SCS-MP3, EOM
   Marcus Kettner         : VPT2
   Christian Kollmar      : KDIIS, OOCD, Brueckner-CCSD(T), CCSD density, CASPT2, CASPT2-K
   Simone Kossmann        : Meta GGA functionals, TD-DFT gradient, OOMP2, MP2 Hessian
   Martin Krupicka        : Initial AUTO-CI
   Lucas Lang             : DCDCAS
   Marvin Lechner         : AUTO-CI (C++ implementation), FIC-MRCC
   Dagmar Lenk            : GEPOL surface, SMD
   Dimitrios Liakos       : Extrapolation schemes; Compound Job, initial MDCI parallelization
   Dimitrios Manganas     : Further ROCIS development; embedding schemes
   Dimitrios Pantazis     : SARC Basis sets
   Anastasios Papadopoulos: AUTO-CI, single reference methods and gradients
   Taras Petrenko         : DFT Hessian,TD-DFT gradient, ASA, ECA, R-Raman, ABS, FL, XAS/XES, NRVS
   Peter Pinski           : DLPNO-MP2, DLPNO-MP2 Gradient
   Christoph Reimann      : Effective Core Potentials
   Marius Retegan         : Local ZFS, SOC
   Christoph Riplinger    : Optimizer, TS searches, QM/MM, DLPNO-CCSD(T), (RO)-DLPNO pert. Triples
   Tobias Risthaus        : Range-separated hybrids, TD-DFT gradient, RPA, STAB
   Michael Roemelt        : Original ROCIS implementation
   Masaaki Saitow         : Open-shell DLPNO-CCSD energy and density
   Barbara Sandhoefer     : DKH picture change effects
   Avijit Sen             : IP-ROCIS
   Kantharuban Sivalingam : CASSCF convergence, NEVPT2, FIC-MRCI
   Bernardo de Souza      : ESD, SOC TD-DFT
   Georgi Stoychev        : AutoAux, RI-MP2 NMR, DLPNO-MP2 response
   Willem Van den Heuvel  : Paramagnetic NMR
   Boris Wezisla          : Elementary symmetry handling
   Frank Wennmohs         : Technical directorship


 We gratefully acknowledge several colleagues who have allowed us to
 interface, adapt or use parts of their codes:
   Stefan Grimme, W. Hujo, H. Kruse, P. Pracht,  : VdW corrections, initial TS optimization,
                  C. Bannwarth, S. Ehlert          DFT functionals, gCP, sTDA/sTD-DF
   Ed Valeev, F. Pavosevic, A. Kumar             : LibInt (2-el integral package), F12 methods
   Garnet Chan, S. Sharma, J. Yang, R. Olivares  : DMRG
   Ulf Ekstrom                                   : XCFun DFT Library
   Mihaly Kallay                                 : mrcc  (arbitrary order and MRCC methods)
   Jiri Pittner, Ondrej Demel                    : Mk-CCSD
   Frank Weinhold                                : gennbo (NPA and NBO analysis)
   Christopher J. Cramer and Donald G. Truhlar   : smd solvation model
   Lars Goerigk                                  : TD-DFT with DH, B97 family of functionals
   V. Asgeirsson, H. Jonsson                     : NEB implementation
   FAccTs GmbH                                   : IRC, NEB, NEB-TS, DLPNO-Multilevel, CI-OPT
                                                   MM, QMMM, 2- and 3-layer-ONIOM, Crystal-QMMM,
                                                   LR-CPCM, SF, NACMEs, symmetry and pop. for TD-DFT,
                                                   nearIR, NL-DFT gradient (VV10), updates on ESD,
                                                   ML-optimized integration grids
   S Lehtola, MJT Oliveira, MAL Marques          : LibXC Library
   Liviu Ungur et al                             : ANISO software


 Your calculation uses the libint2 library for the computation of 2-el integrals
 For citations please refer to: http://libint.valeyev.net

 Your ORCA version has been built with support for libXC version: 5.1.0
 For citations please refer to: https://tddft.org/programs/libxc/

 This ORCA versions uses:
   CBLAS   interface :  Fast vector & matrix operations
   LAPACKE interface :  Fast linear algebra routines
   SCALAPACK package :  Parallel linear algebra routines
   Shared memory     :  Shared parallel matrices
   BLAS/LAPACK       :  OpenBLAS 0.3.15  USE64BITINT DYNAMIC_ARCH NO_AFFINITY SkylakeX SINGLE_THREADED
        Core in use  :  SkylakeX
   Copyright (c) 2011-2014, The OpenBLAS Project




***************************************
The coordinates will be read from file: 11+.xyz
***************************************


Your calculation utilizes the atom-pairwise dispersion correction
based on tight binding partial charges (D4)
Cite in your paper:
E.Caldeweyher, C.Bannwarth, S.Grimme, J.Chem.Phys., (2017), 147, 034112.
E.Caldeweyher, S.Ehlert, A.Hansen, H.Neugebauer, S.Grimme, J.Chem.Phys., (2018), in progress.
   

XCFun DFT library Copyright 2009-2010 Ulf Ekstrom and contributors.
See http://admol.org/xcfun for more information.
This is free software; see the source code for copying conditions.
There is ABSOLUTELY NO WARRANTY; not even for MERCHANTABILITY or FITNESS FOR A PARTICULAR PURPOSE.
For details see the documentation.
Scientific users of this library should cite U. Ekstrom, L. Visscher, R. Bast, A. J. Thorvaldsen and K. Ruud;
J.Chem.Theor.Comp. 2010, DOI: 10.1021/ct100117s
XCFun Version 0.99 

================================================================================

----- Orbital basis set information -----
Your calculation utilizes the basis: def2-SVP
   F. Weigend and R. Ahlrichs, Phys. Chem. Chem. Phys. 7, 3297 (2005).

----- AuxJ basis set information -----
Your calculation utilizes the auxiliary basis: def2/J
   F. Weigend, Phys. Chem. Chem. Phys. 8, 1057 (2006).

================================================================================
                                        WARNINGS
                       Please study these warnings very carefully!
================================================================================


INFO   : the flag for use of the SHARK integral package has been found!

================================================================================
                                       INPUT FILE
================================================================================
NAME = 11+.inp
|  1> # ORCA 5.0.4 - 11+.inp # write input file
|  2> # Basic Mode
|  3> #
|  4> ! Freq wB97X Def2-SVP D4 SlowConv TightSCF DEFGRID2 Def2/J RIJCOSX 
|  5> 
|  6> 
|  7> 
|  8> %maxcore 4500
|  9> 
| 10> %geom
| 11> Maxiter 150
| 12> END
| 13> 
| 14> * xyzfile 1 1 11+.xyz
| 15> 
| 16>                          ****END OF INPUT****
================================================================================

                       ****************************
                       * Single Point Calculation *
                       ****************************

---------------------------------
CARTESIAN COORDINATES (ANGSTROEM)
---------------------------------
  C      0.000000   -0.000000    0.663030
  N     -0.008672    1.193350    0.106160
  N      0.008672   -1.193350    0.106160
  C      0.226497    1.490792   -1.304696
  C     -0.226497   -1.490792   -1.304696
  H      0.722268    2.468843   -1.357227
  H     -0.722269   -2.468843   -1.357227
  H      0.895419    0.749044   -1.753175
  H     -0.895418   -0.749043   -1.753175
  H     -0.715601    1.543770   -1.870039
  H      0.715601   -1.543770   -1.870039
  C     -0.238701    2.362357    0.953325
  C      0.238701   -2.362357    0.953325
  H     -0.367192    2.054895    1.998059
  H      0.367192   -2.054895    1.998059
  H      0.616344    3.049633    0.875398
  H     -0.616344   -3.049633    0.875398
  H     -1.148638    2.883510    0.620895
  H      1.148638   -2.883511    0.620895
  H      0.000000    0.000000    1.758295

----------------------------
CARTESIAN COORDINATES (A.U.)
----------------------------
  NO LB      ZA    FRAG     MASS         X           Y           Z
   0 C     6.0000    0    12.011    0.000000   -0.000000    1.252945
   1 N     7.0000    0    14.007   -0.016388    2.255105    0.200613
   2 N     7.0000    0    14.007    0.016388   -2.255105    0.200613
   3 C     6.0000    0    12.011    0.428017    2.817189   -2.465518
   4 C     6.0000    0    12.011   -0.428017   -2.817189   -2.465518
   5 H     1.0000    0     1.008    1.364889    4.665437   -2.564787
   6 H     1.0000    0     1.008   -1.364891   -4.665437   -2.564787
   7 H     1.0000    0     1.008    1.692097    1.415488   -3.313021
   8 H     1.0000    0     1.008   -1.692095   -1.415486   -3.313021
   9 H     1.0000    0     1.008   -1.352290    2.917303   -3.533862
  10 H     1.0000    0     1.008    1.352290   -2.917303   -3.533862
  11 C     6.0000    0    12.011   -0.451080    4.464208    1.801523
  12 C     6.0000    0    12.011    0.451080   -4.464208    1.801523
  13 H     1.0000    0     1.008   -0.693892    3.883189    3.775784
  14 H     1.0000    0     1.008    0.693892   -3.883189    3.775784
  15 H     1.0000    0     1.008    1.164721    5.762971    1.654262
  16 H     1.0000    0     1.008   -1.164721   -5.762971    1.654262
  17 H     1.0000    0     1.008   -2.170611    5.449044    1.173322
  18 H     1.0000    0     1.008    2.170611   -5.449046    1.173322
  19 H     1.0000    0     1.008    0.000000    0.000000    3.322696

--------------------------------
INTERNAL COORDINATES (ANGSTROEM)
--------------------------------
 C      0   0   0     0.000000000000     0.00000000     0.00000000
 N      1   0   0     1.316914432674     0.00000000     0.00000000
 N      1   2   0     1.316914432674   129.96947521     0.00000000
 C      2   1   3     1.460921234927   126.28512299   348.37365532
 C      3   1   2     1.460921234927   126.28512299   348.37365532
 H      4   2   1     1.097785110576   107.47572328   212.71941273
 H      5   3   1     1.097785562187   107.47572467   212.71946153
 H      4   2   1     1.094888191109   110.85412477   330.46488344
 H      5   3   1     1.094888257624   110.85410303   330.46495905
 H      4   2   1     1.099985462512   111.60958497    93.72316381
 H      5   3   1     1.099985462512   111.60958497    93.72316381
 C      2   1   3     1.461909451408   118.72503004   170.04942467
 C      3   1   2     1.461909451408   118.72503004   170.04942467
 H     12   2   1     1.096591058363   110.26247370     0.69294864
 H     13   3   1     1.096591058363   110.26247370     0.69294864
 H     12   2   1     1.099783101129   109.65277344   121.33599698
 H     13   3   1     1.099783101129   109.65277344   121.33599698
 H     12   2   1     1.100043407452   109.50393903   240.89483732
 H     13   3   1     1.100043881209   109.50397448   240.89480643
 H      1   2   3     1.095265000000   115.01526240   180.00000000

---------------------------
INTERNAL COORDINATES (A.U.)
---------------------------
 C      0   0   0     0.000000000000     0.00000000     0.00000000
 N      1   0   0     2.488607619561     0.00000000     0.00000000
 N      1   2   0     2.488607619561   129.96947521     0.00000000
 C      2   1   3     2.760741037242   126.28512299   348.37365532
 C      3   1   2     2.760741037242   126.28512299   348.37365532
 H      4   2   1     2.074513212886   107.47572328   212.71941273
 H      5   3   1     2.074514066306   107.47572467   212.71946153
 H      4   2   1     2.069038828460   110.85412477   330.46488344
 H      5   3   1     2.069038954156   110.85410303   330.46495905
 H      4   2   1     2.078671275442   111.60958497    93.72316381
 H      5   3   1     2.078671275442   111.60958497    93.72316381
 C      2   1   3     2.762608495752   118.72503004   170.04942467
 C      3   1   2     2.762608495752   118.72503004   170.04942467
 H     12   2   1     2.072256781212   110.26247370     0.69294864
 H     13   3   1     2.072256781212   110.26247370     0.69294864
 H     12   2   1     2.078288867849   109.65277344   121.33599698
 H     13   3   1     2.078288867849   109.65277344   121.33599698
 H     12   2   1     2.078780775509   109.50393903   240.89483732
 H     13   3   1     2.078781670781   109.50397448   240.89480643
 H      1   2   3     2.069750894069   115.01526240   180.00000000

---------------------
BASIS SET INFORMATION
---------------------
There are 3 groups of distinct atoms

 Group   1 Type C   : 7s4p1d contracted to 3s2p1d pattern {511/31/1}
 Group   2 Type N   : 7s4p1d contracted to 3s2p1d pattern {511/31/1}
 Group   3 Type H   : 4s1p contracted to 2s1p pattern {31/1}

Atom   0C    basis set group =>   1
Atom   1N    basis set group =>   2
Atom   2N    basis set group =>   2
Atom   3C    basis set group =>   1
Atom   4C    basis set group =>   1
Atom   5H    basis set group =>   3
Atom   6H    basis set group =>   3
Atom   7H    basis set group =>   3
Atom   8H    basis set group =>   3
Atom   9H    basis set group =>   3
Atom  10H    basis set group =>   3
Atom  11C    basis set group =>   1
Atom  12C    basis set group =>   1
Atom  13H    basis set group =>   3
Atom  14H    basis set group =>   3
Atom  15H    basis set group =>   3
Atom  16H    basis set group =>   3
Atom  17H    basis set group =>   3
Atom  18H    basis set group =>   3
Atom  19H    basis set group =>   3
---------------------------------
AUXILIARY/J BASIS SET INFORMATION
---------------------------------
There are 3 groups of distinct atoms

 Group   1 Type C   : 12s5p4d2f1g contracted to 6s4p3d1f1g pattern {711111/2111/211/2/1}
 Group   2 Type N   : 12s5p4d2f1g contracted to 6s4p3d1f1g pattern {711111/2111/211/2/1}
 Group   3 Type H   : 5s2p1d contracted to 3s1p1d pattern {311/2/1}

Atom   0C    basis set group =>   1
Atom   1N    basis set group =>   2
Atom   2N    basis set group =>   2
Atom   3C    basis set group =>   1
Atom   4C    basis set group =>   1
Atom   5H    basis set group =>   3
Atom   6H    basis set group =>   3
Atom   7H    basis set group =>   3
Atom   8H    basis set group =>   3
Atom   9H    basis set group =>   3
Atom  10H    basis set group =>   3
Atom  11C    basis set group =>   1
Atom  12C    basis set group =>   1
Atom  13H    basis set group =>   3
Atom  14H    basis set group =>   3
Atom  15H    basis set group =>   3
Atom  16H    basis set group =>   3
Atom  17H    basis set group =>   3
Atom  18H    basis set group =>   3
Atom  19H    basis set group =>   3
------------------------------------------------------------------------------
                           ORCA GTO INTEGRAL CALCULATION
                           -- RI-GTO INTEGRALS CHOSEN --
------------------------------------------------------------------------------
------------------------------------------------------------------------------
                   ___                                                        
                  /   \      - P O W E R E D   B Y -                         
                 /     \                                                     
                 |  |  |   _    _      __       _____    __    __             
                 |  |  |  | |  | |    /  \     |  _  \  |  |  /  |          
                  \  \/   | |  | |   /    \    | | | |  |  | /  /          
                 / \  \   | |__| |  /  /\  \   | |_| |  |  |/  /          
                |  |  |   |  __  | /  /__\  \  |    /   |      \           
                |  |  |   | |  | | |   __   |  |    \   |  |\   \          
                \     /   | |  | | |  |  |  |  | |\  \  |  | \   \       
                 \___/    |_|  |_| |__|  |__|  |_| \__\ |__|  \__/        
                                                                              
                      - O R C A' S   B I G   F R I E N D -                    
                                      &                                       
                       - I N T E G R A L  F E E D E R -                       
                                                                              
 v1 FN, 2020, v2 2021                                                         
------------------------------------------------------------------------------


Reading SHARK input file 11+.SHARKINP.tmp ... ok
----------------------
SHARK INTEGRAL PACKAGE
----------------------

Number of atoms                             ...     20
Number of basis functions                   ...    163
Number of shells                            ...     81
Maximum angular momentum                    ...      2
Integral batch strategy                     ... SHARK/LIBINT Hybrid
RI-J (if used) integral strategy            ... SPLIT-RIJ (Revised 2003 algorithm where possible)
Printlevel                                  ...      1
Contraction scheme used                     ... SEGMENTED contraction
Coulomb Range Separation                    ... NOT USED
Exchange Range Separation                   ... Long Range
   Mu parameter                             ...  0.300000
   Scaling (regular/separated)              ...  0.157706  0.842294
Finite Nucleus Model                        ... NOT USED
Auxiliary Coulomb fitting basis             ... AVAILABLE
   # of basis functions in Aux-J            ...    486
   # of shells in Aux-J                     ...    170
   Maximum angular momentum in Aux-J        ...      4
Auxiliary J/K fitting basis                 ... NOT available
Auxiliary Correlation fitting basis         ... NOT available
Auxiliary 'external' fitting basis          ... NOT available
Integral threshold                          ...     2.500000e-11
Primitive cut-off                           ...     2.500000e-12
Primitive pair pre-selection threshold      ...     2.500000e-12

Calculating pre-screening integrals         ... done (  0.0 sec) Dimension = 81
Organizing shell pair data                  ... done (  0.0 sec)
Shell pair information
Total number of shell pairs                 ...      3321
Shell pairs after pre-screening             ...      3137
Total number of primitive shell pairs       ...     11305
Primitive shell pairs kept                  ...      8005
          la=0 lb=0:   1081 shell pairs
          la=1 lb=0:   1195 shell pairs
          la=1 lb=1:    345 shell pairs
          la=2 lb=0:    313 shell pairs
          la=2 lb=1:    175 shell pairs
          la=2 lb=2:     28 shell pairs

Calculating one electron integrals          ... done (  0.0 sec)
Calculating RI/J V-Matrix + Cholesky decomp.... done (  0.0 sec)
Calculating Nuclear repulsion               ... done (  0.0 sec) ENN=    332.982504626751 Eh

SHARK setup successfully completed in   0.2 seconds

Maximum memory used throughout the entire GTOINT-calculation: 20.4 MB
-------------------------------------------------------------------------------
                                 ORCA SCF
-------------------------------------------------------------------------------

------------
SCF SETTINGS
------------
Hamiltonian:
 Density Functional     Method          .... DFT(GTOs)
 Exchange Functional    Exchange        .... WB97X
 Correlation Functional Correlation     .... WB97X
 Gradients option       PostSCFGGA      .... off
 Hybrid DFT is turned on
   Fraction HF Exchange ScalHFX         ....  0.157706
   Scaling of DF-GGA-X  ScalDFX         ....  0.000000
   Scaling of DF-GGA-C  ScalDFC         ....  1.000000
   Scaling of DF-LDA-C  ScalLDAC        ....  1.000000
   Perturbative correction              ....  0.000000
   Density functional embedding theory  .... OFF
 Long-range corrected/Screened/Range-Separated Hybrid DFT is turned on
   Amount of maximum screened exact exchange              ....  0.842294
   Range separation parameter mu (erf(mu*r12)/r12)        ....  0.300000
 RI-approximation to the Coulomb term is turned on
   Number of AuxJ basis functions       .... 486
   RIJ-COSX (HFX calculated with COS-X)).... on


General Settings:
 Integral files         IntName         .... 11+
 Hartree-Fock type      HFTyp           .... RHF
 Total Charge           Charge          ....    1
 Multiplicity           Mult            ....    1
 Number of Electrons    NEL             ....   56
 Basis Dimension        Dim             ....  163
 Nuclear Repulsion      ENuc            ....    332.9825046268 Eh

Convergence Acceleration:
 DIIS                   CNVDIIS         .... on
   Start iteration      DIISMaxIt       ....     0
   Startup error        DIISStart       ....  0.200000
   # of expansion vecs  DIISMaxEq       ....     5
   Bias factor          DIISBfac        ....   1.050
   Max. coefficient     DIISMaxC        ....  10.000
 Trust-Rad. Augm. Hess. CNVTRAH         .... auto
   Auto Start mean grad. ratio tolernc. ....  1.125000
   Auto Start start iteration           ....    20
   Auto Start num. interpolation iter.  ....    10
   Max. Number of Micro iterations      ....    16
   Max. Number of Macro iterations      .... Maxiter - #DIIS iter
   Number of Davidson start vectors     ....     2
   Converg. threshold I  (grad. norm)   ....   1.000e-05
   Converg. threshold II (energy diff.) ....   1.000e-08
   Grad. Scal. Fac. for Micro threshold ....   0.100
   Minimum threshold for Micro iter.    ....   0.010
   NR start threshold (gradient norm)   ....   0.001
   Initial trust radius                 ....   0.400
   Minimum AH scaling param. (alpha)    ....   1.000
   Maximum AH scaling param. (alpha)    .... 1000.000
   Orbital update algorithm             .... Taylor
   White noise on init. David. guess    .... on
   Maximum white noise                  ....   0.010
   Quad. conv. algorithm                .... NR
 SOSCF                  CNVSOSCF        .... on
   Start iteration      SOSCFMaxIt      ....   150
   Startup grad/error   SOSCFStart      ....  0.001000
 Level Shifting         CNVShift        .... on
   Level shift para.    LevelShift      ....    0.2500
   Turn off err/grad.   ShiftErr        ....    0.0000
 Zerner damping         CNVZerner       .... off
 Static damping         CNVDamp         .... on
   Fraction old density DampFac         ....    0.8500
   Max. Damping (<1)    DampMax         ....    0.9800
   Min. Damping (>=0)   DampMin         ....    0.0000
   Turn off err/grad.   DampErr         ....    0.0300
 Fernandez-Rico         CNVRico         .... off

SCF Procedure:
 Maximum # iterations   MaxIter         ....   125
 SCF integral mode      SCFMode         .... Direct
   Integral package                     .... SHARK and LIBINT hybrid scheme
 Reset frequency        DirectResetFreq ....    20
 Integral Threshold     Thresh          ....  2.500e-11 Eh
 Primitive CutOff       TCut            ....  2.500e-12 Eh

Convergence Tolerance:
 Convergence Check Mode ConvCheckMode   .... Total+1el-Energy
 Convergence forced     ConvForced      .... 0
 Energy Change          TolE            ....  1.000e-08 Eh
 1-El. energy change                    ....  1.000e-05 Eh
 Orbital Gradient       TolG            ....  1.000e-05
 Orbital Rotation angle TolX            ....  1.000e-05
 DIIS Error             TolErr          ....  5.000e-07


Diagonalization of the overlap matrix:
Smallest eigenvalue                        ... 4.673e-03
Time for diagonalization                   ...    0.005 sec
Threshold for overlap eigenvalues          ... 1.000e-08
Number of eigenvalues below threshold      ... 0
Time for construction of square roots      ...    0.003 sec
Total time needed                          ...    0.008 sec

Time for model grid setup =    0.259 sec

------------------------------
INITIAL GUESS: MODEL POTENTIAL
------------------------------
Loading Hartree-Fock densities                     ... done
Calculating cut-offs                               ... done
Initializing the effective Hamiltonian             ... done
Setting up the integral package (SHARK)            ... done
Starting the Coulomb interaction                   ... done (   0.2 sec)
Reading the grid                                   ... done
Mapping shells                                     ... done
Starting the XC term evaluation                    ... done (   0.3 sec)
  promolecular density results
     # of electrons  =     56.988189651
     EX              =    -42.527112861
     EC              =     -1.869863004
     EX+EC           =    -44.396975864
Transforming the Hamiltonian                       ... done (   0.0 sec)
Diagonalizing the Hamiltonian                      ... done (   0.0 sec)
Back transforming the eigenvectors                 ... done (   0.0 sec)
Now organizing SCF variables                       ... done
                      ------------------
                      INITIAL GUESS DONE (   0.8 sec)
                      ------------------
-------------------
DFT GRID GENERATION
-------------------

General Integration Accuracy     IntAcc      ... 4.388
Radial Grid Type                 RadialGrid  ... OptM3 with GC (2021)
Angular Grid (max. ang.)         AngularGrid ... 4 (Lebedev-302)
Angular grid pruning method      GridPruning ... 4 (adaptive)
Weight generation scheme         WeightScheme... Becke
Basis function cutoff            BFCut       ... 1.0000e-11
Integration weight cutoff        WCut        ... 1.0000e-14
Angular grids for H and He will be reduced by one unit
Partially contracted basis set               ... off
Rotationally invariant grid construction     ... off

Total number of grid points                  ...    83805
Total number of batches                      ...     1322
Average number of points per batch           ...       63
Average number of grid points per atom       ...     4190
Time for grid setup =    1.015 sec

--------------------
COSX GRID GENERATION
--------------------

GRIDX 1
-------
General Integration Accuracy     IntAcc      ... 3.816
Radial Grid Type                 RadialGrid  ... OptM3 with GC (2021)
Angular Grid (max. ang.)         AngularGrid ... 1 (Lebedev-50)
Angular grid pruning method      GridPruning ... 4 (adaptive)
Weight generation scheme         WeightScheme... Becke
Basis function cutoff            BFCut       ... 1.0000e-11
Integration weight cutoff        WCut        ... 1.0000e-14
Angular grids for H and He will be reduced by one unit
Partially contracted basis set               ... on
Rotationally invariant grid construction     ... off

Total number of grid points                  ...    10789
Total number of batches                      ...      183
Average number of points per batch           ...       58
Average number of grid points per atom       ...      539
UseSFitting                                  ... on

GRIDX 2
-------
General Integration Accuracy     IntAcc      ... 4.020
Radial Grid Type                 RadialGrid  ... OptM3 with GC (2021)
Angular Grid (max. ang.)         AngularGrid ... 2 (Lebedev-110)
Angular grid pruning method      GridPruning ... 4 (adaptive)
Weight generation scheme         WeightScheme... Becke
Basis function cutoff            BFCut       ... 1.0000e-11
Integration weight cutoff        WCut        ... 1.0000e-14
Angular grids for H and He will be reduced by one unit
Partially contracted basis set               ... on
Rotationally invariant grid construction     ... off

Total number of grid points                  ...    22359
Total number of batches                      ...      358
Average number of points per batch           ...       62
Average number of grid points per atom       ...     1118
UseSFitting                                  ... on

GRIDX 3
-------
General Integration Accuracy     IntAcc      ... 4.338
Radial Grid Type                 RadialGrid  ... OptM3 with GC (2021)
Angular Grid (max. ang.)         AngularGrid ... 3 (Lebedev-194)
Angular grid pruning method      GridPruning ... 4 (adaptive)
Weight generation scheme         WeightScheme... Becke
Basis function cutoff            BFCut       ... 1.0000e-11
Integration weight cutoff        WCut        ... 1.0000e-14
Angular grids for H and He will be reduced by one unit
Partially contracted basis set               ... on
Rotationally invariant grid construction     ... off

Total number of grid points                  ...    48762
Total number of batches                      ...      774
Average number of points per batch           ...       63
Average number of grid points per atom       ...     2438
UseSFitting                                  ... on

Time for X-Grid setup             =    1.231 sec

--------------
SCF ITERATIONS
--------------
ITER       Energy         Delta-E        Max-DP      RMS-DP      [F,P]     Damp
               ***  Starting incremental Fock matrix formation  ***
  0   -307.2259606189   0.000000000000 0.02364952  0.00063947  0.1060171 0.8500
  1   -307.2468869150  -0.020926296138 0.02152391  0.00059255  0.0859042 0.8500
                               ***Turning on DIIS***
  2   -307.2627660424  -0.015879127433 0.01701571  0.00047893  0.0665081 0.8500
  3   -307.2746112846  -0.011845242175 0.01102215  0.00033851  0.0509498 0.8500
  4   -307.2837949371  -0.009183652515 0.00759185  0.00025988  0.0408668 0.8500
  5   -307.2910530721  -0.007258135027 0.00586058  0.00021451  0.0339823 0.8500
  6   -307.2969724618  -0.005919389659 0.03212830  0.00121110  0.0287071 0.0000
                      *** Initiating the SOSCF procedure ***
                           *** Shutting down DIIS ***
                      *** Re-Reading the Fockian *** 
                      *** Removing any level shift *** 
ITER      Energy       Delta-E        Grad      Rot      Max-DP    RMS-DP
  7   -307.32818208  -0.0312096159  0.000626  0.000626  0.001633  0.000045
               *** Restarting incremental Fock matrix formation ***
  8   -307.32820163  -0.0000195534  0.000548  0.001040  0.001158  0.000028
  9   -307.32820407  -0.0000024393  0.000277  0.000306  0.000493  0.000013
 10   -307.32820502  -0.0000009493  0.000030  0.000029  0.000054  0.000002
 11   -307.32820503  -0.0000000128  0.000011  0.000018  0.000021  0.000001
                 **** Energy Check signals convergence ****
              ***Rediagonalizing the Fockian in SOSCF/NRSCF***

               *****************************************************
               *                     SUCCESS                       *
               *           SCF CONVERGED AFTER  12 CYCLES          *
               *****************************************************

Old exchange energy                            =    -14.225878072 Eh
New exchange energy                            =    -14.225899641 Eh
Exchange energy change after final integration =     -0.000021569 Eh
Total energy after final integration           =   -307.328226611 Eh
Final COS-X integration done in                =    24.712 sec

----------------
TOTAL SCF ENERGY
----------------

Total Energy       :         -307.32822661 Eh           -8362.82620 eV

Components:
Nuclear Repulsion  :          332.98250463 Eh            9060.91460 eV
Electronic Energy  :         -640.31073124 Eh          -17423.74080 eV
One Electron Energy:        -1062.03677524 Eh          -28899.48988 eV
Two Electron Energy:          421.72604400 Eh           11475.74907 eV
Max COSX asymmetry :            0.00000242 Eh               0.00007 eV

Virial components:
Potential Energy   :         -610.90827564 Eh          -16623.65931 eV
Kinetic Energy     :          303.58004902 Eh            8260.83311 eV
Virial Ratio       :            2.01234659


DFT components:
N(Alpha)           :       27.999960093755 electrons
N(Beta)            :       27.999960093755 electrons
N(Total)           :       55.999920187511 electrons
E(XC)              :      -31.193423720895 Eh       
DFET-embed. en.    :        0.000000000000 Eh       

---------------
SCF CONVERGENCE
---------------

  Last Energy change         ...   -9.3603e-09  Tolerance :   1.0000e-08
  Last MAX-Density change    ...    3.1086e-15  Tolerance :   1.0000e-07
  Last RMS-Density change    ...    3.9894e-17  Tolerance :   5.0000e-09
  Last Orbital Gradient      ...    1.5757e-06  Tolerance :   1.0000e-05
  Last Orbital Rotation      ...    4.6900e-06  Tolerance :   1.0000e-05

             **** THE GBW FILE WAS UPDATED (11+.gbw) ****
             **** DENSITY 11+.scfp WAS UPDATED ****
             **** ENERGY FILE WAS UPDATED (11+.en.tmp) ****
             **** THE GBW FILE WAS UPDATED (11+.gbw) ****
             **** DENSITY 11+.scfp WAS UPDATED ****
----------------
ORBITAL ENERGIES
----------------

  NO   OCC          E(Eh)            E(eV) 
   0   2.0000     -14.644209      -398.4892 
   1   2.0000     -14.644208      -398.4892 
   2   2.0000     -10.560833      -287.3749 
   3   2.0000     -10.475367      -285.0492 
   4   2.0000     -10.475353      -285.0489 
   5   2.0000     -10.471477      -284.9434 
   6   2.0000     -10.471462      -284.9430 
   7   2.0000      -1.313116       -35.7317 
   8   2.0000      -1.248179       -33.9647 
   9   2.0000      -1.056156       -28.7395 
  10   2.0000      -1.030159       -28.0320 
  11   2.0000      -1.013589       -27.5812 
  12   2.0000      -0.963851       -26.2277 
  13   2.0000      -0.868703       -23.6386 
  14   2.0000      -0.812985       -22.1225 
  15   2.0000      -0.808789       -22.0083 
  16   2.0000      -0.785486       -21.3742 
  17   2.0000      -0.746126       -20.3031 
  18   2.0000      -0.735046       -20.0016 
  19   2.0000      -0.706741       -19.2314 
  20   2.0000      -0.692648       -18.8479 
  21   2.0000      -0.684061       -18.6142 
  22   2.0000      -0.674004       -18.3406 
  23   2.0000      -0.672424       -18.2976 
  24   2.0000      -0.664530       -18.0828 
  25   2.0000      -0.642583       -17.4856 
  26   2.0000      -0.627635       -17.0788 
  27   2.0000      -0.514761       -14.0074 
  28   0.0000      -0.100542        -2.7359 
  29   0.0000      -0.022744        -0.6189 
  30   0.0000       0.006326         0.1722 
  31   0.0000       0.016124         0.4388 
  32   0.0000       0.033138         0.9017 
  33   0.0000       0.036985         1.0064 
  34   0.0000       0.049954         1.3593 
  35   0.0000       0.073058         1.9880 
  36   0.0000       0.075009         2.0411 
  37   0.0000       0.076368         2.0781 
  38   0.0000       0.080668         2.1951 
  39   0.0000       0.098159         2.6710 
  40   0.0000       0.100868         2.7448 
  41   0.0000       0.107247         2.9183 
  42   0.0000       0.110077         2.9953 
  43   0.0000       0.150786         4.1031 
  44   0.0000       0.159713         4.3460 
  45   0.0000       0.165096         4.4925 
  46   0.0000       0.217012         5.9052 
  47   0.0000       0.259127         7.0512 
  48   0.0000       0.304297         8.2803 
  49   0.0000       0.332786         9.0556 
  50   0.0000       0.342956         9.3323 
  51   0.0000       0.364018         9.9054 
  52   0.0000       0.373042        10.1510 
  53   0.0000       0.397514        10.8169 
  54   0.0000       0.406635        11.0651 
  55   0.0000       0.414564        11.2809 
  56   0.0000       0.468755        12.7555 
  57   0.0000       0.512024        13.9329 
  58   0.0000       0.513449        13.9716 
  59   0.0000       0.525870        14.3096 
  60   0.0000       0.531953        14.4752 
  61   0.0000       0.554489        15.0884 
  62   0.0000       0.559780        15.2324 
  63   0.0000       0.572587        15.5809 
  64   0.0000       0.591850        16.1051 
  65   0.0000       0.598198        16.2778 
  66   0.0000       0.605302        16.4711 
  67   0.0000       0.610127        16.6024 
  68   0.0000       0.610385        16.6094 
  69   0.0000       0.628674        17.1071 
  70   0.0000       0.630253        17.1500 
  71   0.0000       0.636952        17.3323 
  72   0.0000       0.641270        17.4498 
  73   0.0000       0.649882        17.6842 
  74   0.0000       0.657681        17.8964 
  75   0.0000       0.672900        18.3105 
  76   0.0000       0.680302        18.5120 
  77   0.0000       0.722939        19.6722 
  78   0.0000       0.725596        19.7445 
  79   0.0000       0.795115        21.6362 
  80   0.0000       0.795169        21.6377 
  81   0.0000       0.844272        22.9738 
  82   0.0000       0.904849        24.6222 
  83   0.0000       0.937804        25.5189 
  84   0.0000       1.016021        27.6473 
  85   0.0000       1.033601        28.1257 
  86   0.0000       1.057194        28.7677 
  87   0.0000       1.114713        30.3329 
  88   0.0000       1.132124        30.8067 
  89   0.0000       1.149907        31.2906 
  90   0.0000       1.194096        32.4930 
  91   0.0000       1.198276        32.6067 
  92   0.0000       1.311472        35.6870 
  93   0.0000       1.346446        36.6387 
  94   0.0000       1.356644        36.9162 
  95   0.0000       1.423522        38.7360 
  96   0.0000       1.457222        39.6530 
  97   0.0000       1.471185        40.0330 
  98   0.0000       1.472182        40.0601 
  99   0.0000       1.477862        40.2147 
 100   0.0000       1.492179        40.6043 
 101   0.0000       1.497918        40.7604 
 102   0.0000       1.502782        40.8928 
 103   0.0000       1.598112        43.4868 
 104   0.0000       1.607942        43.7543 
 105   0.0000       1.686522        45.8926 
 106   0.0000       1.688603        45.9492 
 107   0.0000       1.701990        46.3135 
 108   0.0000       1.712669        46.6041 
 109   0.0000       1.716643        46.7122 
 110   0.0000       1.727056        46.9956 
 111   0.0000       1.746787        47.5325 
 112   0.0000       1.751451        47.6594 
 113   0.0000       1.757132        47.8140 
 114   0.0000       1.780624        48.4533 
 115   0.0000       1.783627        48.5350 
 116   0.0000       1.816565        49.4312 
 117   0.0000       1.832494        49.8647 
 118   0.0000       1.838715        50.0340 
 119   0.0000       1.845404        50.2160 
 120   0.0000       1.925610        52.3985 
 121   0.0000       1.939038        52.7639 
 122   0.0000       1.940296        52.7981 
 123   0.0000       1.975259        53.7495 
 124   0.0000       1.976564        53.7850 
 125   0.0000       1.994797        54.2812 
 126   0.0000       2.010165        54.6994 
 127   0.0000       2.038525        55.4711 
 128   0.0000       2.108828        57.3841 
 129   0.0000       2.110922        57.4411 
 130   0.0000       2.180548        59.3357 
 131   0.0000       2.180557        59.3360 
 132   0.0000       2.217547        60.3425 
 133   0.0000       2.232898        60.7602 
 134   0.0000       2.307873        62.8004 
 135   0.0000       2.338671        63.6385 
 136   0.0000       2.339710        63.6667 
 137   0.0000       2.365573        64.3705 
 138   0.0000       2.379806        64.7578 
 139   0.0000       2.406277        65.4781 
 140   0.0000       2.535458        68.9933 
 141   0.0000       2.545487        69.2662 
 142   0.0000       2.551640        69.4336 
 143   0.0000       2.574268        70.0494 
 144   0.0000       2.598186        70.7002 
 145   0.0000       2.620604        71.3103 
 146   0.0000       2.649699        72.1020 
 147   0.0000       2.717138        73.9371 
 148   0.0000       2.720702        74.0341 
 149   0.0000       2.728799        74.2544 
 150   0.0000       2.814352        76.5824 
 151   0.0000       2.849388        77.5358 
 152   0.0000       2.853827        77.6566 
 153   0.0000       2.859099        77.8000 
 154   0.0000       2.884668        78.4958 
 155   0.0000       2.888983        78.6132 
 156   0.0000       2.902139        78.9712 
 157   0.0000       2.928820        79.6972 
 158   0.0000       2.949816        80.2686 
 159   0.0000       3.038198        82.6736 
 160   0.0000       3.047206        82.9187 
 161   0.0000       3.256330        88.6092 
 162   0.0000       3.416435        92.9659 

                    ********************************
                    * MULLIKEN POPULATION ANALYSIS *
                    ********************************

-----------------------
MULLIKEN ATOMIC CHARGES
-----------------------
   0 C :    0.219180
   1 N :   -0.302203
   2 N :   -0.302202
   3 C :    0.047038
   4 C :    0.047037
   5 H :    0.090260
   6 H :    0.090260
   7 H :    0.080458
   8 H :    0.080458
   9 H :    0.102351
  10 H :    0.102350
  11 C :    0.052811
  12 C :    0.052811
  13 H :    0.080716
  14 H :    0.080716
  15 H :    0.096470
  16 H :    0.096470
  17 H :    0.097074
  18 H :    0.097074
  19 H :    0.090874
Sum of atomic charges:    1.0000000

--------------------------------
MULLIKEN REDUCED ORBITAL CHARGES
--------------------------------
  0 C s       :     3.065403  s :     3.065403
      pz      :     0.969423  p :     2.638021
      px      :     0.814082
      py      :     0.854517
      dz2     :     0.013439  d :     0.077395
      dxz     :     0.003317
      dyz     :     0.018959
      dx2y2   :     0.013307
      dxy     :     0.028374
  1 N s       :     3.406125  s :     3.406125
      pz      :     1.203097  p :     3.866881
      px      :     1.547004
      py      :     1.116781
      dz2     :     0.006831  d :     0.029197
      dxz     :     0.003977
      dyz     :     0.008971
      dx2y2   :     0.003897
      dxy     :     0.005521
  2 N s       :     3.406124  s :     3.406124
      pz      :     1.203097  p :     3.866881
      px      :     1.547004
      py      :     1.116781
      dz2     :     0.006831  d :     0.029197
      dxz     :     0.003977
      dyz     :     0.008971
      dx2y2   :     0.003897
      dxy     :     0.005521
  3 C s       :     3.031292  s :     3.031292
      pz      :     0.754999  p :     2.884094
      px      :     1.058419
      py      :     1.070675
      dz2     :     0.013012  d :     0.037577
      dxz     :     0.010096
      dyz     :     0.005133
      dx2y2   :     0.003738
      dxy     :     0.005598
  4 C s       :     3.031292  s :     3.031292
      pz      :     0.754999  p :     2.884094
      px      :     1.058419
      py      :     1.070675
      dz2     :     0.013012  d :     0.037577
      dxz     :     0.010096
      dyz     :     0.005133
      dx2y2   :     0.003738
      dxy     :     0.005598
  5 H s       :     0.886285  s :     0.886285
      pz      :     0.002596  p :     0.023455
      px      :     0.007170
      py      :     0.013689
  6 H s       :     0.886284  s :     0.886284
      pz      :     0.002596  p :     0.023455
      px      :     0.007170
      py      :     0.013689
  7 H s       :     0.895803  s :     0.895803
      pz      :     0.005099  p :     0.023739
      px      :     0.009185
      py      :     0.009455
  8 H s       :     0.895803  s :     0.895803
      pz      :     0.005099  p :     0.023739
      px      :     0.009185
      py      :     0.009455
  9 H s       :     0.874533  s :     0.874533
      pz      :     0.005881  p :     0.023116
      px      :     0.012573
      py      :     0.004663
 10 H s       :     0.874533  s :     0.874533
      pz      :     0.005881  p :     0.023116
      px      :     0.012573
      py      :     0.004663
 11 C s       :     3.043205  s :     3.043205
      pz      :     0.948181  p :     2.866079
      px      :     1.070442
      py      :     0.847455
      dz2     :     0.006985  d :     0.037905
      dxz     :     0.003068
      dyz     :     0.010675
      dx2y2   :     0.006133
      dxy     :     0.011045
 12 C s       :     3.043205  s :     3.043205
      pz      :     0.948181  p :     2.866079
      px      :     1.070443
      py      :     0.847455
      dz2     :     0.006985  d :     0.037905
      dxz     :     0.003068
      dyz     :     0.010675
      dx2y2   :     0.006133
      dxy     :     0.011045
 13 H s       :     0.895782  s :     0.895782
      pz      :     0.014848  p :     0.023502
      px      :     0.004996
      py      :     0.003659
 14 H s       :     0.895782  s :     0.895782
      pz      :     0.014848  p :     0.023502
      px      :     0.004996
      py      :     0.003659
 15 H s       :     0.880474  s :     0.880474
      pz      :     0.003685  p :     0.023057
      px      :     0.011345
      py      :     0.008027
 16 H s       :     0.880474  s :     0.880474
      pz      :     0.003685  p :     0.023057
      px      :     0.011345
      py      :     0.008027
 17 H s       :     0.879844  s :     0.879844
      pz      :     0.004511  p :     0.023083
      px      :     0.012577
      py      :     0.005995
 18 H s       :     0.879844  s :     0.879844
      pz      :     0.004511  p :     0.023083
      px      :     0.012577
      py      :     0.005995
 19 H s       :     0.887172  s :     0.887172
      pz      :     0.017429  p :     0.021955
      px      :     0.002990
      py      :     0.001535


                     *******************************
                     * LOEWDIN POPULATION ANALYSIS *
                     *******************************

----------------------
LOEWDIN ATOMIC CHARGES
----------------------
   0 C :    0.160393
   1 N :    0.012364
   2 N :    0.012364
   3 C :    0.041820
   4 C :    0.041820
   5 H :    0.053161
   6 H :    0.053161
   7 H :    0.044192
   8 H :    0.044192
   9 H :    0.047100
  10 H :    0.047100
  11 C :    0.051453
  12 C :    0.051453
  13 H :    0.044782
  14 H :    0.044782
  15 H :    0.047782
  16 H :    0.047782
  17 H :    0.049865
  18 H :    0.049865
  19 H :    0.054568

-------------------------------
LOEWDIN REDUCED ORBITAL CHARGES
-------------------------------
  0 C s       :     2.830682  s :     2.830682
      pz      :     1.032831  p :     2.826611
      px      :     0.832838
      py      :     0.960943
      dz2     :     0.037112  d :     0.182313
      dxz     :     0.005628
      dyz     :     0.048073
      dx2y2   :     0.034268
      dxy     :     0.057231
  1 N s       :     3.055303  s :     3.055303
      pz      :     1.207975  p :     3.866860
      px      :     1.478503
      py      :     1.180382
      dz2     :     0.015967  d :     0.065473
      dxz     :     0.006860
      dyz     :     0.023649
      dx2y2   :     0.009534
      dxy     :     0.009463
  2 N s       :     3.055303  s :     3.055303
      pz      :     1.207975  p :     3.866860
      px      :     1.478503
      py      :     1.180382
      dz2     :     0.015967  d :     0.065473
      dxz     :     0.006860
      dyz     :     0.023649
      dx2y2   :     0.009534
      dxy     :     0.009463
  3 C s       :     2.833977  s :     2.833977
      pz      :     0.860049  p :     3.030784
      px      :     1.085804
      py      :     1.084931
      dz2     :     0.031920  d :     0.093419
      dxz     :     0.025641
      dyz     :     0.012035
      dx2y2   :     0.009315
      dxy     :     0.014507
  4 C s       :     2.833977  s :     2.833977
      pz      :     0.860049  p :     3.030784
      px      :     1.085804
      py      :     1.084931
      dz2     :     0.031920  d :     0.093419
      dxz     :     0.025641
      dyz     :     0.012035
      dx2y2   :     0.009315
      dxy     :     0.014507
  5 H s       :     0.880784  s :     0.880784
      pz      :     0.008148  p :     0.066055
      px      :     0.019664
      py      :     0.038244
  6 H s       :     0.880784  s :     0.880784
      pz      :     0.008148  p :     0.066055
      px      :     0.019664
      py      :     0.038244
  7 H s       :     0.888779  s :     0.888779
      pz      :     0.015225  p :     0.067028
      px      :     0.025407
      py      :     0.026396
  8 H s       :     0.888779  s :     0.888779
      pz      :     0.015225  p :     0.067028
      px      :     0.025407
      py      :     0.026396
  9 H s       :     0.886700  s :     0.886700
      pz      :     0.018347  p :     0.066200
      px      :     0.035081
      py      :     0.012772
 10 H s       :     0.886700  s :     0.886700
      pz      :     0.018347  p :     0.066200
      px      :     0.035081
      py      :     0.012772
 11 C s       :     2.836810  s :     2.836810
      pz      :     1.001130  p :     3.017667
      px      :     1.091929
      py      :     0.924608
      dz2     :     0.018721  d :     0.094070
      dxz     :     0.006436
      dyz     :     0.025958
      dx2y2   :     0.013592
      dxy     :     0.029363
 12 C s       :     2.836810  s :     2.836810
      pz      :     1.001130  p :     3.017667
      px      :     1.091929
      py      :     0.924608
      dz2     :     0.018721  d :     0.094070
      dxz     :     0.006436
      dyz     :     0.025958
      dx2y2   :     0.013592
      dxy     :     0.029363
 13 H s       :     0.889372  s :     0.889372
      pz      :     0.041609  p :     0.065846
      px      :     0.013496
      py      :     0.010741
 14 H s       :     0.889372  s :     0.889372
      pz      :     0.041609  p :     0.065846
      px      :     0.013496
      py      :     0.010741
 15 H s       :     0.886595  s :     0.886595
      pz      :     0.010559  p :     0.065623
      px      :     0.031482
      py      :     0.023582
 16 H s       :     0.886595  s :     0.886595
      pz      :     0.010559  p :     0.065623
      px      :     0.031482
      py      :     0.023582
 17 H s       :     0.884307  s :     0.884307
      pz      :     0.013033  p :     0.065828
      px      :     0.034961
      py      :     0.017835
 18 H s       :     0.884307  s :     0.884307
      pz      :     0.013033  p :     0.065828
      px      :     0.034961
      py      :     0.017835
 19 H s       :     0.878238  s :     0.878238
      pz      :     0.050370  p :     0.067194
      px      :     0.009740
      py      :     0.007084


                      *****************************
                      * MAYER POPULATION ANALYSIS *
                      *****************************

  NA   - Mulliken gross atomic population
  ZA   - Total nuclear charge
  QA   - Mulliken gross atomic charge
  VA   - Mayer's total valence
  BVA  - Mayer's bonded valence
  FA   - Mayer's free valence

  ATOM       NA         ZA         QA         VA         BVA        FA
  0 C      5.7808     6.0000     0.2192     4.0011     4.0011    -0.0000
  1 N      7.3022     7.0000    -0.3022     3.3840     3.3840     0.0000
  2 N      7.3022     7.0000    -0.3022     3.3840     3.3840    -0.0000
  3 C      5.9530     6.0000     0.0470     3.8825     3.8825     0.0000
  4 C      5.9530     6.0000     0.0470     3.8825     3.8825     0.0000
  5 H      0.9097     1.0000     0.0903     0.9982     0.9982    -0.0000
  6 H      0.9097     1.0000     0.0903     0.9982     0.9982    -0.0000
  7 H      0.9195     1.0000     0.0805     0.9989     0.9989     0.0000
  8 H      0.9195     1.0000     0.0805     0.9989     0.9989    -0.0000
  9 H      0.8976     1.0000     0.1024     0.9851     0.9851    -0.0000
 10 H      0.8976     1.0000     0.1024     0.9851     0.9851    -0.0000
 11 C      5.9472     6.0000     0.0528     3.8730     3.8730    -0.0000
 12 C      5.9472     6.0000     0.0528     3.8730     3.8730     0.0000
 13 H      0.9193     1.0000     0.0807     0.9971     0.9971    -0.0000
 14 H      0.9193     1.0000     0.0807     0.9971     0.9971     0.0000
 15 H      0.9035     1.0000     0.0965     0.9887     0.9887    -0.0000
 16 H      0.9035     1.0000     0.0965     0.9887     0.9887     0.0000
 17 H      0.9029     1.0000     0.0971     0.9869     0.9869    -0.0000
 18 H      0.9029     1.0000     0.0971     0.9869     0.9869    -0.0000
 19 H      0.9091     1.0000     0.0909     1.0092     1.0092    -0.0000

  Mayer bond orders larger than 0.100000
B(  0-C ,  1-N ) :   1.4465 B(  0-C ,  2-N ) :   1.4465 B(  0-C , 19-H ) :   0.9593 
B(  1-N ,  3-C ) :   0.9089 B(  1-N , 11-C ) :   0.9093 B(  2-N ,  4-C ) :   0.9089 
B(  2-N , 12-C ) :   0.9093 B(  3-C ,  5-H ) :   0.9657 B(  3-C ,  7-H ) :   0.9698 
B(  3-C ,  9-H ) :   0.9698 B(  4-C ,  6-H ) :   0.9657 B(  4-C ,  8-H ) :   0.9698 
B(  4-C , 10-H ) :   0.9698 B( 11-C , 13-H ) :   0.9696 B( 11-C , 15-H ) :   0.9718 
B( 11-C , 17-H ) :   0.9713 B( 12-C , 14-H ) :   0.9696 B( 12-C , 16-H ) :   0.9718 
B( 12-C , 18-H ) :   0.9713 

-------
TIMINGS
-------

Total SCF time: 0 days 0 hours 2 min 22 sec 

Total time                  ....     142.683 sec
Sum of individual times     ....     142.476 sec  ( 99.9%)

Fock matrix formation       ....     139.395 sec  ( 97.7%)
  Split-RI-J                ....       5.066 sec  (  3.6% of F)
  Chain of spheres X        ....     118.164 sec  ( 84.8% of F)
  XC integration            ....      16.048 sec  ( 11.5% of F)
    Basis function eval.    ....       5.768 sec  ( 35.9% of XC)
    Density eval.           ....       3.650 sec  ( 22.7% of XC)
    XC-Functional eval.     ....       2.673 sec  ( 16.7% of XC)
    XC-Potential eval.      ....       3.574 sec  ( 22.3% of XC)
Diagonalization             ....       0.042 sec  (  0.0%)
Density matrix formation    ....       0.006 sec  (  0.0%)
Population analysis         ....       0.007 sec  (  0.0%)
Initial guess               ....       0.492 sec  (  0.3%)
Orbital Transformation      ....       0.000 sec  (  0.0%)
Orbital Orthonormalization  ....       0.000 sec  (  0.0%)
DIIS solution               ....       0.012 sec  (  0.0%)
SOSCF solution              ....       0.018 sec  (  0.0%)
Grid generation             ....       2.505 sec  (  1.8%)

Maximum memory used throughout the entire SCF-calculation: 68.8 MB


-------------------------------------------------------------------------------
                          DFT DISPERSION CORRECTION                            
                                                                               
                                 DFTD4 V2.5                                    
-------------------------------------------------------------------------------
The WB97X functional is recognized
Active option DFTDOPT                   ...         5   

Starting D4
-------------------------   ----------------
Dispersion correction           -0.002068105
-------------------------   ----------------


-------------------------   --------------------
FINAL SINGLE POINT ENERGY      -307.330294716370
-------------------------   --------------------


                            ***************************************
                            *     ORCA property calculations      *
                            ***************************************

                                    ---------------------
                                    Active property flags
                                    ---------------------
   (+) Dipole Moment


------------------------------------------------------------------------------
                       ORCA ELECTRIC PROPERTIES CALCULATION
------------------------------------------------------------------------------

Dipole Moment Calculation                       ... on
Quadrupole Moment Calculation                   ... off
Polarizability Calculation                      ... off
GBWName                                         ... 11+.gbw
Electron density                                ... 11+.scfp
The origin for moment calculation is the CENTER OF MASS  = (-0.000000, -0.000000  0.023785)

-------------
DIPOLE MOMENT
-------------
                                X             Y             Z
Electronic contribution:     -0.00000       0.00000       1.41395
Nuclear contribution   :     -0.00000       0.00000      -1.29131
                        -----------------------------------------
Total Dipole Moment    :     -0.00000       0.00000       0.12263
                        -----------------------------------------
Magnitude (a.u.)       :      0.12263
Magnitude (Debye)      :      0.31171



--------------------
Rotational spectrum 
--------------------
 
Rotational constants in cm-1:     0.155292     0.056269     0.043388 
Rotational constants in MHz :  4655.547857  1686.894460  1300.725736 

 Dipole components along the rotational axes: 
x,y,z [a.u.] :     0.000000     0.122634     0.000000 
x,y,z [Debye]:     0.000001     0.311712     0.000000 

 

-------------------------------------------------------------------------------
                               ORCA SCF HESSIAN
-------------------------------------------------------------------------------

                   --------- SHARK INITIALIZATION DONE ---------

Hessian of the Kohn-Sham DFT energy:
Kohn-Sham wavefunction type                      ... RKS
Hartree-Fock exchange scaling                    ...    0.158
Number of operators                              ...    1
Number of atoms                                  ...   20
Basis set dimensions                             ...  163
Integral neglect threshold                       ... 2.5e-11
Integral primitive cutoff                        ... 2.5e-12

Setting up DFT Hessian calculations              ... 

HESS GRID
---------

General Integration Accuracy     IntAcc      ... 4.629
Radial Grid Type                 RadialGrid  ... OptM3 with GC (2021)
Angular Grid (max. ang.)         AngularGrid ... 5 (Lebedev-434)
Angular grid pruning method      GridPruning ... 4 (adaptive)
Weight generation scheme         WeightScheme... Becke
Basis function cutoff            BFCut       ... 1.0000e-11
Integration weight cutoff        WCut        ... 1.0000e-14
Angular grids for H and He will be reduced by one unit
Partially contracted basis set               ... off
Rotationally invariant grid construction     ... off

Total number of grid points                  ...   129655
Total number of batches                      ...     2035
Average number of points per batch           ...       63
Average number of grid points per atom       ...     6483

Building densities                               ... done   (      0.0 sec)
Calculating rho(r) on the grid                   ... done   (      1.1 sec)
Building xc-kernel on the grid                   ... done   (      1.2 sec)
                                                     done   (      4.2 sec)

Nuclear repulsion Hessian  (SHARK)               ... done   (      0.0 sec)

----------------------------------------------
Forming right-hand sides of CP-SCF equations     ...
----------------------------------------------
One electron integral derivatives  (SHARK)       ... done   (      0.3 sec)
Transforming the overlap derivative matrices     ... done   (      0.0 sec)
Making the Q(x) pseudodensities                  ... done   (      0.0 sec)
Adding the E*S(x)*S(y) terms to the Hessian      ... done   (      0.0 sec)
Calculating energy weighted overlap derivatives  ... done   (      0.0 sec)
Two electron integral derivatives (SHARK-RI)     ... done   (     28.4 sec)
Exchange-correlation integral derivatives        ... done   (    107.4 sec)
tr(F(y)Q(x)) contribution to the Hessian         ... done   (      0.0 sec)
Response fock operator R(S(x)) (SHARK-RIJCOSX)   ... done   (     29.3 sec)
XC Response fock operator R(S(x))                ... done   (     42.4 sec)
tr(F(y)S(x)) contribution to the Hessian         ... done   (      0.0 sec)
Transforming and finalizing RHSs                 ... done   (      0.1 sec)

----------------------------------------------
Solving the CP-SCF equations (RIJCOSX)           ...
----------------------------------------------
     CP-SCF ITERATION   0:   1.6607e-01 (  15.3 sec   0/ 60 done)
     CP-SCF ITERATION   1:   1.1601e-01 (  15.5 sec   0/ 60 done)
     CP-SCF ITERATION   2:   2.1625e-02 (  15.4 sec   0/ 60 done)
     CP-SCF ITERATION   3:   9.8902e-03 (  15.4 sec   0/ 60 done)
     CP-SCF ITERATION   4:   4.2608e-03 (  15.4 sec   0/ 60 done)
     CP-SCF ITERATION   5:   1.3033e-03 (  15.5 sec   5/ 60 done)
     CP-SCF ITERATION   6:   4.5686e-04 (  14.8 sec  40/ 60 done)
     CP-SCF ITERATION   7:   1.7647e-04 (   8.8 sec  56/ 60 done)
     CP-SCF ITERATION   8:   4.7170e-05 (   4.5 sec  60/ 60 done)
                    *** THE CP-SCF HAS CONVERGED ***

                                                 ... done   (    121.0 sec)
Forming perturbed density Hessian contributions  ... done   (      0.0 sec)
2nd integral derivative contribs (SHARK-RI)      ... done   (    122.6 sec)
Exchange-correlation Hessian                     ... done   (     91.1 sec)
Dispersion correction in the Hessian             ... Starting D4


------------------- 
Dispersion Gradient 
------------------- 
   1  :    0.000000028   -0.000000003    0.000008884
   2  :   -0.000000271    0.000017914    0.000000569
   3  :    0.000000244   -0.000017914    0.000000569
   4  :    0.000003100    0.000021662   -0.000024023
   5  :   -0.000003099   -0.000021665   -0.000024027
   6  :    0.000000596    0.000006677   -0.000002237
   7  :   -0.000000598   -0.000006677   -0.000002238
   8  :    0.000001056    0.000006154   -0.000002413
   9  :   -0.000001056   -0.000006155   -0.000002415
  10  :    0.000000385    0.000007149   -0.000002815
  11  :   -0.000000387   -0.000007149   -0.000002813
  12  :   -0.000003506    0.000036691    0.000015541
  13  :    0.000003508   -0.000036686    0.000015540
  14  :   -0.000001072    0.000010497    0.000003679
  15  :    0.000001072   -0.000010496    0.000003680
  16  :   -0.000001134    0.000006940    0.000002922
  17  :    0.000001131   -0.000006943    0.000002922
  18  :   -0.000000049    0.000007440    0.000003156
  19  :    0.000000049   -0.000007438    0.000003155
  20  :    0.000000003    0.000000000    0.000002364

  |G| =    0.000070848

Starting D4


------------------- 
Dispersion Gradient 
------------------- 
   1  :   -0.000000028    0.000000003    0.000008884
   2  :   -0.000000244    0.000017914    0.000000569
   3  :    0.000000271   -0.000017914    0.000000569
   4  :    0.000003099    0.000021665   -0.000024027
   5  :   -0.000003100   -0.000021662   -0.000024023
   6  :    0.000000598    0.000006677   -0.000002238
   7  :   -0.000000596   -0.000006677   -0.000002237
   8  :    0.000001056    0.000006155   -0.000002415
   9  :   -0.000001056   -0.000006154   -0.000002413
  10  :    0.000000387    0.000007149   -0.000002813
  11  :   -0.000000385   -0.000007149   -0.000002815
  12  :   -0.000003508    0.000036686    0.000015540
  13  :    0.000003506   -0.000036691    0.000015541
  14  :   -0.000001072    0.000010496    0.000003680
  15  :    0.000001072   -0.000010497    0.000003679
  16  :   -0.000001131    0.000006943    0.000002922
  17  :    0.000001134   -0.000006940    0.000002922
  18  :   -0.000000049    0.000007438    0.000003155
  19  :    0.000000049   -0.000007440    0.000003156
  20  :   -0.000000003   -0.000000000    0.000002364

  |G| =    0.000070844

Starting D4


------------------- 
Dispersion Gradient 
------------------- 
   1  :   -0.000000003    0.000000081    0.000008884
   2  :   -0.000000257    0.000017915    0.000000561
   3  :    0.000000258   -0.000017914    0.000000576
   4  :    0.000003100    0.000021653   -0.000024021
   5  :   -0.000003099   -0.000021674   -0.000024029
   6  :    0.000000597    0.000006676   -0.000002236
   7  :   -0.000000596   -0.000006678   -0.000002238
   8  :    0.000001057    0.000006152   -0.000002414
   9  :   -0.000001055   -0.000006157   -0.000002414
  10  :    0.000000384    0.000007147   -0.000002814
  11  :   -0.000000387   -0.000007151   -0.000002814
  12  :   -0.000003505    0.000036665    0.000015542
  13  :    0.000003509   -0.000036712    0.000015539
  14  :   -0.000001073    0.000010492    0.000003686
  15  :    0.000001072   -0.000010501    0.000003673
  16  :   -0.000001127    0.000006942    0.000002922
  17  :    0.000001138   -0.000006940    0.000002923
  18  :   -0.000000055    0.000007439    0.000003153
  19  :    0.000000044   -0.000007439    0.000003157
  20  :    0.000000000    0.000000002    0.000002364

  |G| =    0.000070846

Starting D4


------------------- 
Dispersion Gradient 
------------------- 
   1  :    0.000000003   -0.000000081    0.000008884
   2  :   -0.000000258    0.000017914    0.000000576
   3  :    0.000000257   -0.000017915    0.000000561
   4  :    0.000003099    0.000021674   -0.000024029
   5  :   -0.000003100   -0.000021653   -0.000024021
   6  :    0.000000596    0.000006678   -0.000002238
   7  :   -0.000000597   -0.000006676   -0.000002236
   8  :    0.000001055    0.000006157   -0.000002414
   9  :   -0.000001057   -0.000006152   -0.000002414
  10  :    0.000000387    0.000007151   -0.000002814
  11  :   -0.000000384   -0.000007147   -0.000002814
  12  :   -0.000003509    0.000036712    0.000015539
  13  :    0.000003505   -0.000036665    0.000015542
  14  :   -0.000001072    0.000010501    0.000003673
  15  :    0.000001073   -0.000010492    0.000003686
  16  :   -0.000001138    0.000006940    0.000002923
  17  :    0.000001127   -0.000006942    0.000002922
  18  :   -0.000000044    0.000007439    0.000003157
  19  :    0.000000055   -0.000007439    0.000003153
  20  :   -0.000000000   -0.000000002    0.000002364

  |G| =    0.000070846

Starting D4


------------------- 
Dispersion Gradient 
------------------- 
   1  :   -0.000000000   -0.000000000    0.000008934
   2  :   -0.000000258    0.000017908    0.000000562
   3  :    0.000000258   -0.000017908    0.000000562
   4  :    0.000003101    0.000021677   -0.000024038
   5  :   -0.000003101   -0.000021677   -0.000024038
   6  :    0.000000596    0.000006676   -0.000002240
   7  :   -0.000000596   -0.000006676   -0.000002240
   8  :    0.000001055    0.000006156   -0.000002415
   9  :   -0.000001055   -0.000006156   -0.000002415
  10  :    0.000000387    0.000007150   -0.000002816
  11  :   -0.000000387   -0.000007150   -0.000002816
  12  :   -0.000003506    0.000036684    0.000015538
  13  :    0.000003506   -0.000036684    0.000015538
  14  :   -0.000001072    0.000010494    0.000003679
  15  :    0.000001072   -0.000010494    0.000003679
  16  :   -0.000001131    0.000006942    0.000002921
  17  :    0.000001131   -0.000006942    0.000002921
  18  :   -0.000000050    0.000007439    0.000003154
  19  :    0.000000050   -0.000007439    0.000003154
  20  :    0.000000000    0.000000000    0.000002376

  |G| =    0.000070846

Starting D4


------------------- 
Dispersion Gradient 
------------------- 
   1  :   -0.000000000   -0.000000000    0.000008836
   2  :   -0.000000257    0.000017921    0.000000576
   3  :    0.000000257   -0.000017921    0.000000576
   4  :    0.000003098    0.000021650   -0.000024012
   5  :   -0.000003098   -0.000021650   -0.000024012
   6  :    0.000000597    0.000006678   -0.000002235
   7  :   -0.000000597   -0.000006677   -0.000002235
   8  :    0.000001057    0.000006153   -0.000002413
   9  :   -0.000001057   -0.000006153   -0.000002413
  10  :    0.000000384    0.000007149   -0.000002812
  11  :   -0.000000384   -0.000007149   -0.000002812
  12  :   -0.000003508    0.000036693    0.000015544
  13  :    0.000003508   -0.000036693    0.000015544
  14  :   -0.000001072    0.000010499    0.000003679
  15  :    0.000001072   -0.000010499    0.000003679
  16  :   -0.000001134    0.000006941    0.000002923
  17  :    0.000001134   -0.000006941    0.000002923
  18  :   -0.000000048    0.000007439    0.000003157
  19  :    0.000000048   -0.000007439    0.000003157
  20  :    0.000000000    0.000000000    0.000002351

  |G| =    0.000070846

Starting D4


------------------- 
Dispersion Gradient 
------------------- 
   1  :   -0.000000013    0.000000000    0.000008884
   2  :   -0.000000209    0.000017918    0.000000578
   3  :    0.000000260   -0.000017914    0.000000569
   4  :    0.000003088    0.000021665   -0.000024032
   5  :   -0.000003104   -0.000021664   -0.000024025
   6  :    0.000000597    0.000006675   -0.000002235
   7  :   -0.000000598   -0.000006677   -0.000002237
   8  :    0.000001057    0.000006155   -0.000002410
   9  :   -0.000001057   -0.000006156   -0.000002416
  10  :    0.000000385    0.000007150   -0.000002818
  11  :   -0.000000387   -0.000007148   -0.000002813
  12  :   -0.000003518    0.000036683    0.000015537
  13  :    0.000003502   -0.000036688    0.000015541
  14  :   -0.000001071    0.000010497    0.000003680
  15  :    0.000001071   -0.000010496    0.000003679
  16  :   -0.000001133    0.000006939    0.000002922
  17  :    0.000001131   -0.000006941    0.000002922
  18  :   -0.000000051    0.000007442    0.000003156
  19  :    0.000000047   -0.000007439    0.000003155
  20  :    0.000000003    0.000000000    0.000002364

  |G| =    0.000070845

Starting D4


------------------- 
Dispersion Gradient 
------------------- 
   1  :    0.000000013   -0.000000000    0.000008884
   2  :   -0.000000306    0.000017911    0.000000559
   3  :    0.000000255   -0.000017914    0.000000569
   4  :    0.000003111    0.000021662   -0.000024018
   5  :   -0.000003095   -0.000021664   -0.000024025
   6  :    0.000000596    0.000006679   -0.000002239
   7  :   -0.000000595   -0.000006676   -0.000002237
   8  :    0.000001055    0.000006154   -0.000002418
   9  :   -0.000001055   -0.000006153   -0.000002412
  10  :    0.000000387    0.000007148   -0.000002810
  11  :   -0.000000384   -0.000007150   -0.000002815
  12  :   -0.000003496    0.000036694    0.000015544
  13  :    0.000003512   -0.000036689    0.000015541
  14  :   -0.000001074    0.000010496    0.000003678
  15  :    0.000001074   -0.000010497    0.000003679
  16  :   -0.000001131    0.000006944    0.000002923
  17  :    0.000001134   -0.000006941    0.000002922
  18  :   -0.000000048    0.000007436    0.000003155
  19  :    0.000000051   -0.000007439    0.000003155
  20  :   -0.000000003   -0.000000000    0.000002364

  |G| =    0.000070847

Starting D4


------------------- 
Dispersion Gradient 
------------------- 
   1  :   -0.000000000    0.000000001    0.000008878
   2  :   -0.000000254    0.000017956    0.000000567
   3  :    0.000000258   -0.000017932    0.000000571
   4  :    0.000003101    0.000021656   -0.000024036
   5  :   -0.000003100   -0.000021668   -0.000024027
   6  :    0.000000595    0.000006675   -0.000002234
   7  :   -0.000000597   -0.000006679   -0.000002237
   8  :    0.000001058    0.000006155   -0.000002416
   9  :   -0.000001057   -0.000006157   -0.000002416
  10  :    0.000000385    0.000007151   -0.000002813
  11  :   -0.000000385   -0.000007153   -0.000002816
  12  :   -0.000003512    0.000036706    0.000015559
  13  :    0.000003507   -0.000036698    0.000015542
  14  :   -0.000001072    0.000010496    0.000003680
  15  :    0.000001072   -0.000010500    0.000003680
  16  :   -0.000001132    0.000006939    0.000002920
  17  :    0.000001133   -0.000006942    0.000002922
  18  :   -0.000000049    0.000007437    0.000003153
  19  :    0.000000049   -0.000007440    0.000003155
  20  :    0.000000000   -0.000000002    0.000002367

  |G| =    0.000070874

Starting D4


------------------- 
Dispersion Gradient 
------------------- 
   1  :    0.000000000   -0.000000000    0.000008891
   2  :   -0.000000261    0.000017873    0.000000571
   3  :    0.000000257   -0.000017896    0.000000567
   4  :    0.000003098    0.000021672   -0.000024014
   5  :   -0.000003099   -0.000021659   -0.000024023
   6  :    0.000000598    0.000006678   -0.000002240
   7  :   -0.000000597   -0.000006675   -0.000002237
   8  :    0.000001054    0.000006154   -0.000002413
   9  :   -0.000001055   -0.000006151   -0.000002412
  10  :    0.000000387    0.000007148   -0.000002815
  11  :   -0.000000386   -0.000007145   -0.000002813
  12  :   -0.000003502    0.000036671    0.000015522
  13  :    0.000003507   -0.000036679    0.000015539
  14  :   -0.000001072    0.000010498    0.000003678
  15  :    0.000001072   -0.000010493    0.000003678
  16  :   -0.000001133    0.000006943    0.000002924
  17  :    0.000001132   -0.000006941    0.000002922
  18  :   -0.000000050    0.000007441    0.000003157
  19  :    0.000000049   -0.000007438    0.000003155
  20  :   -0.000000000    0.000000002    0.000002361

  |G| =    0.000070818

Starting D4


------------------- 
Dispersion Gradient 
------------------- 
   1  :   -0.000000000   -0.000000007    0.000008877
   2  :   -0.000000248    0.000017913    0.000000578
   3  :    0.000000258   -0.000017916    0.000000568
   4  :    0.000003092    0.000021656   -0.000023995
   5  :   -0.000003100   -0.000021665   -0.000024028
   6  :    0.000000597    0.000006676   -0.000002239
   7  :   -0.000000597   -0.000006677   -0.000002239
   8  :    0.000001057    0.000006156   -0.000002418
   9  :   -0.000001057   -0.000006157   -0.000002417
  10  :    0.000000387    0.000007150   -0.000002817
  11  :   -0.000000386   -0.000007151   -0.000002817
  12  :   -0.000003511    0.000036706    0.000015543
  13  :    0.000003507   -0.000036687    0.000015537
  14  :   -0.000001071    0.000010493    0.000003676
  15  :    0.000001072   -0.000010495    0.000003677
  16  :   -0.000001132    0.000006941    0.000002922
  17  :    0.000001132   -0.000006942    0.000002921
  18  :   -0.000000050    0.000007439    0.000003155
  19  :    0.000000049   -0.000007439    0.000003154
  20  :    0.000000000    0.000000005    0.000002360

  |G| =    0.000070854

Starting D4


------------------- 
Dispersion Gradient 
------------------- 
   1  :    0.000000000    0.000000007    0.000008891
   2  :   -0.000000267    0.000017916    0.000000559
   3  :    0.000000257   -0.000017913    0.000000569
   4  :    0.000003107    0.000021672   -0.000024054
   5  :   -0.000003099   -0.000021663   -0.000024022
   6  :    0.000000597    0.000006677   -0.000002236
   7  :   -0.000000597   -0.000006677   -0.000002235
   8  :    0.000001055    0.000006153   -0.000002410
   9  :   -0.000001055   -0.000006152   -0.000002411
  10  :    0.000000385    0.000007148   -0.000002811
  11  :   -0.000000386   -0.000007147   -0.000002812
  12  :   -0.000003503    0.000036670    0.000015538
  13  :    0.000003507   -0.000036690    0.000015544
  14  :   -0.000001073    0.000010500    0.000003682
  15  :    0.000001072   -0.000010498    0.000003681
  16  :   -0.000001133    0.000006942    0.000002922
  17  :    0.000001133   -0.000006941    0.000002924
  18  :   -0.000000048    0.000007439    0.000003155
  19  :    0.000000049   -0.000007439    0.000003157
  20  :   -0.000000000   -0.000000005    0.000002368

  |G| =    0.000070838

Starting D4


------------------- 
Dispersion Gradient 
------------------- 
   1  :   -0.000000013    0.000000000    0.000008884
   2  :   -0.000000255    0.000017914    0.000000569
   3  :    0.000000306   -0.000017911    0.000000559
   4  :    0.000003095    0.000021664   -0.000024025
   5  :   -0.000003111   -0.000021662   -0.000024018
   6  :    0.000000595    0.000006676   -0.000002237
   7  :   -0.000000596   -0.000006679   -0.000002239
   8  :    0.000001055    0.000006153   -0.000002412
   9  :   -0.000001055   -0.000006154   -0.000002418
  10  :    0.000000384    0.000007150   -0.000002815
  11  :   -0.000000387   -0.000007148   -0.000002810
  12  :   -0.000003512    0.000036689    0.000015541
  13  :    0.000003496   -0.000036694    0.000015544
  14  :   -0.000001074    0.000010497    0.000003679
  15  :    0.000001074   -0.000010496    0.000003678
  16  :   -0.000001134    0.000006941    0.000002922
  17  :    0.000001131   -0.000006944    0.000002923
  18  :   -0.000000051    0.000007439    0.000003155
  19  :    0.000000048   -0.000007436    0.000003155
  20  :    0.000000003    0.000000000    0.000002364

  |G| =    0.000070848

Starting D4


------------------- 
Dispersion Gradient 
------------------- 
   1  :    0.000000013   -0.000000000    0.000008884
   2  :   -0.000000260    0.000017914    0.000000569
   3  :    0.000000209   -0.000017918    0.000000578
   4  :    0.000003104    0.000021664   -0.000024025
   5  :   -0.000003088   -0.000021665   -0.000024032
   6  :    0.000000598    0.000006677   -0.000002237
   7  :   -0.000000597   -0.000006675   -0.000002235
   8  :    0.000001057    0.000006156   -0.000002416
   9  :   -0.000001057   -0.000006155   -0.000002410
  10  :    0.000000387    0.000007148   -0.000002813
  11  :   -0.000000385   -0.000007150   -0.000002818
[...]
     26       0.005486   0.124941  -0.118344  -0.009086  -0.003490  -0.051621
     27       0.025493  -0.441559  -0.444636   0.056120  -0.037489   0.383471
     28      -0.001062   0.021121   0.017525  -0.002896   0.001903  -0.021970
     29       0.013153  -0.257768  -0.259366   0.034161  -0.023164   0.224442
     30      -0.025349  -0.441664   0.444521  -0.056703  -0.036605  -0.383809
     31       0.001054   0.021125  -0.017519   0.002925   0.001857   0.021990
     32       0.013077   0.257829  -0.259299   0.034521   0.022627   0.224638
     33       0.005124   0.000704   0.000927  -0.064963   0.066461   0.010597
     34      -0.032374  -0.001871  -0.001865  -0.004161   0.004193   0.001965
     35      -0.012872  -0.000937  -0.001134  -0.012981   0.013166  -0.000270
     36      -0.005097   0.000705  -0.000927   0.065991   0.065440  -0.010603
     37       0.032190  -0.001871   0.001864   0.004225   0.004127  -0.001967
     38      -0.012799   0.000937  -0.001133  -0.013186  -0.012964  -0.000270
     39      -0.038320  -0.002001  -0.001987  -0.010461   0.010631  -0.000412
     40      -0.097544  -0.004629  -0.004863  -0.011092   0.011136  -0.004458
     41       0.319027   0.018097   0.019058   0.034991  -0.034680   0.016627
     42       0.038102  -0.002001   0.001986   0.010628   0.010470   0.000413
     43       0.096988  -0.004630   0.004862   0.011271   0.010969   0.004462
     44       0.317209  -0.018101   0.019052   0.035550   0.034152   0.016640
     45       0.345069   0.017110   0.016186   0.368549  -0.376394  -0.065281
     46       0.269634   0.014457   0.013957   0.295855  -0.301937  -0.050916
     47      -0.032671  -0.001207  -0.000758  -0.040285   0.041386   0.008030
     48      -0.343098   0.017112  -0.016180  -0.374373  -0.370602   0.065319
     49      -0.268095   0.014459  -0.013952  -0.300527  -0.297288   0.050945
     50      -0.032483   0.001207  -0.000757  -0.040926  -0.040753   0.008035
     51      -0.366415  -0.021338  -0.022789   0.411360  -0.421057  -0.058622
     52       0.203716   0.012362   0.013390  -0.236294   0.241820   0.033281
     53      -0.135653  -0.007080  -0.007124   0.156548  -0.160320  -0.023004
     54       0.364342  -0.021343   0.022783  -0.417872  -0.414590   0.058653
     55      -0.202566   0.012365  -0.013387   0.240034   0.238105  -0.033298
     56      -0.134884   0.007081  -0.007122   0.159027   0.157859  -0.023017
     57      -0.000003  -0.000270  -0.000000  -0.000001  -0.000179   0.000001
     58      -0.000004  -0.001098  -0.000000   0.000004   0.000554  -0.000000
     59      -0.020506   0.000002  -0.016825   0.007794  -0.000063  -0.034657
                 54         55         56         57         58         59    
      0       0.000323   0.000000   0.000133   0.000000  -0.000000  -0.000185
      1       0.000374   0.000000   0.000387   0.000000  -0.000000  -0.000068
      2      -0.000001  -0.041822   0.000003  -0.078408   0.004813  -0.000004
      3      -0.000447   0.000155  -0.000114   0.000030   0.000421  -0.000318
      4      -0.000281  -0.001653   0.000345  -0.001902   0.000191   0.000197
      5       0.000261   0.000373   0.000144   0.001435  -0.000648   0.000505
      6      -0.000446  -0.000155  -0.000114  -0.000030  -0.000422  -0.000317
      7      -0.000281   0.001653   0.000345   0.001902  -0.000190   0.000198
      8      -0.000261   0.000373  -0.000145   0.001435  -0.000649  -0.000504
      9       0.054086  -0.003540   0.002861  -0.002125  -0.032276   0.038407
     10       0.036559  -0.000495   0.000489   0.001220   0.056181  -0.053831
     11       0.013586   0.000181   0.000521   0.001481   0.014446  -0.012015
     12       0.054032   0.003540   0.002860   0.002126   0.032340   0.038355
     13       0.036533   0.000494   0.000489  -0.001220  -0.056268  -0.053738
     14      -0.013576   0.000181  -0.000521   0.001481   0.014466   0.011991
     15      -0.244412   0.009596  -0.008413  -0.000892  -0.129751   0.108295
     16      -0.496150   0.019225  -0.016308   0.000263  -0.245480   0.199316
     17       0.020856  -0.001802   0.001776   0.001053   0.008902  -0.008644
     18      -0.244206  -0.009595  -0.008410   0.000892   0.129920   0.108078
     19      -0.495726  -0.019224  -0.016303  -0.000264   0.245789   0.198905
     20      -0.020838  -0.001802  -0.001776   0.001053   0.008915   0.008629
     21      -0.027960   0.014514  -0.009312   0.017281   0.378303  -0.378480
     22       0.042451  -0.016445   0.010253  -0.021144  -0.434877   0.438251
     23       0.024661  -0.010136   0.006636  -0.011775  -0.251040   0.252851
     24      -0.027884  -0.014515  -0.009310  -0.017282  -0.378922  -0.377863
     25       0.042353   0.016446   0.010250   0.021145   0.435594   0.437542
     26      -0.024605  -0.010136  -0.006635  -0.011775  -0.251454  -0.252441
     27      -0.366316   0.017542  -0.018179   0.004106   0.124829  -0.183635
     28       0.021664  -0.000763   0.000946   0.000039  -0.000762  -0.001088
     29      -0.213256   0.009570  -0.010388   0.001733   0.075786  -0.107678
     30      -0.365972  -0.017542  -0.018175  -0.004107  -0.125136  -0.183436
     31       0.021645   0.000763   0.000946  -0.000039   0.000761  -0.001088
     32       0.213054   0.009571   0.010386   0.001734   0.075966   0.107557
     33      -0.007500  -0.007279   0.008882   0.005167  -0.000137  -0.000159
     34      -0.001932  -0.031895   0.035579   0.015677   0.000056  -0.000640
     35       0.001122   0.049936  -0.056559  -0.026427  -0.000269   0.001183
     36      -0.007491   0.007282   0.008883  -0.005167   0.000136  -0.000160
     37      -0.001930   0.031899   0.035575  -0.015676  -0.000057  -0.000639
     38      -0.001121   0.049943   0.056553  -0.026426  -0.000271  -0.001182
     39       0.001153   0.062735  -0.071283  -0.033662  -0.000437   0.001603
     40       0.005729   0.160321  -0.182192  -0.085751  -0.000980   0.004047
     41      -0.020753  -0.516853   0.589124   0.280824   0.000925  -0.011107
     42       0.001152  -0.062744  -0.071275   0.033661   0.000440   0.001603
     43       0.005723  -0.160345  -0.182173   0.085749   0.000987   0.004046
     44       0.020732  -0.516929  -0.589063   0.280816   0.000944   0.011106
     45       0.047963   0.182292  -0.205492  -0.093847  -0.001106   0.005041
     46       0.036870   0.140160  -0.157224  -0.070278  -0.001287   0.004073
     47      -0.006292  -0.013413   0.016183   0.009247  -0.000512   0.000078
     48       0.047908  -0.182327  -0.205478   0.093847   0.001115   0.005040
     49       0.036827  -0.140187  -0.157214   0.070278   0.001295   0.004071
     50       0.006285  -0.013416  -0.016182   0.009247  -0.000512  -0.000077
     51       0.037861  -0.160068   0.173802   0.069076   0.001518  -0.003299
     52      -0.021298   0.084536  -0.091283  -0.035471  -0.000690   0.001546
     53       0.014981  -0.053546   0.058244   0.023333  -0.000160  -0.000351
     54       0.037815   0.160077   0.173769  -0.069069  -0.001523  -0.003296
     55      -0.021272  -0.084540  -0.091265   0.035468   0.000692   0.001544
     56      -0.014963  -0.053548  -0.058232   0.023331  -0.000160   0.000351
     57       0.001781  -0.000000  -0.000516  -0.000000   0.000000   0.000509
     58      -0.000374  -0.000000  -0.002142  -0.000000   0.000001   0.001154
     59       0.000017   0.465994  -0.000036   0.880095  -0.044991   0.000036


-----------
IR SPECTRUM
-----------

 Mode   freq       eps      Int      T**2         TX        TY        TZ
       cm**-1   L/(mol*cm) km/mol    a.u.
----------------------------------------------------------------------------
  6:     48.78   0.000004    0.02  0.000028  ( 0.000000  0.000000 -0.005308)
  7:    127.91   0.000383    1.94  0.000935  (-0.027019 -0.014306 -0.000000)
  8:    147.82   0.000005    0.02  0.000010  ( 0.000003  0.000001 -0.003200)
  9:    187.79   0.000001    0.00  0.000002  (-0.000001 -0.000001 -0.001256)
 10:    195.63   0.000218    1.10  0.000348  ( 0.015676  0.010112  0.000000)
 11:    232.10   0.000265    1.34  0.000356  (-0.018875 -0.000459  0.000000)
 12:    277.78   0.000001    0.01  0.000001  (-0.000000  0.000000 -0.001139)
 13:    317.73   0.000134    0.68  0.000132  ( 0.000000 -0.000000  0.011480)
 14:    356.17   0.000956    4.83  0.000838  ( 0.027556 -0.008863 -0.000000)
 15:    412.25   0.000003    0.02  0.000003  (-0.000000 -0.000000 -0.001582)
 16:    449.51   0.003134   15.84  0.002176  (-0.041507  0.021287  0.000000)
 17:    501.06   0.001835    9.27  0.001143  (-0.032830  0.008071 -0.000000)
 18:    626.77   0.000183    0.93  0.000091  (-0.000000  0.000000 -0.009556)
 19:    895.71   0.000946    4.78  0.000330  (-0.000000 -0.000000  0.018156)
 20:    915.07   0.003166   16.00  0.001080  (-0.000849  0.032848  0.000000)
 21:   1008.30   0.001748    8.83  0.000541  ( 0.009134 -0.021389  0.000000)
 22:   1088.57   0.002953   14.92  0.000847  ( 0.000001 -0.000002 -0.029095)
 23:   1089.55   0.000855    4.32  0.000245  (-0.005652  0.014597 -0.000004)
 24:   1110.36   0.000824    4.16  0.000232  (-0.000000  0.000000  0.015215)
 25:   1123.98   0.001156    5.84  0.000321  ( 0.009641 -0.015097  0.000000)
 26:   1128.78   0.000019    0.10  0.000005  (-0.000000 -0.000000  0.002294)
 27:   1165.89   0.002209   11.16  0.000591  ( 0.006614  0.023400 -0.000000)
 28:   1167.50   0.000050    0.25  0.000013  (-0.000001 -0.000002 -0.003649)
 29:   1191.53   0.011970   60.49  0.003135  ( 0.003435 -0.055885  0.000000)
 30:   1245.84   0.000838    4.24  0.000210  ( 0.006068 -0.013158 -0.000000)
 31:   1345.84   0.006619   33.45  0.001535  (-0.000000  0.000000 -0.039177)
 32:   1436.23   0.001883    9.52  0.000409  (-0.003624  0.019902  0.000000)
 33:   1445.32   0.000365    1.84  0.000079  (-0.000001 -0.000001  0.008878)
 34:   1446.63   0.001440    7.28  0.000311  ( 0.010568  0.014103  0.000000)
 35:   1452.36   0.000348    1.76  0.000075  (-0.003723 -0.007810 -0.000000)
 36:   1456.00   0.000515    2.60  0.000110  (-0.000000 -0.000000  0.010504)
 37:   1462.41   0.011319   57.20  0.002415  ( 0.003532 -0.049019 -0.000000)
 38:   1466.66   0.009569   48.36  0.002036  (-0.044265 -0.008754 -0.000000)
 39:   1472.28   0.000009    0.05  0.000002  ( 0.000000 -0.000001 -0.001381)
 40:   1477.11   0.002191   11.07  0.000463  (-0.000000  0.000000 -0.021513)
 41:   1479.78   0.000529    2.68  0.000112  (-0.000000 -0.000000  0.010566)
 42:   1491.20   0.004891   24.72  0.001024  (-0.031715 -0.004208  0.000000)
 43:   1496.43   0.001084    5.48  0.000226  (-0.000000  0.000000 -0.015032)
 44:   1505.26   0.007139   36.08  0.001480  (-0.011575  0.036687  0.000000)
 45:   1577.03   0.006428   32.48  0.001272  (-0.000000 -0.000000  0.035665)
 46:   1817.37   0.145065  733.10  0.024909  ( 0.001839 -0.157817 -0.000000)
 47:   3082.48   0.002654   13.41  0.000269  ( 0.001452 -0.016326  0.000025)
 48:   3082.74   0.000735    3.71  0.000074  ( 0.000004 -0.000047 -0.008626)
 49:   3091.46   0.000513    2.59  0.000052  ( 0.000220 -0.007189 -0.000002)
 50:   3096.04   0.001523    7.69  0.000153  ( 0.000000 -0.000001  0.012388)
 51:   3187.61   0.000004    0.02  0.000000  ( 0.000046  0.000020 -0.000605)
 52:   3187.77   0.000422    2.13  0.000041  ( 0.005925  0.002492  0.000005)
 53:   3195.98   0.000003    0.01  0.000000  ( 0.000001  0.000000 -0.000524)
 54:   3198.50   0.000120    0.61  0.000012  ( 0.003327  0.000812  0.000000)
 55:   3218.26   0.000274    1.39  0.000027  ( 0.000000  0.000000  0.005156)
 56:   3220.48   0.000199    1.01  0.000019  ( 0.001121  0.004245 -0.000000)
 57:   3229.35   0.000003    0.01  0.000000  (-0.000000  0.000000  0.000506)
 58:   3238.57   0.000060    0.30  0.000006  ( 0.000004 -0.000001  0.002405)
 59:   3239.24   0.000197    1.00  0.000019  ( 0.004224 -0.001086 -0.000002)

* The epsilon (eps) is given for a Dirac delta lineshape.
** The dipole moment derivative (T) already includes vibrational overlap.

The first frequency considered to be a vibration is 6
The total number of vibrations considered is 54


--------------------------
THERMOCHEMISTRY AT 298.15K
--------------------------

Temperature         ... 298.15 K
Pressure            ... 1.00 atm
Total Mass          ... 101.17 AMU

Throughout the following assumptions are being made:
  (1) The electronic state is orbitally nondegenerate
  (2) There are no thermally accessible electronically excited states
  (3) Hindered rotations indicated by low frequency modes are not
      treated as such but are treated as vibrations and this may
      cause some error
  (4) All equations used are the standard statistical mechanics
      equations for an ideal gas
  (5) All vibrations are strictly harmonic

freq.      48.78  E(vib)   ...       0.53 
freq.     127.91  E(vib)   ...       0.43 
freq.     147.82  E(vib)   ...       0.41 
freq.     187.79  E(vib)   ...       0.36 
freq.     195.63  E(vib)   ...       0.36 
freq.     232.10  E(vib)   ...       0.32 
freq.     277.78  E(vib)   ...       0.28 
freq.     317.73  E(vib)   ...       0.25 
freq.     356.17  E(vib)   ...       0.22 
freq.     412.25  E(vib)   ...       0.19 
freq.     449.51  E(vib)   ...       0.17 
freq.     501.06  E(vib)   ...       0.14 
freq.     626.77  E(vib)   ...       0.09 
freq.     895.71  E(vib)   ...       0.03 
freq.     915.07  E(vib)   ...       0.03 
freq.    1008.30  E(vib)   ...       0.02 
freq.    1088.57  E(vib)   ...       0.02 
freq.    1089.55  E(vib)   ...       0.02 
freq.    1110.36  E(vib)   ...       0.02 
freq.    1123.98  E(vib)   ...       0.01 
freq.    1128.78  E(vib)   ...       0.01 
freq.    1165.89  E(vib)   ...       0.01 
freq.    1167.50  E(vib)   ...       0.01 
freq.    1191.53  E(vib)   ...       0.01 
freq.    1245.84  E(vib)   ...       0.01 
freq.    1345.84  E(vib)   ...       0.01 
freq.    1436.23  E(vib)   ...       0.00 
freq.    1445.32  E(vib)   ...       0.00 
freq.    1446.63  E(vib)   ...       0.00 
freq.    1452.36  E(vib)   ...       0.00 
freq.    1456.00  E(vib)   ...       0.00 
freq.    1462.41  E(vib)   ...       0.00 
freq.    1466.66  E(vib)   ...       0.00 
freq.    1472.28  E(vib)   ...       0.00 
freq.    1477.11  E(vib)   ...       0.00 
freq.    1479.78  E(vib)   ...       0.00 
freq.    1491.20  E(vib)   ...       0.00 
freq.    1496.43  E(vib)   ...       0.00 
freq.    1505.26  E(vib)   ...       0.00 
freq.    1577.03  E(vib)   ...       0.00 
freq.    1817.37  E(vib)   ...       0.00 
freq.    3082.48  E(vib)   ...       0.00 
freq.    3082.74  E(vib)   ...       0.00 
freq.    3091.46  E(vib)   ...       0.00 
freq.    3096.04  E(vib)   ...       0.00 
freq.    3187.61  E(vib)   ...       0.00 
freq.    3187.77  E(vib)   ...       0.00 
freq.    3195.98  E(vib)   ...       0.00 
freq.    3198.50  E(vib)   ...       0.00 
freq.    3218.26  E(vib)   ...       0.00 
freq.    3220.48  E(vib)   ...       0.00 
freq.    3229.35  E(vib)   ...       0.00 
freq.    3238.57  E(vib)   ...       0.00 
freq.    3239.24  E(vib)   ...       0.00 

------------
INNER ENERGY
------------

The inner energy is: U= E(el) + E(ZPE) + E(vib) + E(rot) + E(trans)
    E(el)   - is the total energy from the electronic structure calculation
              = E(kin-el) + E(nuc-el) + E(el-el) + E(nuc-nuc)
    E(ZPE)  - the the zero temperature vibrational energy from the frequency calculation
    E(vib)  - the the finite temperature correction to E(ZPE) due to population
              of excited vibrational states
    E(rot)  - is the rotational thermal energy
    E(trans)- is the translational thermal energy

Summary of contributions to the inner energy U:
Electronic energy                ...   -307.33029472 Eh
Zero point energy                ...      0.18705752 Eh     117.38 kcal/mol
Thermal vibrational correction   ...      0.00637929 Eh       4.00 kcal/mol
Thermal rotational correction    ...      0.00141627 Eh       0.89 kcal/mol
Thermal translational correction ...      0.00141627 Eh       0.89 kcal/mol
-----------------------------------------------------------------------
Total thermal energy                   -307.13402537 Eh


Summary of corrections to the electronic energy:
(perhaps to be used in another calculation)
Total thermal correction                  0.00921183 Eh       5.78 kcal/mol
Non-thermal (ZPE) correction              0.18705752 Eh     117.38 kcal/mol
-----------------------------------------------------------------------
Total correction                          0.19626935 Eh     123.16 kcal/mol


--------
ENTHALPY
--------

The enthalpy is H = U + kB*T
                kB is Boltzmann's constant
Total free energy                 ...   -307.13402537 Eh 
Thermal Enthalpy correction       ...      0.00094421 Eh       0.59 kcal/mol
-----------------------------------------------------------------------
Total Enthalpy                    ...   -307.13308116 Eh


Note: Rotational entropy computed according to Herzberg 
Infrared and Raman Spectra, Chapter V,1, Van Nostrand Reinhold, 1945 
Point Group:  C2, Symmetry Number:   2  
Rotational constants in cm-1:     0.155292     0.056269     0.043388 

Vibrational entropy computed according to the QRRHO of S. Grimme
Chem.Eur.J. 2012 18 9955


-------
ENTROPY
-------

The entropy contributions are T*S = T*(S(el)+S(vib)+S(rot)+S(trans))
     S(el)   - electronic entropy
     S(vib)  - vibrational entropy
     S(rot)  - rotational entropy
     S(trans)- translational entropy
The entropies will be listed as multiplied by the temperature to get
units of energy

Electronic entropy                ...      0.00000000 Eh      0.00 kcal/mol
Vibrational entropy               ...      0.01107805 Eh      6.95 kcal/mol
Rotational entropy                ...      0.01257531 Eh      7.89 kcal/mol
Translational entropy             ...      0.01888776 Eh     11.85 kcal/mol
-----------------------------------------------------------------------
Final entropy term                ...      0.04254113 Eh     26.69 kcal/mol

In case the symmetry of your molecule has not been determined correctly
or in case you have a reason to use a different symmetry number we print 
out the resulting rotational entropy values for sn=1,12 :
 --------------------------------------------------------
|  sn= 1 | S(rot)=       0.01322977 Eh      8.30 kcal/mol|
|  sn= 2 | S(rot)=       0.01257531 Eh      7.89 kcal/mol|
|  sn= 3 | S(rot)=       0.01219248 Eh      7.65 kcal/mol|
|  sn= 4 | S(rot)=       0.01192086 Eh      7.48 kcal/mol|
|  sn= 5 | S(rot)=       0.01171017 Eh      7.35 kcal/mol|
|  sn= 6 | S(rot)=       0.01153803 Eh      7.24 kcal/mol|
|  sn= 7 | S(rot)=       0.01139248 Eh      7.15 kcal/mol|
|  sn= 8 | S(rot)=       0.01126640 Eh      7.07 kcal/mol|
|  sn= 9 | S(rot)=       0.01115519 Eh      7.00 kcal/mol|
|  sn=10 | S(rot)=       0.01105571 Eh      6.94 kcal/mol|
|  sn=11 | S(rot)=       0.01096572 Eh      6.88 kcal/mol|
|  sn=12 | S(rot)=       0.01088357 Eh      6.83 kcal/mol|
 --------------------------------------------------------


-------------------
GIBBS FREE ENERGY
-------------------

The Gibbs free energy is G = H - T*S

Total enthalpy                    ...   -307.13308116 Eh 
Total entropy correction          ...     -0.04254113 Eh    -26.69 kcal/mol
-----------------------------------------------------------------------
Final Gibbs free energy         ...   -307.17562229 Eh

For completeness - the Gibbs free energy minus the electronic energy
G-E(el)                           ...      0.15467243 Eh     97.06 kcal/mol


Timings for individual modules:

Sum of individual times         ...      695.573 sec (=  11.593 min)
GTO integral calculation        ...        0.255 sec (=   0.004 min)   0.0 %
SCF iterations                  ...      142.714 sec (=   2.379 min)  20.5 %
Analytical frequency calculation...      552.604 sec (=   9.210 min)  79.4 %
                             ****ORCA TERMINATED NORMALLY****
TOTAL RUN TIME: 0 days 0 hours 11 minutes 35 seconds 857 msec
