
                                 *****************
                                 * O   R   C   A *
                                 *****************

                                            #,                                       
                                            ###                                      
                                            ####                                     
                                            #####                                    
                                            ######                                   
                                           ########,                                 
                                     ,,################,,,,,                         
                               ,,#################################,,                 
                          ,,##########################################,,             
                       ,#########################################, ''#####,          
                    ,#############################################,,   '####,        
                  ,##################################################,,,,####,       
                ,###########''''           ''''###############################       
              ,#####''   ,,,,##########,,,,          '''####'''          '####       
            ,##' ,,,,###########################,,,                        '##       
           ' ,,###''''                  '''############,,,                           
         ,,##''                                '''############,,,,        ,,,,,,###''
      ,#''                                            '''#######################'''  
     '                                                          ''''####''''         
             ,#######,   #######,   ,#######,      ##                                
            ,#'     '#,  ##    ##  ,#'     '#,    #''#        ######   ,####,        
            ##       ##  ##   ,#'  ##            #'  '#       #        #'  '#        
            ##       ##  #######   ##           ,######,      #####,   #    #        
            '#,     ,#'  ##    ##  '#,     ,#' ,#      #,         ##   #,  ,#        
             '#######'   ##     ##  '#######'  #'      '#     #####' # '####'        



                  #######################################################
                  #                        -***-                        #
                  #          Department of theory and spectroscopy      #
                  #    Directorship and core code : Frank Neese         #
                  #        Max Planck Institute fuer Kohlenforschung    #
                  #                Kaiser Wilhelm Platz 1               #
                  #                 D-45470 Muelheim/Ruhr               #
                  #                      Germany                        #
                  #                                                     #
                  #                  All rights reserved                #
                  #                        -***-                        #
                  #######################################################


                         Program Version 5.0.4 -  RELEASE  -


 With contributions from (in alphabetic order):
   Daniel Aravena         : Magnetic Suceptibility
   Michael Atanasov       : Ab Initio Ligand Field Theory (pilot matlab implementation)
   Alexander A. Auer      : GIAO ZORA, VPT2 properties, NMR spectrum
   Ute Becker             : Parallelization
   Giovanni Bistoni       : ED, misc. LED, open-shell LED, HFLD
   Martin Brehm           : Molecular dynamics
   Dmytro Bykov           : SCF Hessian
   Vijay G. Chilkuri      : MRCI spin determinant printing, contributions to CSF-ICE
   Dipayan Datta          : RHF DLPNO-CCSD density
   Achintya Kumar Dutta   : EOM-CC, STEOM-CC
   Dmitry Ganyushin       : Spin-Orbit,Spin-Spin,Magnetic field MRCI
   Miquel Garcia          : C-PCM and meta-GGA Hessian, CC/C-PCM, Gaussian charge scheme
   Yang Guo               : DLPNO-NEVPT2, F12-NEVPT2, CIM, IAO-localization
   Andreas Hansen         : Spin unrestricted coupled pair/coupled cluster methods
   Benjamin Helmich-Paris : MC-RPA, TRAH-SCF, COSX integrals
   Lee Huntington         : MR-EOM, pCC
   Robert Izsak           : Overlap fitted RIJCOSX, COSX-SCS-MP3, EOM
   Marcus Kettner         : VPT2
   Christian Kollmar      : KDIIS, OOCD, Brueckner-CCSD(T), CCSD density, CASPT2, CASPT2-K
   Simone Kossmann        : Meta GGA functionals, TD-DFT gradient, OOMP2, MP2 Hessian
   Martin Krupicka        : Initial AUTO-CI
   Lucas Lang             : DCDCAS
   Marvin Lechner         : AUTO-CI (C++ implementation), FIC-MRCC
   Dagmar Lenk            : GEPOL surface, SMD
   Dimitrios Liakos       : Extrapolation schemes; Compound Job, initial MDCI parallelization
   Dimitrios Manganas     : Further ROCIS development; embedding schemes
   Dimitrios Pantazis     : SARC Basis sets
   Anastasios Papadopoulos: AUTO-CI, single reference methods and gradients
   Taras Petrenko         : DFT Hessian,TD-DFT gradient, ASA, ECA, R-Raman, ABS, FL, XAS/XES, NRVS
   Peter Pinski           : DLPNO-MP2, DLPNO-MP2 Gradient
   Christoph Reimann      : Effective Core Potentials
   Marius Retegan         : Local ZFS, SOC
   Christoph Riplinger    : Optimizer, TS searches, QM/MM, DLPNO-CCSD(T), (RO)-DLPNO pert. Triples
   Tobias Risthaus        : Range-separated hybrids, TD-DFT gradient, RPA, STAB
   Michael Roemelt        : Original ROCIS implementation
   Masaaki Saitow         : Open-shell DLPNO-CCSD energy and density
   Barbara Sandhoefer     : DKH picture change effects
   Avijit Sen             : IP-ROCIS
   Kantharuban Sivalingam : CASSCF convergence, NEVPT2, FIC-MRCI
   Bernardo de Souza      : ESD, SOC TD-DFT
   Georgi Stoychev        : AutoAux, RI-MP2 NMR, DLPNO-MP2 response
   Willem Van den Heuvel  : Paramagnetic NMR
   Boris Wezisla          : Elementary symmetry handling
   Frank Wennmohs         : Technical directorship


 We gratefully acknowledge several colleagues who have allowed us to
 interface, adapt or use parts of their codes:
   Stefan Grimme, W. Hujo, H. Kruse, P. Pracht,  : VdW corrections, initial TS optimization,
                  C. Bannwarth, S. Ehlert          DFT functionals, gCP, sTDA/sTD-DF
   Ed Valeev, F. Pavosevic, A. Kumar             : LibInt (2-el integral package), F12 methods
   Garnet Chan, S. Sharma, J. Yang, R. Olivares  : DMRG
   Ulf Ekstrom                                   : XCFun DFT Library
   Mihaly Kallay                                 : mrcc  (arbitrary order and MRCC methods)
   Jiri Pittner, Ondrej Demel                    : Mk-CCSD
   Frank Weinhold                                : gennbo (NPA and NBO analysis)
   Christopher J. Cramer and Donald G. Truhlar   : smd solvation model
   Lars Goerigk                                  : TD-DFT with DH, B97 family of functionals
   V. Asgeirsson, H. Jonsson                     : NEB implementation
   FAccTs GmbH                                   : IRC, NEB, NEB-TS, DLPNO-Multilevel, CI-OPT
                                                   MM, QMMM, 2- and 3-layer-ONIOM, Crystal-QMMM,
                                                   LR-CPCM, SF, NACMEs, symmetry and pop. for TD-DFT,
                                                   nearIR, NL-DFT gradient (VV10), updates on ESD,
                                                   ML-optimized integration grids
   S Lehtola, MJT Oliveira, MAL Marques          : LibXC Library
   Liviu Ungur et al                             : ANISO software


 Your calculation uses the libint2 library for the computation of 2-el integrals
 For citations please refer to: http://libint.valeyev.net

 Your ORCA version has been built with support for libXC version: 5.1.0
 For citations please refer to: https://tddft.org/programs/libxc/

 This ORCA versions uses:
   CBLAS   interface :  Fast vector & matrix operations
   LAPACKE interface :  Fast linear algebra routines
   SCALAPACK package :  Parallel linear algebra routines
   Shared memory     :  Shared parallel matrices
   BLAS/LAPACK       :  OpenBLAS 0.3.15  USE64BITINT DYNAMIC_ARCH NO_AFFINITY SkylakeX SINGLE_THREADED
        Core in use  :  SkylakeX
   Copyright (c) 2011-2014, The OpenBLAS Project


Your calculation utilizes the atom-pairwise dispersion correction
based on tight binding partial charges (D4)
Cite in your paper:
E.Caldeweyher, C.Bannwarth, S.Grimme, J.Chem.Phys., (2017), 147, 034112.
E.Caldeweyher, S.Ehlert, A.Hansen, H.Neugebauer, S.Grimme, J.Chem.Phys., (2018), in progress.
   

XCFun DFT library Copyright 2009-2010 Ulf Ekstrom and contributors.
See http://admol.org/xcfun for more information.
This is free software; see the source code for copying conditions.
There is ABSOLUTELY NO WARRANTY; not even for MERCHANTABILITY or FITNESS FOR A PARTICULAR PURPOSE.
For details see the documentation.
Scientific users of this library should cite U. Ekstrom, L. Visscher, R. Bast, A. J. Thorvaldsen and K. Ruud;
J.Chem.Theor.Comp. 2010, DOI: 10.1021/ct100117s
XCFun Version 0.99 

================================================================================

----- Orbital basis set information -----
Your calculation utilizes the basis: def2-SVP
   F. Weigend and R. Ahlrichs, Phys. Chem. Chem. Phys. 7, 3297 (2005).

----- AuxJ basis set information -----
Your calculation utilizes the auxiliary basis: def2/J
   F. Weigend, Phys. Chem. Chem. Phys. 8, 1057 (2006).

================================================================================
                                        WARNINGS
                       Please study these warnings very carefully!
================================================================================


INFO   : the flag for use of the SHARK integral package has been found!

================================================================================
                                       INPUT FILE
================================================================================
NAME = DFT_water_outs/11-gasSP.inp
|  1> ! SP wB97X D4 def2-SVP def2/J defgrid2 
|  2> %maxcore 3000
|  3> %PAL NPROCS 4 END
|  4> * xyz 0 1
|  5> C -0.0 0.0 0.8248
|  6> N -0.0034 1.1627 0.1452
|  7> N 0.0034 -1.1627 0.1452
|  8> C 0.3551 1.421 -1.2486
|  9> C -0.3551 -1.421 -1.2486
| 10> H 0.9437 2.3507 -1.2878
| 11> H -0.9437 -2.3507 -1.2878
| 12> H 0.9847 0.6182 -1.6485
| 13> H -0.9847 -0.6182 -1.6485
| 14> H -0.5218 1.553 -1.9043
| 15> H 0.5218 -1.553 -1.9043
| 16> C -0.1748 2.384 0.9158
| 17> C 0.1748 -2.384 0.9158
| 18> H -0.3902 2.1228 1.9583
| 19> H 0.3902 -2.1228 1.9583
| 20> H 0.7343 3.0106 0.8778
| 21> H -0.7343 -3.0106 0.8778
| 22> H -1.0129 2.9826 0.5196
| 23> H 1.0129 -2.9826 0.5196
| 24> **                         ****END OF INPUT****
================================================================================

                       ****************************
                       * Single Point Calculation *
                       ****************************

---------------------------------
CARTESIAN COORDINATES (ANGSTROEM)
---------------------------------
  C     -0.000000    0.000000    0.824800
  N     -0.003400    1.162700    0.145200
  N      0.003400   -1.162700    0.145200
  C      0.355100    1.421000   -1.248600
  C     -0.355100   -1.421000   -1.248600
  H      0.943700    2.350700   -1.287800
  H     -0.943700   -2.350700   -1.287800
  H      0.984700    0.618200   -1.648500
  H     -0.984700   -0.618200   -1.648500
  H     -0.521800    1.553000   -1.904300
  H      0.521800   -1.553000   -1.904300
  C     -0.174800    2.384000    0.915800
  C      0.174800   -2.384000    0.915800
  H     -0.390200    2.122800    1.958300
  H      0.390200   -2.122800    1.958300
  H      0.734300    3.010600    0.877800
  H     -0.734300   -3.010600    0.877800
  H     -1.012900    2.982600    0.519600
  H      1.012900   -2.982600    0.519600

----------------------------
CARTESIAN COORDINATES (A.U.)
----------------------------
  NO LB      ZA    FRAG     MASS         X           Y           Z
   0 C     6.0000    0    12.011   -0.000000    0.000000    1.558646
   1 N     7.0000    0    14.007   -0.006425    2.197185    0.274388
   2 N     7.0000    0    14.007    0.006425   -2.197185    0.274388
   3 C     6.0000    0    12.011    0.671042    2.685301   -2.359512
   4 C     6.0000    0    12.011   -0.671042   -2.685301   -2.359512
   5 H     1.0000    0     1.008    1.783335    4.442179   -2.433589
   6 H     1.0000    0     1.008   -1.783335   -4.442179   -2.433589
   7 H     1.0000    0     1.008    1.860813    1.168229   -3.115214
   8 H     1.0000    0     1.008   -1.860813   -1.168229   -3.115214
   9 H     1.0000    0     1.008   -0.986059    2.934745   -3.598605
  10 H     1.0000    0     1.008    0.986059   -2.934745   -3.598605
  11 C     6.0000    0    12.011   -0.330324    4.505107    1.730611
  12 C     6.0000    0    12.011    0.330324   -4.505107    1.730611
  13 H     1.0000    0     1.008   -0.737371    4.011511    3.700651
  14 H     1.0000    0     1.008    0.737371   -4.011511    3.700651
  15 H     1.0000    0     1.008    1.387626    5.689209    1.658802
  16 H     1.0000    0     1.008   -1.387626   -5.689209    1.658802
  17 H     1.0000    0     1.008   -1.914104    5.636297    0.981902
  18 H     1.0000    0     1.008    1.914104   -5.636297    0.981902

--------------------------------
INTERNAL COORDINATES (ANGSTROEM)
--------------------------------
 C      0   0   0     0.000000000000     0.00000000     0.00000000
 N      1   0   0     1.346751279933     0.00000000     0.00000000
 N      1   2   0     1.346751279933   119.38750578     0.00000000
 C      2   1   3     1.462162638013   129.26612133   341.49700322
 C      3   1   2     1.462162638013   129.26612133   341.49700322
 H      4   2   1     1.101057986666   108.31075843   221.93890213
 H      5   3   1     1.101057986666   108.31075843   221.93890213
 H      4   2   1     1.095812032239   111.05869235   339.60345063
 H      5   3   1     1.095812032239   111.05869235   339.60345063
 H      4   2   1     1.102869031209   113.13743624   102.71147865
 H      5   3   1     1.102869031209   113.13743624   102.71147865
 C      2   1   3     1.454226945838   117.25495888   172.54081506
 C      3   1   2     1.454226945838   117.25495888   172.54081506
 H     12   2   1     1.096097098801   109.08819672   353.65017365
 H     13   3   1     1.096097098801   109.08819672   353.65017365
 H     12   2   1     1.104777973169   111.16858989   114.18075628
 H     13   3   1     1.104777973169   111.16858989   114.18075628
 H     12   2   1     1.103498078838   110.78302957   233.96611217
 H     13   3   1     1.103498078838   110.78302957   233.96611217

---------------------------
INTERNAL COORDINATES (A.U.)
---------------------------
 C      0   0   0     0.000000000000     0.00000000     0.00000000
 N      1   0   0     2.544991089580     0.00000000     0.00000000
 N      1   2   0     2.544991089580   119.38750578     0.00000000
 C      2   1   3     2.763086949096   129.26612133   341.49700322
 C      3   1   2     2.763086949096   129.26612133   341.49700322
 H      4   2   1     2.080698052365   108.31075843   221.93890213
 H      5   3   1     2.080698052365   108.31075843   221.93890213
 H      4   2   1     2.070784635188   111.05869235   339.60345063
 H      5   3   1     2.070784635188   111.05869235   339.60345063
 H      4   2   1     2.084120430568   113.13743624   102.71147865
 H      5   3   1     2.084120430568   113.13743624   102.71147865
 C      2   1   3     2.748090664202   117.25495888   172.54081506
 C      3   1   2     2.748090664202   117.25495888   172.54081506
 H     12   2   1     2.071323332920   109.08819672   353.65017365
 H     13   3   1     2.071323332920   109.08819672   353.65017365
 H     12   2   1     2.087727808079   111.16858989   114.18075628
 H     13   3   1     2.087727808079   111.16858989   114.18075628
 H     12   2   1     2.085309158313   110.78302957   233.96611217
 H     13   3   1     2.085309158313   110.78302957   233.96611217

---------------------
BASIS SET INFORMATION
---------------------
There are 3 groups of distinct atoms

 Group   1 Type C   : 7s4p1d contracted to 3s2p1d pattern {511/31/1}
 Group   2 Type N   : 7s4p1d contracted to 3s2p1d pattern {511/31/1}
 Group   3 Type H   : 4s1p contracted to 2s1p pattern {31/1}

Atom   0C    basis set group =>   1
Atom   1N    basis set group =>   2
Atom   2N    basis set group =>   2
Atom   3C    basis set group =>   1
Atom   4C    basis set group =>   1
Atom   5H    basis set group =>   3
Atom   6H    basis set group =>   3
Atom   7H    basis set group =>   3
Atom   8H    basis set group =>   3
Atom   9H    basis set group =>   3
Atom  10H    basis set group =>   3
Atom  11C    basis set group =>   1
Atom  12C    basis set group =>   1
Atom  13H    basis set group =>   3
Atom  14H    basis set group =>   3
Atom  15H    basis set group =>   3
Atom  16H    basis set group =>   3
Atom  17H    basis set group =>   3
Atom  18H    basis set group =>   3
---------------------------------
AUXILIARY/J BASIS SET INFORMATION
---------------------------------
There are 3 groups of distinct atoms

 Group   1 Type C   : 12s5p4d2f1g contracted to 6s4p3d1f1g pattern {711111/2111/211/2/1}
 Group   2 Type N   : 12s5p4d2f1g contracted to 6s4p3d1f1g pattern {711111/2111/211/2/1}
 Group   3 Type H   : 5s2p1d contracted to 3s1p1d pattern {311/2/1}

Atom   0C    basis set group =>   1
Atom   1N    basis set group =>   2
Atom   2N    basis set group =>   2
Atom   3C    basis set group =>   1
Atom   4C    basis set group =>   1
Atom   5H    basis set group =>   3
Atom   6H    basis set group =>   3
Atom   7H    basis set group =>   3
Atom   8H    basis set group =>   3
Atom   9H    basis set group =>   3
Atom  10H    basis set group =>   3
Atom  11C    basis set group =>   1
Atom  12C    basis set group =>   1
Atom  13H    basis set group =>   3
Atom  14H    basis set group =>   3
Atom  15H    basis set group =>   3
Atom  16H    basis set group =>   3
Atom  17H    basis set group =>   3
Atom  18H    basis set group =>   3


           ************************************************************
           *        Program running with 4 parallel MPI-processes     *
           *              working on a common directory               *
           ************************************************************
------------------------------------------------------------------------------
                           ORCA GTO INTEGRAL CALCULATION
                           -- RI-GTO INTEGRALS CHOSEN --
------------------------------------------------------------------------------
------------------------------------------------------------------------------
                   ___                                                        
                  /   \      - P O W E R E D   B Y -                         
                 /     \                                                     
                 |  |  |   _    _      __       _____    __    __             
                 |  |  |  | |  | |    /  \     |  _  \  |  |  /  |          
                  \  \/   | |  | |   /    \    | | | |  |  | /  /          
                 / \  \   | |__| |  /  /\  \   | |_| |  |  |/  /          
                |  |  |   |  __  | /  /__\  \  |    /   |      \           
                |  |  |   | |  | | |   __   |  |    \   |  |\   \          
                \     /   | |  | | |  |  |  |  | |\  \  |  | \   \       
                 \___/    |_|  |_| |__|  |__|  |_| \__\ |__|  \__/        
                                                                              
                      - O R C A' S   B I G   F R I E N D -                    
                                      &                                       
                       - I N T E G R A L  F E E D E R -                       
                                                                              
 v1 FN, 2020, v2 2021                                                         
------------------------------------------------------------------------------


Reading SHARK input file DFT_water_outs/11-gasSP.SHARKINP.tmp ... ok
----------------------
SHARK INTEGRAL PACKAGE
----------------------

Number of atoms                             ...     19
Number of basis functions                   ...    158
Number of shells                            ...     78
Maximum angular momentum                    ...      2
Integral batch strategy                     ... SHARK/LIBINT Hybrid
RI-J (if used) integral strategy            ... SPLIT-RIJ (Revised 2003 algorithm where possible)
Printlevel                                  ...      1
Contraction scheme used                     ... SEGMENTED contraction
Coulomb Range Separation                    ... NOT USED
Exchange Range Separation                   ... Long Range
   Mu parameter                             ...  0.300000
   Scaling (regular/separated)              ...  0.157706  0.842294
Finite Nucleus Model                        ... NOT USED
Auxiliary Coulomb fitting basis             ... AVAILABLE
   # of basis functions in Aux-J            ...    475
   # of shells in Aux-J                     ...    165
   Maximum angular momentum in Aux-J        ...      4
Auxiliary J/K fitting basis                 ... NOT available
Auxiliary Correlation fitting basis         ... NOT available
Auxiliary 'external' fitting basis          ... NOT available
Integral threshold                          ...     1.000000e-10
Primitive cut-off                           ...     1.000000e-11
Primitive pair pre-selection threshold      ...     1.000000e-11

Calculating pre-screening integrals         ... done (  0.0 sec) Dimension = 78
Organizing shell pair data                  ... done (  0.0 sec)
Shell pair information
Total number of shell pairs                 ...      3081
Shell pairs after pre-screening             ...      2884
Total number of primitive shell pairs       ...     10567
Primitive shell pairs kept                  ...      7346
          la=0 lb=0:    986 shell pairs
          la=1 lb=0:   1088 shell pairs
          la=1 lb=1:    318 shell pairs
          la=2 lb=0:    299 shell pairs
          la=2 lb=1:    166 shell pairs
          la=2 lb=2:     27 shell pairs

Calculating one electron integrals          ... done (  0.0 sec)
Calculating RI/J V-Matrix + Cholesky decomp.... done (  0.0 sec)
Calculating Nuclear repulsion               ... done (  0.0 sec) ENN=    320.835326457110 Eh

SHARK setup successfully completed in   0.2 seconds

Maximum memory used throughout the entire GTOINT-calculation: 11.5 MB


           ************************************************************
           *        Program running with 4 parallel MPI-processes     *
           *              working on a common directory               *
           ************************************************************
-------------------------------------------------------------------------------
                                 ORCA SCF
-------------------------------------------------------------------------------

------------
SCF SETTINGS
------------
Hamiltonian:
 Density Functional     Method          .... DFT(GTOs)
 Exchange Functional    Exchange        .... WB97X
 Correlation Functional Correlation     .... WB97X
 Gradients option       PostSCFGGA      .... off
 Hybrid DFT is turned on
   Fraction HF Exchange ScalHFX         ....  0.157706
   Scaling of DF-GGA-X  ScalDFX         ....  0.000000
   Scaling of DF-GGA-C  ScalDFC         ....  1.000000
   Scaling of DF-LDA-C  ScalLDAC        ....  1.000000
   Perturbative correction              ....  0.000000
   Density functional embedding theory  .... OFF
 Long-range corrected/Screened/Range-Separated Hybrid DFT is turned on
   Amount of maximum screened exact exchange              ....  0.842294
   Range separation parameter mu (erf(mu*r12)/r12)        ....  0.300000
 RI-approximation to the Coulomb term is turned on
   Number of AuxJ basis functions       .... 475
   RIJ-COSX (HFX calculated with COS-X)).... on


General Settings:
 Integral files         IntName         .... DFT_water_outs/11-gasSP
 Hartree-Fock type      HFTyp           .... RHF
 Total Charge           Charge          ....    0
 Multiplicity           Mult            ....    1
 Number of Electrons    NEL             ....   56
 Basis Dimension        Dim             ....  158
 Nuclear Repulsion      ENuc            ....    320.8353264571 Eh

Convergence Acceleration:
 DIIS                   CNVDIIS         .... on
   Start iteration      DIISMaxIt       ....    12
   Startup error        DIISStart       ....  0.200000
   # of expansion vecs  DIISMaxEq       ....     5
   Bias factor          DIISBfac        ....   1.050
   Max. coefficient     DIISMaxC        ....  10.000
 Trust-Rad. Augm. Hess. CNVTRAH         .... auto
   Auto Start mean grad. ratio tolernc. ....  1.125000
   Auto Start start iteration           ....    20
   Auto Start num. interpolation iter.  ....    10
   Max. Number of Micro iterations      ....    16
   Max. Number of Macro iterations      .... Maxiter - #DIIS iter
   Number of Davidson start vectors     ....     2
   Converg. threshold I  (grad. norm)   ....   5.000e-05
   Converg. threshold II (energy diff.) ....   1.000e-06
   Grad. Scal. Fac. for Micro threshold ....   0.100
   Minimum threshold for Micro iter.    ....   0.010
   NR start threshold (gradient norm)   ....   0.001
   Initial trust radius                 ....   0.400
   Minimum AH scaling param. (alpha)    ....   1.000
   Maximum AH scaling param. (alpha)    .... 1000.000
   Orbital update algorithm             .... Taylor
   White noise on init. David. guess    .... on
   Maximum white noise                  ....   0.010
   Quad. conv. algorithm                .... NR
 SOSCF                  CNVSOSCF        .... on
   Start iteration      SOSCFMaxIt      ....   150
   Startup grad/error   SOSCFStart      ....  0.003300
 Level Shifting         CNVShift        .... on
   Level shift para.    LevelShift      ....    0.2500
   Turn off err/grad.   ShiftErr        ....    0.0010
 Zerner damping         CNVZerner       .... off
 Static damping         CNVDamp         .... on
   Fraction old density DampFac         ....    0.7000
   Max. Damping (<1)    DampMax         ....    0.9800
   Min. Damping (>=0)   DampMin         ....    0.0000
   Turn off err/grad.   DampErr         ....    0.1000
 Fernandez-Rico         CNVRico         .... off

SCF Procedure:
 Maximum # iterations   MaxIter         ....   125
 SCF integral mode      SCFMode         .... Direct
   Integral package                     .... SHARK and LIBINT hybrid scheme
 Reset frequency        DirectResetFreq ....    20
 Integral Threshold     Thresh          ....  1.000e-10 Eh
 Primitive CutOff       TCut            ....  1.000e-11 Eh

Convergence Tolerance:
 Convergence Check Mode ConvCheckMode   .... Total+1el-Energy
 Convergence forced     ConvForced      .... 0
 Energy Change          TolE            ....  1.000e-06 Eh
 1-El. energy change                    ....  1.000e-03 Eh
 Orbital Gradient       TolG            ....  5.000e-05
 Orbital Rotation angle TolX            ....  5.000e-05
 DIIS Error             TolErr          ....  1.000e-06


Diagonalization of the overlap matrix:
Smallest eigenvalue                        ... 5.387e-03
Time for diagonalization                   ...    0.006 sec
Threshold for overlap eigenvalues          ... 1.000e-08
Number of eigenvalues below threshold      ... 0
Time for construction of square roots      ...    0.004 sec
Total time needed                          ...    0.011 sec

Time for model grid setup =    0.096 sec

------------------------------
INITIAL GUESS: MODEL POTENTIAL
------------------------------
Loading Hartree-Fock densities                     ... done
Calculating cut-offs                               ... done
Initializing the effective Hamiltonian             ... done
Setting up the integral package (SHARK)            ... done
Starting the Coulomb interaction                   ... done (   0.0 sec)
Reading the grid                                   ... done
Mapping shells                                     ... done
Starting the XC term evaluation                    ... done (   0.1 sec)
  promolecular density results
     # of electrons  =     55.989589685
     EX              =    -42.167025990
     EC              =     -1.830441277
     EX+EC           =    -43.997467267
Transforming the Hamiltonian                       ... done (   0.0 sec)
Diagonalizing the Hamiltonian                      ... done (   0.0 sec)
Back transforming the eigenvectors                 ... done (   0.0 sec)
Now organizing SCF variables                       ... done
                      ------------------
                      INITIAL GUESS DONE (   0.2 sec)
                      ------------------
-------------------
DFT GRID GENERATION
-------------------

General Integration Accuracy     IntAcc      ... 4.388
Radial Grid Type                 RadialGrid  ... OptM3 with GC (2021)
Angular Grid (max. ang.)         AngularGrid ... 4 (Lebedev-302)
Angular grid pruning method      GridPruning ... 4 (adaptive)
Weight generation scheme         WeightScheme... Becke
Basis function cutoff            BFCut       ... 1.0000e-10
Integration weight cutoff        WCut        ... 1.0000e-14
Angular grids for H and He will be reduced by one unit
Partially contracted basis set               ... off
Rotationally invariant grid construction     ... off

Total number of grid points                  ...    80726
Total number of batches                      ...     1271
Average number of points per batch           ...       63
Average number of grid points per atom       ...     4249
Time for grid setup =    0.463 sec

--------------------
COSX GRID GENERATION
--------------------

GRIDX 1
-------
General Integration Accuracy     IntAcc      ... 3.816
Radial Grid Type                 RadialGrid  ... OptM3 with GC (2021)
Angular Grid (max. ang.)         AngularGrid ... 1 (Lebedev-50)
Angular grid pruning method      GridPruning ... 4 (adaptive)
Weight generation scheme         WeightScheme... Becke
Basis function cutoff            BFCut       ... 1.0000e-10
Integration weight cutoff        WCut        ... 1.0000e-14
Angular grids for H and He will be reduced by one unit
Partially contracted basis set               ... on
Rotationally invariant grid construction     ... off

Total number of grid points                  ...    10396
Total number of batches                      ...      174
Average number of points per batch           ...       59
Average number of grid points per atom       ...      547
UseSFitting                                  ... on

GRIDX 2
-------
General Integration Accuracy     IntAcc      ... 4.020
Radial Grid Type                 RadialGrid  ... OptM3 with GC (2021)
Angular Grid (max. ang.)         AngularGrid ... 2 (Lebedev-110)
Angular grid pruning method      GridPruning ... 4 (adaptive)
Weight generation scheme         WeightScheme... Becke
Basis function cutoff            BFCut       ... 1.0000e-10
Integration weight cutoff        WCut        ... 1.0000e-14
Angular grids for H and He will be reduced by one unit
Partially contracted basis set               ... on
Rotationally invariant grid construction     ... off

Total number of grid points                  ...    21670
Total number of batches                      ...      347
Average number of points per batch           ...       62
Average number of grid points per atom       ...     1141
UseSFitting                                  ... on

GRIDX 3
-------
General Integration Accuracy     IntAcc      ... 4.338
Radial Grid Type                 RadialGrid  ... OptM3 with GC (2021)
Angular Grid (max. ang.)         AngularGrid ... 3 (Lebedev-194)
Angular grid pruning method      GridPruning ... 4 (adaptive)
Weight generation scheme         WeightScheme... Becke
Basis function cutoff            BFCut       ... 1.0000e-10
Integration weight cutoff        WCut        ... 1.0000e-14
Angular grids for H and He will be reduced by one unit
Partially contracted basis set               ... on
Rotationally invariant grid construction     ... off

Total number of grid points                  ...    47341
Total number of batches                      ...      752
Average number of points per batch           ...       62
Average number of grid points per atom       ...     2492
UseSFitting                                  ... on

Time for X-Grid setup             =    0.448 sec

--------------
SCF ITERATIONS
--------------
ITER       Energy         Delta-E        Max-DP      RMS-DP      [F,P]     Damp
               ***  Starting incremental Fock matrix formation  ***
  0   -306.7212844207   0.000000000000 0.07552623  0.00172404  0.1304331 0.7000
  1   -306.7819321301  -0.060647709368 0.06752888  0.00134189  0.0820025 0.7000
                               ***Turning on DIIS***
  2   -306.8156511055  -0.033718975469 0.15837760  0.00281166  0.0454159 0.0000
  3   -306.8729351311  -0.057284025548 0.02599193  0.00083670  0.0255605 0.0000
  4   -306.8797305769  -0.006795445809 0.00716027  0.00020595  0.0050486 0.0000
                      *** Initiating the SOSCF procedure ***
                           *** Shutting down DIIS ***
                      *** Re-Reading the Fockian *** 
                      *** Removing any level shift *** 
ITER      Energy       Delta-E        Grad      Rot      Max-DP    RMS-DP
  5   -306.87992959  -0.0001990149  0.001904  0.001904  0.003811  0.000082
               *** Restarting incremental Fock matrix formation ***
  6   -306.87996998  -0.0000403904  0.000732  0.001354  0.001861  0.000057
  7   -306.87997826  -0.0000082785  0.000393  0.001249  0.001427  0.000035
  8   -306.87997941  -0.0000011487  0.000140  0.000220  0.000539  0.000008
  9   -306.87997972  -0.0000003057  0.000023  0.000028  0.000133  0.000002
                 **** Energy Check signals convergence ****
              ***Rediagonalizing the Fockian in SOSCF/NRSCF***

               *****************************************************
               *                     SUCCESS                       *
               *           SCF CONVERGED AFTER  10 CYCLES          *
               *****************************************************

Old exchange energy                            =    -14.189014703 Eh
New exchange energy                            =    -14.189048219 Eh
Exchange energy change after final integration =     -0.000033516 Eh
Total energy after final integration           =   -306.880013263 Eh
Final COS-X integration done in                =     5.224 sec

----------------
TOTAL SCF ENERGY
----------------

Total Energy       :         -306.88001326 Eh           -8350.62970 eV

Components:
Nuclear Repulsion  :          320.83532646 Eh            8730.37308 eV
Electronic Energy  :         -627.71533972 Eh          -17081.00278 eV
One Electron Energy:        -1048.70965933 Eh          -28536.84062 eV
Two Electron Energy:          420.99431961 Eh           11455.83784 eV
Max COSX asymmetry :            0.00000146 Eh               0.00004 eV

Virial components:
Potential Energy   :         -610.07005735 Eh          -16600.85023 eV
Kinetic Energy     :          303.19004408 Eh            8250.22053 eV
Virial Ratio       :            2.01217048


DFT components:
N(Alpha)           :       28.000038838212 electrons
N(Beta)            :       28.000038838212 electrons
N(Total)           :       56.000077676424 electrons
E(XC)              :      -31.086414020202 Eh       
DFET-embed. en.    :        0.000000000000 Eh       

---------------
SCF CONVERGENCE
---------------

  Last Energy change         ...   -3.1746e-08  Tolerance :   1.0000e-06
  Last MAX-Density change    ...    2.8866e-15  Tolerance :   1.0000e-05
  Last RMS-Density change    ...    3.9637e-17  Tolerance :   1.0000e-06
  Last Orbital Gradient      ...    7.9124e-06  Tolerance :   5.0000e-05
  Last Orbital Rotation      ...    1.5911e-05  Tolerance :   5.0000e-05

             **** THE GBW FILE WAS UPDATED (DFT_water_outs/11-gasSP.gbw) ****
             **** DENSITY DFT_water_outs/11-gasSP.scfp WAS UPDATED ****
             **** ENERGY FILE WAS UPDATED (DFT_water_outs/11-gasSP.en.tmp) ****
             **** THE GBW FILE WAS UPDATED (DFT_water_outs/11-gasSP.gbw) ****
             **** DENSITY DFT_water_outs/11-gasSP.scfp WAS UPDATED ****
----------------
ORBITAL ENERGIES
----------------

  NO   OCC          E(Eh)            E(eV) 
   0   2.0000     -14.419287      -392.3688 
   1   2.0000     -14.419279      -392.3685 
   2   2.0000     -10.301007      -280.3047 
   3   2.0000     -10.300985      -280.3041 
   4   2.0000     -10.285651      -279.8868 
   5   2.0000     -10.285621      -279.8860 
   6   2.0000     -10.267436      -279.3911 
   7   2.0000      -1.079929       -29.3864 
   8   2.0000      -1.026447       -27.9310 
   9   2.0000      -0.844418       -22.9778 
  10   2.0000      -0.831425       -22.6242 
  11   2.0000      -0.823484       -22.4081 
  12   2.0000      -0.750050       -20.4099 
  13   2.0000      -0.656142       -17.8545 
  14   2.0000      -0.607493       -16.5307 
  15   2.0000      -0.585381       -15.9290 
  16   2.0000      -0.582058       -15.8386 
  17   2.0000      -0.562494       -15.3062 
  18   2.0000      -0.539353       -14.6766 
  19   2.0000      -0.525813       -14.3081 
  20   2.0000      -0.507025       -13.7969 
  21   2.0000      -0.495944       -13.4953 
  22   2.0000      -0.478455       -13.0194 
  23   2.0000      -0.475486       -12.9386 
  24   2.0000      -0.459422       -12.5015 
  25   2.0000      -0.405930       -11.0459 
  26   2.0000      -0.321863        -8.7583 
  27   2.0000      -0.267431        -7.2772 
  28   0.0000       0.134526         3.6606 
  29   0.0000       0.138769         3.7761 
  30   0.0000       0.163545         4.4503 
  31   0.0000       0.186905         5.0860 
  32   0.0000       0.191850         5.2205 
  33   0.0000       0.210704         5.7335 
  34   0.0000       0.226770         6.1707 
  35   0.0000       0.230081         6.2608 
  36   0.0000       0.231371         6.2959 
  37   0.0000       0.237342         6.4584 
  38   0.0000       0.250786         6.8242 
  39   0.0000       0.259707         7.0670 
  40   0.0000       0.260435         7.0868 
  41   0.0000       0.266303         7.2465 
  42   0.0000       0.290755         7.9118 
  43   0.0000       0.326533         8.8854 
  44   0.0000       0.343590         9.3496 
  45   0.0000       0.420112        11.4318 
  46   0.0000       0.471865        12.8401 
  47   0.0000       0.490562        13.3489 
  48   0.0000       0.507082        13.7984 
  49   0.0000       0.527605        14.3569 
  50   0.0000       0.544572        14.8186 
  51   0.0000       0.568238        15.4625 
  52   0.0000       0.571492        15.5511 
  53   0.0000       0.597862        16.2686 
  54   0.0000       0.623377        16.9629 
  55   0.0000       0.658201        17.9106 
  56   0.0000       0.683469        18.5981 
  57   0.0000       0.714803        19.4508 
  58   0.0000       0.715875        19.4799 
  59   0.0000       0.724496        19.7145 
  60   0.0000       0.726944        19.7812 
  61   0.0000       0.729106        19.8400 
  62   0.0000       0.735055        20.0019 
  63   0.0000       0.764182        20.7945 
  64   0.0000       0.764968        20.8158 
  65   0.0000       0.774094        21.0642 
  66   0.0000       0.774907        21.0863 
  67   0.0000       0.785809        21.3830 
  68   0.0000       0.793324        21.5874 
  69   0.0000       0.794273        21.6133 
  70   0.0000       0.804175        21.8827 
  71   0.0000       0.815224        22.1834 
  72   0.0000       0.828176        22.5358 
  73   0.0000       0.834998        22.7215 
  74   0.0000       0.842400        22.9229 
  75   0.0000       0.890111        24.2212 
  76   0.0000       0.891411        24.2565 
  77   0.0000       0.913941        24.8696 
  78   0.0000       0.969729        26.3877 
  79   0.0000       1.017216        27.6799 
  80   0.0000       1.092188        29.7199 
  81   0.0000       1.100495        29.9460 
  82   0.0000       1.184232        32.2246 
  83   0.0000       1.215575        33.0775 
  84   0.0000       1.242306        33.8049 
  85   0.0000       1.277534        34.7635 
  86   0.0000       1.303626        35.4735 
  87   0.0000       1.339270        36.4434 
  88   0.0000       1.398483        38.0547 
  89   0.0000       1.404488        38.2181 
  90   0.0000       1.476915        40.1889 
  91   0.0000       1.500021        40.8177 
  92   0.0000       1.606694        43.7204 
  93   0.0000       1.643201        44.7138 
  94   0.0000       1.644042        44.7367 
  95   0.0000       1.649236        44.8780 
  96   0.0000       1.650758        44.9194 
  97   0.0000       1.671354        45.4799 
  98   0.0000       1.673219        45.5306 
  99   0.0000       1.725549        46.9546 
 100   0.0000       1.742621        47.4191 
 101   0.0000       1.790311        48.7168 
 102   0.0000       1.801973        49.0342 
 103   0.0000       1.859863        50.6094 
 104   0.0000       1.878206        51.1086 
 105   0.0000       1.878984        51.1297 
 106   0.0000       1.893168        51.5157 
 107   0.0000       1.911220        52.0069 
 108   0.0000       1.918154        52.1956 
 109   0.0000       1.927838        52.4591 
 110   0.0000       1.934773        52.6478 
 111   0.0000       1.940319        52.7988 
 112   0.0000       1.960021        53.3349 
 113   0.0000       1.997422        54.3526 
 114   0.0000       2.008364        54.6504 
 115   0.0000       2.039502        55.4977 
 116   0.0000       2.083505        56.6950 
 117   0.0000       2.090839        56.8946 
 118   0.0000       2.111222        57.4493 
 119   0.0000       2.152420        58.5703 
 120   0.0000       2.159870        58.7731 
 121   0.0000       2.162082        58.8332 
 122   0.0000       2.214750        60.2664 
 123   0.0000       2.227244        60.6064 
 124   0.0000       2.301594        62.6296 
 125   0.0000       2.301695        62.6323 
 126   0.0000       2.352836        64.0239 
 127   0.0000       2.395629        65.1884 
 128   0.0000       2.408725        65.5447 
 129   0.0000       2.416003        65.7428 
 130   0.0000       2.436497        66.3005 
 131   0.0000       2.467169        67.1351 
 132   0.0000       2.519429        68.5572 
 133   0.0000       2.546042        69.2813 
 134   0.0000       2.562310        69.7240 
 135   0.0000       2.600323        70.7584 
 136   0.0000       2.732201        74.3470 
 137   0.0000       2.738921        74.5298 
 138   0.0000       2.740312        74.5677 
 139   0.0000       2.756951        75.0204 
 140   0.0000       2.762421        75.1693 
 141   0.0000       2.782325        75.7109 
 142   0.0000       2.853768        77.6550 
 143   0.0000       2.901084        78.9425 
 144   0.0000       2.920070        79.4592 
 145   0.0000       2.988698        81.3266 
 146   0.0000       3.017885        82.1208 
 147   0.0000       3.022033        82.2337 
 148   0.0000       3.028608        82.4126 
 149   0.0000       3.039684        82.7140 
 150   0.0000       3.054496        83.1171 
 151   0.0000       3.069012        83.5121 
 152   0.0000       3.118415        84.8564 
 153   0.0000       3.135301        85.3159 
 154   0.0000       3.198692        87.0408 
 155   0.0000       3.239732        88.1576 
 156   0.0000       3.394506        92.3692 
 157   0.0000       3.531086        96.0857 

                    ********************************
                    * MULLIKEN POPULATION ANALYSIS *
                    ********************************

-----------------------
MULLIKEN ATOMIC CHARGES
-----------------------
   0 C :   -0.100316
   1 N :   -0.338874
   2 N :   -0.338874
   3 C :    0.079737
   4 C :    0.079736
   5 H :    0.028565
   6 H :    0.028565
   7 H :    0.037436
   8 H :    0.037436
   9 H :    0.037591
  10 H :    0.037591
  11 C :    0.116964
  12 C :    0.116964
  13 H :    0.049959
  14 H :    0.049959
  15 H :    0.018982
  16 H :    0.018981
  17 H :    0.019799
  18 H :    0.019799
Sum of atomic charges:   -0.0000000

--------------------------------
MULLIKEN REDUCED ORBITAL CHARGES
--------------------------------
  0 C s       :     3.553979  s :     3.553979
      pz      :     1.234619  p :     2.477753
      px      :     0.567943
      py      :     0.675191
      dz2     :     0.006317  d :     0.068584
      dxz     :     0.007341
      dyz     :     0.025594
      dx2y2   :     0.010429
      dxy     :     0.018903
  1 N s       :     3.409024  s :     3.409024
      pz      :     1.133411  p :     3.900902
      px      :     1.622703
      py      :     1.144788
      dz2     :     0.007949  d :     0.028948
      dxz     :     0.003322
      dyz     :     0.009762
      dx2y2   :     0.004184
      dxy     :     0.003730
  2 N s       :     3.409024  s :     3.409024
      pz      :     1.133410  p :     3.900902
      px      :     1.622703
      py      :     1.144788
      dz2     :     0.007949  d :     0.028948
      dxz     :     0.003322
      dyz     :     0.009762
      dx2y2   :     0.004184
      dxy     :     0.003730
  3 C s       :     2.996056  s :     2.996056
      pz      :     0.840405  p :     2.884492
      px      :     1.010621
      py      :     1.033466
      dz2     :     0.012268  d :     0.039715
      dxz     :     0.012509
      dyz     :     0.005275
      dx2y2   :     0.002704
      dxy     :     0.006958
  4 C s       :     2.996056  s :     2.996056
      pz      :     0.840405  p :     2.884492
      px      :     1.010621
      py      :     1.033466
      dz2     :     0.012268  d :     0.039715
      dxz     :     0.012509
      dyz     :     0.005275
      dx2y2   :     0.002704
      dxy     :     0.006958
  5 H s       :     0.948458  s :     0.948458
      pz      :     0.002852  p :     0.022977
      px      :     0.007921
      py      :     0.012204
  6 H s       :     0.948458  s :     0.948458
      pz      :     0.002852  p :     0.022977
      px      :     0.007921
      py      :     0.012204
  7 H s       :     0.939021  s :     0.939021
      pz      :     0.004342  p :     0.023543
      px      :     0.008416
      py      :     0.010784
  8 H s       :     0.939021  s :     0.939021
      pz      :     0.004342  p :     0.023543
      px      :     0.008416
      py      :     0.010784
  9 H s       :     0.939668  s :     0.939668
      pz      :     0.006639  p :     0.022742
      px      :     0.011071
      py      :     0.005032
 10 H s       :     0.939667  s :     0.939667
      pz      :     0.006639  p :     0.022742
      px      :     0.011071
      py      :     0.005032
 11 C s       :     2.990356  s :     2.990356
      pz      :     0.995941  p :     2.852298
      px      :     1.003209
      py      :     0.853148
      dz2     :     0.007645  d :     0.040382
      dxz     :     0.003432
      dyz     :     0.009742
      dx2y2   :     0.005787
      dxy     :     0.013776
 12 C s       :     2.990356  s :     2.990356
      pz      :     0.995941  p :     2.852298
      px      :     1.003209
      py      :     0.853148
      dz2     :     0.007645  d :     0.040382
      dxz     :     0.003432
      dyz     :     0.009742
      dx2y2   :     0.005787
      dxy     :     0.013776
 13 H s       :     0.926887  s :     0.926887
      pz      :     0.014123  p :     0.023154
      px      :     0.004932
      py      :     0.004098
 14 H s       :     0.926887  s :     0.926887
      pz      :     0.014123  p :     0.023154
      px      :     0.004932
      py      :     0.004098
 15 H s       :     0.958473  s :     0.958473
      pz      :     0.004085  p :     0.022546
      px      :     0.011725
      py      :     0.006735
 16 H s       :     0.958473  s :     0.958473
      pz      :     0.004085  p :     0.022546
      px      :     0.011725
      py      :     0.006735
 17 H s       :     0.957674  s :     0.957674
      pz      :     0.005201  p :     0.022526
      px      :     0.010964
      py      :     0.006362
 18 H s       :     0.957674  s :     0.957674
      pz      :     0.005201  p :     0.022526
      px      :     0.010964
      py      :     0.006362


                     *******************************
                     * LOEWDIN POPULATION ANALYSIS *
                     *******************************

----------------------
LOEWDIN ATOMIC CHARGES
----------------------
   0 C :   -0.204427
   1 N :   -0.063579
   2 N :   -0.063579
   3 C :    0.013922
   4 C :    0.013922
   5 H :    0.023457
   6 H :    0.023457
   7 H :    0.026605
   8 H :    0.026605
   9 H :    0.017135
  10 H :    0.017135
  11 C :    0.027159
  12 C :    0.027159
  13 H :    0.031440
  14 H :    0.031440
  15 H :    0.012261
  16 H :    0.012261
  17 H :    0.013814
  18 H :    0.013814

-------------------------------
LOEWDIN REDUCED ORBITAL CHARGES
-------------------------------
  0 C s       :     3.151959  s :     3.151959
      pz      :     1.414820  p :     2.897858
      px      :     0.622552
      py      :     0.860486
      dz2     :     0.012904  d :     0.154609
      dxz     :     0.010440
      dyz     :     0.057891
      dx2y2   :     0.031812
      dxy     :     0.041562
  1 N s       :     3.069187  s :     3.069187
      pz      :     1.177518  p :     3.926985
      px      :     1.550730
      py      :     1.198737
      dz2     :     0.018822  d :     0.067407
      dxz     :     0.006085
      dyz     :     0.026757
      dx2y2   :     0.009184
      dxy     :     0.006559
  2 N s       :     3.069187  s :     3.069187
      pz      :     1.177518  p :     3.926985
      px      :     1.550730
      py      :     1.198737
      dz2     :     0.018822  d :     0.067407
      dxz     :     0.006085
      dyz     :     0.026757
      dx2y2   :     0.009184
      dxy     :     0.006559
  3 C s       :     2.835582  s :     2.835582
      pz      :     0.918399  p :     3.052137
      px      :     1.063262
      py      :     1.070476
      dz2     :     0.030013  d :     0.098359
      dxz     :     0.030812
      dyz     :     0.012219
      dx2y2   :     0.006773
      dxy     :     0.018541
  4 C s       :     2.835582  s :     2.835582
      pz      :     0.918399  p :     3.052137
      px      :     1.063262
      py      :     1.070476
      dz2     :     0.030013  d :     0.098359
      dxz     :     0.030812
      dyz     :     0.012219
      dx2y2   :     0.006773
      dxy     :     0.018541
  5 H s       :     0.912434  s :     0.912434
      pz      :     0.009581  p :     0.064109
      px      :     0.021291
      py      :     0.033237
  6 H s       :     0.912434  s :     0.912434
      pz      :     0.009581  p :     0.064109
      px      :     0.021291
      py      :     0.033237
  7 H s       :     0.907693  s :     0.907693
      pz      :     0.014243  p :     0.065703
      px      :     0.022704
      py      :     0.028756
  8 H s       :     0.907693  s :     0.907693
      pz      :     0.014243  p :     0.065703
      px      :     0.022704
      py      :     0.028756
  9 H s       :     0.918196  s :     0.918196
      pz      :     0.021494  p :     0.064669
      px      :     0.030158
      py      :     0.013016
 10 H s       :     0.918196  s :     0.918196
      pz      :     0.021494  p :     0.064669
      px      :     0.030158
      py      :     0.013016
 11 C s       :     2.839312  s :     2.839312
      pz      :     1.033648  p :     3.034576
      px      :     1.063266
      py      :     0.937663
      dz2     :     0.019510  d :     0.098953
      dxz     :     0.007445
      dyz     :     0.023201
      dx2y2   :     0.013112
      dxy     :     0.035686
 12 C s       :     2.839312  s :     2.839312
      pz      :     1.033648  p :     3.034576
      px      :     1.063266
      py      :     0.937663
      dz2     :     0.019510  d :     0.098953
      dxz     :     0.007445
      dyz     :     0.023201
      dx2y2   :     0.013112
      dxy     :     0.035686
 13 H s       :     0.902370  s :     0.902370
      pz      :     0.041324  p :     0.066190
      px      :     0.013039
      py      :     0.011827
 14 H s       :     0.902370  s :     0.902370
      pz      :     0.041324  p :     0.066190
      px      :     0.013039
      py      :     0.011827
 15 H s       :     0.924586  s :     0.924586
      pz      :     0.011474  p :     0.063153
      px      :     0.031633
      py      :     0.020046
 16 H s       :     0.924586  s :     0.924586
      pz      :     0.011474  p :     0.063153
      px      :     0.031633
      py      :     0.020046
 17 H s       :     0.923062  s :     0.923062
      pz      :     0.014940  p :     0.063124
      px      :     0.029361
      py      :     0.018823
 18 H s       :     0.923062  s :     0.923062
      pz      :     0.014940  p :     0.063124
      px      :     0.029361
      py      :     0.018823


                      *****************************
                      * MAYER POPULATION ANALYSIS *
                      *****************************

  NA   - Mulliken gross atomic population
  ZA   - Total nuclear charge
  QA   - Mulliken gross atomic charge
  VA   - Mayer's total valence
  BVA  - Mayer's bonded valence
  FA   - Mayer's free valence

  ATOM       NA         ZA         QA         VA         BVA        FA
  0 C      6.1003     6.0000    -0.1003     2.7396     2.7396     0.0000
  1 N      7.3389     7.0000    -0.3389     3.2743     3.2743    -0.0000
  2 N      7.3389     7.0000    -0.3389     3.2743     3.2743    -0.0000
  3 C      5.9203     6.0000     0.0797     3.9405     3.9405     0.0000
  4 C      5.9203     6.0000     0.0797     3.9405     3.9405    -0.0000
  5 H      0.9714     1.0000     0.0286     0.9969     0.9969    -0.0000
  6 H      0.9714     1.0000     0.0286     0.9969     0.9969    -0.0000
  7 H      0.9626     1.0000     0.0374     1.0002     1.0002     0.0000
  8 H      0.9626     1.0000     0.0374     1.0002     1.0002     0.0000
  9 H      0.9624     1.0000     0.0376     0.9824     0.9824    -0.0000
 10 H      0.9624     1.0000     0.0376     0.9824     0.9824    -0.0000
 11 C      5.8830     6.0000     0.1170     3.8904     3.8904     0.0000
 12 C      5.8830     6.0000     0.1170     3.8904     3.8904     0.0000
 13 H      0.9500     1.0000     0.0500     1.0300     1.0300     0.0000
 14 H      0.9500     1.0000     0.0500     1.0300     1.0300     0.0000
 15 H      0.9810     1.0000     0.0190     0.9897     0.9897     0.0000
 16 H      0.9810     1.0000     0.0190     0.9897     0.9897     0.0000
 17 H      0.9802     1.0000     0.0198     0.9864     0.9864    -0.0000
 18 H      0.9802     1.0000     0.0198     0.9864     0.9864     0.0000

  Mayer bond orders larger than 0.100000
B(  0-C ,  1-N ) :   1.2795 B(  0-C ,  2-N ) :   1.2795 B(  1-N ,  3-C ) :   0.9409 
B(  1-N , 11-C ) :   0.9797 B(  2-N ,  4-C ) :   0.9409 B(  2-N , 12-C ) :   0.9797 
B(  3-C ,  5-H ) :   0.9705 B(  3-C ,  7-H ) :   0.9737 B(  3-C ,  9-H ) :   0.9733 
B(  4-C ,  6-H ) :   0.9705 B(  4-C ,  8-H ) :   0.9737 B(  4-C , 10-H ) :   0.9733 
B( 11-C , 13-H ) :   0.9710 B( 11-C , 15-H ) :   0.9725 B( 11-C , 17-H ) :   0.9769 
B( 12-C , 14-H ) :   0.9710 B( 12-C , 16-H ) :   0.9725 B( 12-C , 18-H ) :   0.9769 


-------
TIMINGS
-------

Total SCF time: 0 days 0 hours 0 min 32 sec 

Total time                  ....      32.381 sec
Sum of individual times     ....      32.027 sec  ( 98.9%)

Fock matrix formation       ....      30.777 sec  ( 95.0%)
  Split-RI-J                ....       1.278 sec  (  4.2% of F)
  Chain of spheres X        ....      24.816 sec  ( 80.6% of F)
  XC integration            ....       4.602 sec  ( 15.0% of F)
    Basis function eval.    ....       1.173 sec  ( 25.5% of XC)
    Density eval.           ....       0.642 sec  ( 13.9% of XC)
    XC-Functional eval.     ....       0.502 sec  ( 10.9% of XC)
    XC-Potential eval.      ....       0.662 sec  ( 14.4% of XC)
Diagonalization             ....       0.040 sec  (  0.1%)
Density matrix formation    ....       0.004 sec  (  0.0%)
Population analysis         ....       0.009 sec  (  0.0%)
Initial guess               ....       0.134 sec  (  0.4%)
Orbital Transformation      ....       0.000 sec  (  0.0%)
Orbital Orthonormalization  ....       0.000 sec  (  0.0%)
DIIS solution               ....       0.026 sec  (  0.1%)
SOSCF solution              ....       0.029 sec  (  0.1%)
Grid generation             ....       1.007 sec  (  3.1%)

Maximum memory used throughout the entire SCF-calculation: 53.0 MB


-------------------------------------------------------------------------------
                          DFT DISPERSION CORRECTION                            
                                                                               
                                 DFTD4 V2.5                                    
-------------------------------------------------------------------------------
The WB97X functional is recognized
Active option DFTDOPT                   ...         5   

Starting D4
-------------------------   ----------------
Dispersion correction           -0.002175908
-------------------------   ----------------


-------------------------   --------------------
FINAL SINGLE POINT ENERGY      -306.882189170726
-------------------------   --------------------


                            ***************************************
                            *     ORCA property calculations      *
                            ***************************************

                                    ---------------------
                                    Active property flags
                                    ---------------------
   (+) Dipole Moment


------------------------------------------------------------------------------
                       ORCA ELECTRIC PROPERTIES CALCULATION
------------------------------------------------------------------------------

Dipole Moment Calculation                       ... on
Quadrupole Moment Calculation                   ... off
Polarizability Calculation                      ... off
GBWName                                         ... DFT_water_outs/11-gasSP.gbw
Electron density                                ... DFT_water_outs/11-gasSP.scfp
The origin for moment calculation is the CENTER OF MASS  = ( 0.000000,  0.000000  0.056339)

-------------
DIPOLE MOMENT
-------------
                                X             Y             Z
Electronic contribution:     -0.00000      -0.00000       2.04217
Nuclear contribution   :      0.00000       0.00000      -3.12056
                        -----------------------------------------
Total Dipole Moment    :     -0.00000      -0.00000      -1.07839
                        -----------------------------------------
Magnitude (a.u.)       :      1.07839
Magnitude (Debye)      :      2.74106



--------------------
Rotational spectrum 
--------------------
 
Rotational constants in cm-1:     0.162517     0.056857     0.044688 
Rotational constants in MHz :  4872.137758  1704.517247  1339.715659 

 Dipole components along the rotational axes: 
x,y,z [a.u.] :     0.000000    -1.078392     0.000000 
x,y,z [Debye]:     0.000000    -2.741055     0.000000 

 

Timings for individual modules:

Sum of individual times         ...       33.314 sec (=   0.555 min)
GTO integral calculation        ...        0.549 sec (=   0.009 min)   1.6 %
SCF iterations                  ...       32.765 sec (=   0.546 min)  98.4 %
                             ****ORCA TERMINATED NORMALLY****
TOTAL RUN TIME: 0 days 0 hours 0 minutes 34 seconds 143 msec
