
                                 *****************
                                 * O   R   C   A *
                                 *****************

                                            #,                                       
                                            ###                                      
                                            ####                                     
                                            #####                                    
                                            ######                                   
                                           ########,                                 
                                     ,,################,,,,,                         
                               ,,#################################,,                 
                          ,,##########################################,,             
                       ,#########################################, ''#####,          
                    ,#############################################,,   '####,        
                  ,##################################################,,,,####,       
                ,###########''''           ''''###############################       
              ,#####''   ,,,,##########,,,,          '''####'''          '####       
            ,##' ,,,,###########################,,,                        '##       
           ' ,,###''''                  '''############,,,                           
         ,,##''                                '''############,,,,        ,,,,,,###''
      ,#''                                            '''#######################'''  
     '                                                          ''''####''''         
             ,#######,   #######,   ,#######,      ##                                
            ,#'     '#,  ##    ##  ,#'     '#,    #''#        ######   ,####,        
            ##       ##  ##   ,#'  ##            #'  '#       #        #'  '#        
            ##       ##  #######   ##           ,######,      #####,   #    #        
            '#,     ,#'  ##    ##  '#,     ,#' ,#      #,         ##   #,  ,#        
             '#######'   ##     ##  '#######'  #'      '#     #####' # '####'        



                  #######################################################
                  #                        -***-                        #
                  #          Department of theory and spectroscopy      #
                  #    Directorship and core code : Frank Neese         #
                  #        Max Planck Institute fuer Kohlenforschung    #
                  #                Kaiser Wilhelm Platz 1               #
                  #                 D-45470 Muelheim/Ruhr               #
                  #                      Germany                        #
                  #                                                     #
                  #                  All rights reserved                #
                  #                        -***-                        #
                  #######################################################


                         Program Version 5.0.4 -  RELEASE  -


 With contributions from (in alphabetic order):
   Daniel Aravena         : Magnetic Suceptibility
   Michael Atanasov       : Ab Initio Ligand Field Theory (pilot matlab implementation)
   Alexander A. Auer      : GIAO ZORA, VPT2 properties, NMR spectrum
   Ute Becker             : Parallelization
   Giovanni Bistoni       : ED, misc. LED, open-shell LED, HFLD
   Martin Brehm           : Molecular dynamics
   Dmytro Bykov           : SCF Hessian
   Vijay G. Chilkuri      : MRCI spin determinant printing, contributions to CSF-ICE
   Dipayan Datta          : RHF DLPNO-CCSD density
   Achintya Kumar Dutta   : EOM-CC, STEOM-CC
   Dmitry Ganyushin       : Spin-Orbit,Spin-Spin,Magnetic field MRCI
   Miquel Garcia          : C-PCM and meta-GGA Hessian, CC/C-PCM, Gaussian charge scheme
   Yang Guo               : DLPNO-NEVPT2, F12-NEVPT2, CIM, IAO-localization
   Andreas Hansen         : Spin unrestricted coupled pair/coupled cluster methods
   Benjamin Helmich-Paris : MC-RPA, TRAH-SCF, COSX integrals
   Lee Huntington         : MR-EOM, pCC
   Robert Izsak           : Overlap fitted RIJCOSX, COSX-SCS-MP3, EOM
   Marcus Kettner         : VPT2
   Christian Kollmar      : KDIIS, OOCD, Brueckner-CCSD(T), CCSD density, CASPT2, CASPT2-K
   Simone Kossmann        : Meta GGA functionals, TD-DFT gradient, OOMP2, MP2 Hessian
   Martin Krupicka        : Initial AUTO-CI
   Lucas Lang             : DCDCAS
   Marvin Lechner         : AUTO-CI (C++ implementation), FIC-MRCC
   Dagmar Lenk            : GEPOL surface, SMD
   Dimitrios Liakos       : Extrapolation schemes; Compound Job, initial MDCI parallelization
   Dimitrios Manganas     : Further ROCIS development; embedding schemes
   Dimitrios Pantazis     : SARC Basis sets
   Anastasios Papadopoulos: AUTO-CI, single reference methods and gradients
   Taras Petrenko         : DFT Hessian,TD-DFT gradient, ASA, ECA, R-Raman, ABS, FL, XAS/XES, NRVS
   Peter Pinski           : DLPNO-MP2, DLPNO-MP2 Gradient
   Christoph Reimann      : Effective Core Potentials
   Marius Retegan         : Local ZFS, SOC
   Christoph Riplinger    : Optimizer, TS searches, QM/MM, DLPNO-CCSD(T), (RO)-DLPNO pert. Triples
   Tobias Risthaus        : Range-separated hybrids, TD-DFT gradient, RPA, STAB
   Michael Roemelt        : Original ROCIS implementation
   Masaaki Saitow         : Open-shell DLPNO-CCSD energy and density
   Barbara Sandhoefer     : DKH picture change effects
   Avijit Sen             : IP-ROCIS
   Kantharuban Sivalingam : CASSCF convergence, NEVPT2, FIC-MRCI
   Bernardo de Souza      : ESD, SOC TD-DFT
   Georgi Stoychev        : AutoAux, RI-MP2 NMR, DLPNO-MP2 response
   Willem Van den Heuvel  : Paramagnetic NMR
   Boris Wezisla          : Elementary symmetry handling
   Frank Wennmohs         : Technical directorship


 We gratefully acknowledge several colleagues who have allowed us to
 interface, adapt or use parts of their codes:
   Stefan Grimme, W. Hujo, H. Kruse, P. Pracht,  : VdW corrections, initial TS optimization,
                  C. Bannwarth, S. Ehlert          DFT functionals, gCP, sTDA/sTD-DF
   Ed Valeev, F. Pavosevic, A. Kumar             : LibInt (2-el integral package), F12 methods
   Garnet Chan, S. Sharma, J. Yang, R. Olivares  : DMRG
   Ulf Ekstrom                                   : XCFun DFT Library
   Mihaly Kallay                                 : mrcc  (arbitrary order and MRCC methods)
   Jiri Pittner, Ondrej Demel                    : Mk-CCSD
   Frank Weinhold                                : gennbo (NPA and NBO analysis)
   Christopher J. Cramer and Donald G. Truhlar   : smd solvation model
   Lars Goerigk                                  : TD-DFT with DH, B97 family of functionals
   V. Asgeirsson, H. Jonsson                     : NEB implementation
   FAccTs GmbH                                   : IRC, NEB, NEB-TS, DLPNO-Multilevel, CI-OPT
                                                   MM, QMMM, 2- and 3-layer-ONIOM, Crystal-QMMM,
                                                   LR-CPCM, SF, NACMEs, symmetry and pop. for TD-DFT,
                                                   nearIR, NL-DFT gradient (VV10), updates on ESD,
                                                   ML-optimized integration grids
   S Lehtola, MJT Oliveira, MAL Marques          : LibXC Library
   Liviu Ungur et al                             : ANISO software


 Your calculation uses the libint2 library for the computation of 2-el integrals
 For citations please refer to: http://libint.valeyev.net

 Your ORCA version has been built with support for libXC version: 5.1.0
 For citations please refer to: https://tddft.org/programs/libxc/

 This ORCA versions uses:
   CBLAS   interface :  Fast vector & matrix operations
   LAPACKE interface :  Fast linear algebra routines
   SCALAPACK package :  Parallel linear algebra routines
   Shared memory     :  Shared parallel matrices
   BLAS/LAPACK       :  OpenBLAS 0.3.15  USE64BITINT DYNAMIC_ARCH NO_AFFINITY SkylakeX SINGLE_THREADED
        Core in use  :  SkylakeX
   Copyright (c) 2011-2014, The OpenBLAS Project




***************************************
The coordinates will be read from file: 11.xyz
***************************************


Your calculation utilizes the atom-pairwise dispersion correction
based on tight binding partial charges (D4)
Cite in your paper:
E.Caldeweyher, C.Bannwarth, S.Grimme, J.Chem.Phys., (2017), 147, 034112.
E.Caldeweyher, S.Ehlert, A.Hansen, H.Neugebauer, S.Grimme, J.Chem.Phys., (2018), in progress.
   

XCFun DFT library Copyright 2009-2010 Ulf Ekstrom and contributors.
See http://admol.org/xcfun for more information.
This is free software; see the source code for copying conditions.
There is ABSOLUTELY NO WARRANTY; not even for MERCHANTABILITY or FITNESS FOR A PARTICULAR PURPOSE.
For details see the documentation.
Scientific users of this library should cite U. Ekstrom, L. Visscher, R. Bast, A. J. Thorvaldsen and K. Ruud;
J.Chem.Theor.Comp. 2010, DOI: 10.1021/ct100117s
XCFun Version 0.99 

================================================================================

----- Orbital basis set information -----
Your calculation utilizes the basis: def2-SVP
   F. Weigend and R. Ahlrichs, Phys. Chem. Chem. Phys. 7, 3297 (2005).

----- AuxJ basis set information -----
Your calculation utilizes the auxiliary basis: def2/J
   F. Weigend, Phys. Chem. Chem. Phys. 8, 1057 (2006).

================================================================================
                                        WARNINGS
                       Please study these warnings very carefully!
================================================================================


WARNING: Geometry Optimization
  ===> : Switching off AutoStart
         For restart on a previous wavefunction, please use MOREAD

INFO   : the flag for use of the SHARK integral package has been found!

================================================================================
                                       INPUT FILE
================================================================================
NAME = 11_Water.inp
|  1> # ORCAForces - ../2023_04/pKa_prediction/extra_carbenes/Water/11_Water.inp
|  2> # Basic Mode
|  3> #
|  4> ! Opt FREQ wB97X D4 Def2-SVP SlowConv TightSCF DEFGRID2 Def2/J RIJCOSX CPCM(Water)
|  5> 
|  6> %maxcore 4500
|  7> 
|  8> %PAL NPROCS 4 END
|  9> 
| 10> %geom 
| 11> Maxiter 150
| 12> END
| 13> 
| 14> * xyzfile 0 1 11.xyz
| 15> 
| 16>                          ****END OF INPUT****
================================================================================

                       *****************************
                       * Geometry Optimization Run *
                       *****************************

Geometry optimization settings:
Update method            Update   .... BFGS
Choice of coordinates    CoordSys .... Z-matrix Internals
Initial Hessian          InHess   .... Almoef's Model

Convergence Tolerances:
Energy Change            TolE     ....  5.0000e-06 Eh
Max. Gradient            TolMAXG  ....  3.0000e-04 Eh/bohr
RMS Gradient             TolRMSG  ....  1.0000e-04 Eh/bohr
Max. Displacement        TolMAXD  ....  4.0000e-03 bohr
RMS Displacement         TolRMSD  ....  2.0000e-03 bohr
Strict Convergence                ....  False
------------------------------------------------------------------------------
                        ORCA OPTIMIZATION COORDINATE SETUP
------------------------------------------------------------------------------

The optimization will be done in new redundant internal coordinates
Making redundant internal coordinates   ...  (new redundants) done
Evaluating the initial hessian          ...  (Almloef) done
Evaluating the coordinates              ...  done
Calculating the B-matrix                .... done
Calculating the G-matrix                .... done
Diagonalizing the G-matrix              .... done
Small eigenvalue found = 1.051e-02
Small eigenvalue found = 2.817e-02
The first mode is                       ....   26
The number of degrees of freedom        ....   51

    -----------------------------------------------------------------
                    Redundant Internal Coordinates


    -----------------------------------------------------------------
         Definition                    Initial Value    Approx d2E/dq
    -----------------------------------------------------------------
      1. B(N   1,C   0)                  1.3508         0.646309   
      2. B(N   2,C   0)                  1.3508         0.646309   
      3. B(C   3,N   1)                  1.4750         0.409569   
      4. B(C   4,N   2)                  1.4750         0.409569   
      5. B(H   5,C   3)                  1.0962         0.351939   
      6. B(H   6,C   4)                  1.0962         0.351939   
      7. B(H   7,C   3)                  1.0900         0.360073   
      8. B(H   8,C   4)                  1.0900         0.360073   
      9. B(H   9,C   3)                  1.0979         0.349796   
     10. B(H  10,C   4)                  1.0979         0.349796   
     11. B(C  11,N   1)                  1.4627         0.428481   
     12. B(C  12,N   2)                  1.4627         0.428481   
     13. B(H  13,C  11)                  1.0906         0.359275   
     14. B(H  14,C  12)                  1.0906         0.359275   
     15. B(H  15,C  11)                  1.1000         0.347156   
     16. B(H  16,C  12)                  1.1000         0.347156   
     17. B(H  17,C  11)                  1.0986         0.348856   
     18. B(H  18,C  12)                  1.0986         0.348856   
     19. A(N   1,C   0,N   2)          119.7750         0.434856   
     20. A(C   3,N   1,C  11)          112.4771         0.373218   
     21. A(C   0,N   1,C   3)          129.6166         0.400929   
     22. A(C   0,N   1,C  11)          117.2056         0.404132   
     23. A(C   4,N   2,C  12)          112.4771         0.373218   
     24. A(C   0,N   2,C  12)          117.2056         0.404132   
     25. A(C   0,N   2,C   4)          129.6166         0.400929   
     26. A(H   5,C   3,H   7)          107.6934         0.289791   
     27. A(N   1,C   3,H   9)          112.6617         0.325732   
     28. A(H   5,C   3,H   9)          107.8037         0.288480   
     29. A(H   7,C   3,H   9)          109.4186         0.289514   
     30. A(N   1,C   3,H   7)          110.9477         0.327288   
     31. A(N   1,C   3,H   5)          108.1358         0.326059   
     32. A(H   6,C   4,H  10)          107.8037         0.288480   
     33. A(H   8,C   4,H  10)          109.4186         0.289514   
     34. A(N   2,C   4,H  10)          112.6617         0.325732   
     35. A(N   2,C   4,H   6)          108.1358         0.326059   
     36. A(H   6,C   4,H   8)          107.6934         0.289791   
     37. A(N   2,C   4,H   8)          110.9477         0.327288   
     38. A(H  15,C  11,H  17)          107.9994         0.287742   
     39. A(H  13,C  11,H  17)          108.9404         0.289291   
     40. A(N   1,C  11,H  17)          110.4703         0.328017   
     41. A(H  13,C  11,H  15)          109.4838         0.289070   
     42. A(N   1,C  11,H  15)          110.8558         0.327753   
     43. A(N   1,C  11,H  13)          109.0596         0.329615   
     44. A(H  14,C  12,H  18)          108.9404         0.289291   
     45. A(N   2,C  12,H  18)          110.4703         0.328017   
     46. A(H  14,C  12,H  16)          109.4838         0.289070   
     47. A(N   2,C  12,H  16)          110.8558         0.327753   
     48. A(H  16,C  12,H  18)          107.9994         0.287742   
     49. A(N   2,C  12,H  14)          109.0596         0.329615   
     50. D(C  11,N   1,C   0,N   2)    172.3819         0.030843   
     51. D(C   3,N   1,C   0,N   2)    -18.0260         0.030843   
     52. D(C   4,N   2,C   0,N   1)    -18.0260         0.030843   
     53. D(C  12,N   2,C   0,N   1)    172.3819         0.030843   
     54. D(H   5,C   3,N   1,C  11)     32.1763         0.014311   
     55. D(H   7,C   3,N   1,C   0)    -19.9167         0.014311   
     56. D(H   9,C   3,N   1,C  11)    -86.8633         0.014311   
     57. D(H   9,C   3,N   1,C   0)    103.1500         0.014311   
     58. D(H   5,C   3,N   1,C   0)   -137.8104         0.014311   
     59. D(H   7,C   3,N   1,C  11)    150.0700         0.014311   
     60. D(H   8,C   4,N   2,C  12)    150.0700         0.014311   
     61. D(H   8,C   4,N   2,C   0)    -19.9167         0.014311   
     62. D(H   6,C   4,N   2,C  12)     32.1763         0.014311   
     63. D(H  10,C   4,N   2,C   0)    103.1500         0.014311   
     64. D(H   6,C   4,N   2,C   0)   -137.8104         0.014311   
     65. D(H  10,C   4,N   2,C  12)    -86.8633         0.014311   
     66. D(H  17,C  11,N   1,C   3)     62.8106         0.015653   
     67. D(H  17,C  11,N   1,C   0)   -125.8513         0.015653   
     68. D(H  15,C  11,N   1,C   3)    -56.8709         0.015653   
     69. D(H  15,C  11,N   1,C   0)    114.4672         0.015653   
     70. D(H  13,C  11,N   1,C   3)   -177.4849         0.015653   
     71. D(H  13,C  11,N   1,C   0)     -6.1468         0.015653   
     72. D(H  18,C  12,N   2,C   4)     62.8106         0.015653   
     73. D(H  18,C  12,N   2,C   0)   -125.8513         0.015653   
     74. D(H  16,C  12,N   2,C   4)    -56.8709         0.015653   
     75. D(H  16,C  12,N   2,C   0)    114.4672         0.015653   
     76. D(H  14,C  12,N   2,C   4)   -177.4849         0.015653   
     77. D(H  14,C  12,N   2,C   0)     -6.1468         0.015653   
    -----------------------------------------------------------------

Number of atoms                         .... 19
Number of degrees of freedom            .... 77

         *************************************************************
         *                GEOMETRY OPTIMIZATION CYCLE   1            *
         *************************************************************
---------------------------------
CARTESIAN COORDINATES (ANGSTROEM)
---------------------------------
  C      0.000000    0.000000    0.823579
  N      0.000000    1.168486    0.145891
  N      0.000000   -1.168486    0.145891
  C      0.351596    1.440007   -1.260581
  C     -0.351596   -1.440007   -1.260581
  H      0.945934    2.360610   -1.292125
  H     -0.945934   -2.360610   -1.292125
  H      0.963100    0.636657   -1.671478
  H     -0.963100   -0.636657   -1.671478
  H     -0.531197    1.588420   -1.896223
  H      0.531197   -1.588420   -1.896223
  C     -0.172455    2.393830    0.925764
  C      0.172455   -2.393830    0.925764
  H     -0.385968    2.129347    1.962066
  H      0.385968   -2.129347    1.962066
  H      0.734506    3.014864    0.885014
  H     -0.734506   -3.014864    0.885014
  H     -1.008112    2.986947    0.529672
  H      1.008112   -2.986947    0.529672

----------------------------
CARTESIAN COORDINATES (A.U.)
----------------------------
  NO LB      ZA    FRAG     MASS         X           Y           Z
   0 C     6.0000    0    12.011    0.000000    0.000000    1.556339
   1 N     7.0000    0    14.007    0.000000    2.208119    0.275694
   2 N     7.0000    0    14.007    0.000000   -2.208119    0.275694
   3 C     6.0000    0    12.011    0.664420    2.721219   -2.382153
   4 C     6.0000    0    12.011   -0.664420   -2.721219   -2.382153
   5 H     1.0000    0     1.008    1.787556    4.460906   -2.441762
   6 H     1.0000    0     1.008   -1.787556   -4.460906   -2.441762
   7 H     1.0000    0     1.008    1.819995    1.203107   -3.158636
   8 H     1.0000    0     1.008   -1.819995   -1.203107   -3.158636
   9 H     1.0000    0     1.008   -1.003817    3.001679   -3.583342
  10 H     1.0000    0     1.008    1.003817   -3.001679   -3.583342
  11 C     6.0000    0    12.011   -0.325893    4.523683    1.749440
  12 C     6.0000    0    12.011    0.325893   -4.523683    1.749440
  13 H     1.0000    0     1.008   -0.729374    4.023883    3.707767
  14 H     1.0000    0     1.008    0.729374   -4.023883    3.707767
  15 H     1.0000    0     1.008    1.388015    5.697267    1.672434
  16 H     1.0000    0     1.008   -1.388015   -5.697267    1.672434
  17 H     1.0000    0     1.008   -1.905056    5.644512    1.000935
  18 H     1.0000    0     1.008    1.905056   -5.644512    1.000935

--------------------------------
INTERNAL COORDINATES (ANGSTROEM)
--------------------------------
 C      0   0   0     0.000000000000     0.00000000     0.00000000
 N      1   0   0     1.350785163355     0.00000000     0.00000000
 N      1   2   0     1.350785163355   119.77501993     0.00000000
 C      2   1   3     1.474959961301   129.61655201   341.97404409
 C      3   1   2     1.474959961301   129.61655201   341.97404409
 H      4   2   1     1.096240195299   108.13578193   222.18959052
 H      5   3   1     1.096240195299   108.13578193   222.18959052
 H      4   2   1     1.090020508580   110.94770527   340.08327914
 H      5   3   1     1.090020508580   110.94770527   340.08327914
 H      4   2   1     1.097902842506   112.66171301   103.14999501
 H      5   3   1     1.097902842506   112.66171301   103.14999501
 C      2   1   3     1.462672397186   117.20563052   172.38186683
 C      3   1   2     1.462672397186   117.20563052   172.38186683
 H     12   2   1     1.090624084486   109.05957273   353.85322500
 H     13   3   1     1.090624084486   109.05957273   353.85322500
 H     12   2   1     1.099964566328   110.85575218   114.46723432
 H     13   3   1     1.099964566328   110.85575218   114.46723432
 H     12   2   1     1.098635185037   110.47033834   234.14869053
 H     13   3   1     1.098635185037   110.47033834   234.14869053

---------------------------
INTERNAL COORDINATES (A.U.)
---------------------------
 C      0   0   0     0.000000000000     0.00000000     0.00000000
 N      1   0   0     2.552614024505     0.00000000     0.00000000
 N      1   2   0     2.552614024505   119.77501993     0.00000000
 C      2   1   3     2.787270385358   129.61655201   341.97404409
 C      3   1   2     2.787270385358   129.61655201   341.97404409
 H      4   2   1     2.071593746111   108.13578193   222.18959052
 H      5   3   1     2.071593746111   108.13578193   222.18959052
 H      4   2   1     2.059840241574   110.94770527   340.08327914
 H      5   3   1     2.059840241574   110.94770527   340.08327914
 H      4   2   1     2.074735693989   112.66171301   103.14999501
 H      5   3   1     2.074735693989   112.66171301   103.14999501
 C      2   1   3     2.764050254328   117.20563052   172.38186683
 C      3   1   2     2.764050254328   117.20563052   172.38186683
 H     12   2   1     2.060980834738   109.05957273   353.85322500
 H     13   3   1     2.060980834738   109.05957273   353.85322500
 H     12   2   1     2.078631787377   110.85575218   114.46723432
 H     13   3   1     2.078631787377   110.85575218   114.46723432
 H     12   2   1     2.076119620810   110.47033834   234.14869053
 H     13   3   1     2.076119620810   110.47033834   234.14869053

---------------------
BASIS SET INFORMATION
---------------------
There are 3 groups of distinct atoms

 Group   1 Type C   : 7s4p1d contracted to 3s2p1d pattern {511/31/1}
 Group   2 Type N   : 7s4p1d contracted to 3s2p1d pattern {511/31/1}
 Group   3 Type H   : 4s1p contracted to 2s1p pattern {31/1}

Atom   0C    basis set group =>   1
Atom   1N    basis set group =>   2
Atom   2N    basis set group =>   2
Atom   3C    basis set group =>   1
Atom   4C    basis set group =>   1
Atom   5H    basis set group =>   3
Atom   6H    basis set group =>   3
Atom   7H    basis set group =>   3
Atom   8H    basis set group =>   3
Atom   9H    basis set group =>   3
Atom  10H    basis set group =>   3
Atom  11C    basis set group =>   1
Atom  12C    basis set group =>   1
Atom  13H    basis set group =>   3
Atom  14H    basis set group =>   3
Atom  15H    basis set group =>   3
Atom  16H    basis set group =>   3
Atom  17H    basis set group =>   3
Atom  18H    basis set group =>   3
---------------------------------
AUXILIARY/J BASIS SET INFORMATION
---------------------------------
There are 3 groups of distinct atoms

 Group   1 Type C   : 12s5p4d2f1g contracted to 6s4p3d1f1g pattern {711111/2111/211/2/1}
 Group   2 Type N   : 12s5p4d2f1g contracted to 6s4p3d1f1g pattern {711111/2111/211/2/1}
 Group   3 Type H   : 5s2p1d contracted to 3s1p1d pattern {311/2/1}

Atom   0C    basis set group =>   1
Atom   1N    basis set group =>   2
Atom   2N    basis set group =>   2
Atom   3C    basis set group =>   1
Atom   4C    basis set group =>   1
Atom   5H    basis set group =>   3
Atom   6H    basis set group =>   3
Atom   7H    basis set group =>   3
Atom   8H    basis set group =>   3
Atom   9H    basis set group =>   3
Atom  10H    basis set group =>   3
Atom  11C    basis set group =>   1
Atom  12C    basis set group =>   1
Atom  13H    basis set group =>   3
Atom  14H    basis set group =>   3
Atom  15H    basis set group =>   3
Atom  16H    basis set group =>   3
Atom  17H    basis set group =>   3
Atom  18H    basis set group =>   3


           ************************************************************
           *        Program running with 4 parallel MPI-processes     *
           *              working on a common directory               *
           ************************************************************
------------------------------------------------------------------------------
                           ORCA GTO INTEGRAL CALCULATION
                           -- RI-GTO INTEGRALS CHOSEN --
------------------------------------------------------------------------------
------------------------------------------------------------------------------
                   ___                                                        
                  /   \      - P O W E R E D   B Y -                         
                 /     \                                                     
                 |  |  |   _    _      __       _____    __    __             
                 |  |  |  | |  | |    /  \     |  _  \  |  |  /  |          
                  \  \/   | |  | |   /    \    | | | |  |  | /  /          
                 / \  \   | |__| |  /  /\  \   | |_| |  |  |/  /          
                |  |  |   |  __  | /  /__\  \  |    /   |      \           
                |  |  |   | |  | | |   __   |  |    \   |  |\   \          
                \     /   | |  | | |  |  |  |  | |\  \  |  | \   \       
                 \___/    |_|  |_| |__|  |__|  |_| \__\ |__|  \__/        
                                                                              
                      - O R C A' S   B I G   F R I E N D -                    
                                      &                                       
                       - I N T E G R A L  F E E D E R -                       
                                                                              
 v1 FN, 2020, v2 2021                                                         
------------------------------------------------------------------------------


Reading SHARK input file 11_Water.SHARKINP.tmp ... ok
----------------------
SHARK INTEGRAL PACKAGE
----------------------

Number of atoms                             ...     19
Number of basis functions                   ...    158
Number of shells                            ...     78
Maximum angular momentum                    ...      2
Integral batch strategy                     ... SHARK/LIBINT Hybrid
RI-J (if used) integral strategy            ... SPLIT-RIJ (Revised 2003 algorithm where possible)
Printlevel                                  ...      1
Contraction scheme used                     ... SEGMENTED contraction
Coulomb Range Separation                    ... NOT USED
Exchange Range Separation                   ... Long Range
   Mu parameter                             ...  0.300000
   Scaling (regular/separated)              ...  0.157706  0.842294
Finite Nucleus Model                        ... NOT USED
Auxiliary Coulomb fitting basis             ... AVAILABLE
   # of basis functions in Aux-J            ...    475
   # of shells in Aux-J                     ...    165
   Maximum angular momentum in Aux-J        ...      4
Auxiliary J/K fitting basis                 ... NOT available
Auxiliary Correlation fitting basis         ... NOT available
Auxiliary 'external' fitting basis          ... NOT available
Integral threshold                          ...     2.500000e-11
Primitive cut-off                           ...     2.500000e-12
Primitive pair pre-selection threshold      ...     2.500000e-12

Calculating pre-screening integrals         ... done (  0.0 sec) Dimension = 78
Organizing shell pair data                  ... done (  0.0 sec)
Shell pair information
Total number of shell pairs                 ...      3081
Shell pairs after pre-screening             ...      2901
Total number of primitive shell pairs       ...     10567
Primitive shell pairs kept                  ...      7430
          la=0 lb=0:    992 shell pairs
          la=1 lb=0:   1090 shell pairs
          la=1 lb=1:    322 shell pairs
          la=2 lb=0:    301 shell pairs
          la=2 lb=1:    168 shell pairs
          la=2 lb=2:     28 shell pairs

Calculating one electron integrals          ... done (  0.0 sec)
Calculating RI/J V-Matrix + Cholesky decomp.... done (  0.0 sec)
Calculating Nuclear repulsion               ... done (  0.0 sec) ENN=    319.466573833909 Eh

SHARK setup successfully completed in   0.4 seconds

Maximum memory used throughout the entire GTOINT-calculation: 11.5 MB


           ************************************************************
           *        Program running with 4 parallel MPI-processes     *
           *              working on a common directory               *
           ************************************************************
-------------------------------------------------------------------------------
                                 ORCA SCF
-------------------------------------------------------------------------------

------------
SCF SETTINGS
------------
Hamiltonian:
 Density Functional     Method          .... DFT(GTOs)
 Exchange Functional    Exchange        .... WB97X
 Correlation Functional Correlation     .... WB97X
 Gradients option       PostSCFGGA      .... off
 Hybrid DFT is turned on
   Fraction HF Exchange ScalHFX         ....  0.157706
   Scaling of DF-GGA-X  ScalDFX         ....  0.000000
   Scaling of DF-GGA-C  ScalDFC         ....  1.000000
   Scaling of DF-LDA-C  ScalLDAC        ....  1.000000
   Perturbative correction              ....  0.000000
   Density functional embedding theory  .... OFF
 Long-range corrected/Screened/Range-Separated Hybrid DFT is turned on
   Amount of maximum screened exact exchange              ....  0.842294
   Range separation parameter mu (erf(mu*r12)/r12)        ....  0.300000
 RI-approximation to the Coulomb term is turned on
   Number of AuxJ basis functions       .... 475
   RIJ-COSX (HFX calculated with COS-X)).... on


General Settings:
 Integral files         IntName         .... 11_Water
 Hartree-Fock type      HFTyp           .... RHF
 Total Charge           Charge          ....    0
 Multiplicity           Mult            ....    1
 Number of Electrons    NEL             ....   56
 Basis Dimension        Dim             ....  158
 Nuclear Repulsion      ENuc            ....    319.4665738339 Eh

Convergence Acceleration:
 DIIS                   CNVDIIS         .... on
   Start iteration      DIISMaxIt       ....     0
   Startup error        DIISStart       ....  0.200000
   # of expansion vecs  DIISMaxEq       ....     5
   Bias factor          DIISBfac        ....   1.050
   Max. coefficient     DIISMaxC        ....  10.000
 Trust-Rad. Augm. Hess. CNVTRAH         .... auto
   Auto Start mean grad. ratio tolernc. ....  1.125000
   Auto Start start iteration           ....    20
   Auto Start num. interpolation iter.  ....    10
   Max. Number of Micro iterations      ....    16
   Max. Number of Macro iterations      .... Maxiter - #DIIS iter
   Number of Davidson start vectors     ....     2
   Converg. threshold I  (grad. norm)   ....   1.000e-05
   Converg. threshold II (energy diff.) ....   1.000e-08
   Grad. Scal. Fac. for Micro threshold ....   0.100
   Minimum threshold for Micro iter.    ....   0.010
   NR start threshold (gradient norm)   ....   0.001
   Initial trust radius                 ....   0.400
   Minimum AH scaling param. (alpha)    ....   1.000
   Maximum AH scaling param. (alpha)    .... 1000.000
   Orbital update algorithm             .... Taylor
   White noise on init. David. guess    .... on
   Maximum white noise                  ....   0.010
   Quad. conv. algorithm                .... NR
 SOSCF                  CNVSOSCF        .... on
   Start iteration      SOSCFMaxIt      ....   150
   Startup grad/error   SOSCFStart      ....  0.001000
 Level Shifting         CNVShift        .... on
   Level shift para.    LevelShift      ....    0.2500
   Turn off err/grad.   ShiftErr        ....    0.0000
 Zerner damping         CNVZerner       .... off
 Static damping         CNVDamp         .... on
   Fraction old density DampFac         ....    0.8500
   Max. Damping (<1)    DampMax         ....    0.9800
   Min. Damping (>=0)   DampMin         ....    0.0000
   Turn off err/grad.   DampErr         ....    0.0300
 Fernandez-Rico         CNVRico         .... off

SCF Procedure:
 Maximum # iterations   MaxIter         ....   125
 SCF integral mode      SCFMode         .... Direct
   Integral package                     .... SHARK and LIBINT hybrid scheme
 Reset frequency        DirectResetFreq ....    20
 Integral Threshold     Thresh          ....  2.500e-11 Eh
 Primitive CutOff       TCut            ....  2.500e-12 Eh

Convergence Tolerance:
 Convergence Check Mode ConvCheckMode   .... Total+1el-Energy
 Convergence forced     ConvForced      .... 0
 Energy Change          TolE            ....  1.000e-08 Eh
 1-El. energy change                    ....  1.000e-05 Eh
 Orbital Gradient       TolG            ....  1.000e-05
 Orbital Rotation angle TolX            ....  1.000e-05
 DIIS Error             TolErr          ....  5.000e-07


Diagonalization of the overlap matrix:
Smallest eigenvalue                        ... 5.476e-03
Time for diagonalization                   ...    0.005 sec
Threshold for overlap eigenvalues          ... 1.000e-08
Number of eigenvalues below threshold      ... 0
Time for construction of square roots      ...    0.003 sec
Total time needed                          ...    0.068 sec

Time for model grid setup =    0.357 sec

------------------------------
INITIAL GUESS: MODEL POTENTIAL
------------------------------
Loading Hartree-Fock densities                     ... done
Calculating cut-offs                               ... done
Initializing the effective Hamiltonian             ... done
Setting up the integral package (SHARK)            ... done
Starting the Coulomb interaction                   ... done (   0.0 sec)
Reading the grid                                   ... done
Mapping shells                                     ... done
Starting the XC term evaluation                    ... done (   0.1 sec)
  promolecular density results
     # of electrons  =     55.989090832
     EX              =    -42.159593569
     EC              =     -1.828219512
     EX+EC           =    -43.987813081
Transforming the Hamiltonian                       ... done (   0.0 sec)
Diagonalizing the Hamiltonian                      ... done (   0.0 sec)
Back transforming the eigenvectors                 ... done (   0.0 sec)
Now organizing SCF variables                       ... done
                      ------------------
                      INITIAL GUESS DONE (   0.5 sec)
                      ------------------
-------------------
DFT GRID GENERATION
-------------------

General Integration Accuracy     IntAcc      ... 4.388
Radial Grid Type                 RadialGrid  ... OptM3 with GC (2021)
Angular Grid (max. ang.)         AngularGrid ... 4 (Lebedev-302)
Angular grid pruning method      GridPruning ... 4 (adaptive)
Weight generation scheme         WeightScheme... Becke
Basis function cutoff            BFCut       ... 1.0000e-11
Integration weight cutoff        WCut        ... 1.0000e-14
Angular grids for H and He will be reduced by one unit
Partially contracted basis set               ... off
Rotationally invariant grid construction     ... off

Total number of grid points                  ...    80736
Total number of batches                      ...     1268
Average number of points per batch           ...       63
Average number of grid points per atom       ...     4249
Time for grid setup =    0.471 sec

--------------------
COSX GRID GENERATION
--------------------

GRIDX 1
-------
General Integration Accuracy     IntAcc      ... 3.816
Radial Grid Type                 RadialGrid  ... OptM3 with GC (2021)
Angular Grid (max. ang.)         AngularGrid ... 1 (Lebedev-50)
Angular grid pruning method      GridPruning ... 4 (adaptive)
Weight generation scheme         WeightScheme... Becke
Basis function cutoff            BFCut       ... 1.0000e-11
Integration weight cutoff        WCut        ... 1.0000e-14
Angular grids for H and He will be reduced by one unit
Partially contracted basis set               ... on
Rotationally invariant grid construction     ... off

Total number of grid points                  ...    10394
Total number of batches                      ...      174
Average number of points per batch           ...       59
Average number of grid points per atom       ...      547
UseSFitting                                  ... on

GRIDX 2
-------
General Integration Accuracy     IntAcc      ... 4.020
Radial Grid Type                 RadialGrid  ... OptM3 with GC (2021)
Angular Grid (max. ang.)         AngularGrid ... 2 (Lebedev-110)
Angular grid pruning method      GridPruning ... 4 (adaptive)
Weight generation scheme         WeightScheme... Becke
Basis function cutoff            BFCut       ... 1.0000e-11
Integration weight cutoff        WCut        ... 1.0000e-14
Angular grids for H and He will be reduced by one unit
Partially contracted basis set               ... on
Rotationally invariant grid construction     ... off

Total number of grid points                  ...    21676
Total number of batches                      ...      346
Average number of points per batch           ...       62
Average number of grid points per atom       ...     1141
UseSFitting                                  ... on

GRIDX 3
-------
General Integration Accuracy     IntAcc      ... 4.338
Radial Grid Type                 RadialGrid  ... OptM3 with GC (2021)
Angular Grid (max. ang.)         AngularGrid ... 3 (Lebedev-194)
Angular grid pruning method      GridPruning ... 4 (adaptive)
Weight generation scheme         WeightScheme... Becke
Basis function cutoff            BFCut       ... 1.0000e-11
Integration weight cutoff        WCut        ... 1.0000e-14
Angular grids for H and He will be reduced by one unit
Partially contracted basis set               ... on
Rotationally invariant grid construction     ... off

Total number of grid points                  ...    47369
Total number of batches                      ...      752
Average number of points per batch           ...       62
Average number of grid points per atom       ...     2493
UseSFitting                                  ... on

Time for X-Grid setup             =    0.484 sec


--------------------
CPCM SOLVATION MODEL
--------------------
CPCM parameters:
  Epsilon                                         ...      80.4000
  Refrac                                          ...       1.3300
  Rsolv                                           ...       1.3000
  Surface type                                    ... GAUSSIAN VDW
  Epsilon function type                           ...         CPCM
Radii:
 Radius for C  used is    3.8550 Bohr (=   2.0400 Ang.)
 Radius for N  used is    3.5149 Bohr (=   1.8600 Ang.)
 Radius for H  used is    2.4944 Bohr (=   1.3200 Ang.)
Calculating surface                               ...        done! (  0.0s)
GEPOL surface points                              ...         1051
GEPOL Volume                                      ...    1005.1665
GEPOL Surface-area                                ...     584.8602
Calculating surface distance matrix               ...        done! (  0.0s)
Performing Cholesky decomposition & store         ...        done! (  0.0s)
Overall time for CPCM initialization              ...                 0.1s
--------------
SCF ITERATIONS
--------------
ITER       Energy         Delta-E        Max-DP      RMS-DP      [F,P]     Damp
               ***  Starting incremental Fock matrix formation  ***
  0   -306.7403224752   0.000000000000 0.03835249  0.00083362  0.1272498 0.8500
  1   -306.7703932774  -0.030070802209 0.04135207  0.00081283  0.1037538 0.8500
                               ***Turning on DIIS***
  2   -306.7935980778  -0.023204800389 0.03634466  0.00067411  0.0808588 0.8500
  3   -306.8110551637  -0.017457085937 0.02912813  0.00048408  0.0623106 0.8500
  4   -306.8246324844  -0.013577320722 0.02365198  0.00036882  0.0500371 0.8500
  5   -306.8353858403  -0.010753355897 0.01973039  0.00030113  0.0415496 0.8500
  6   -306.8441516155  -0.008765775171 0.01673503  0.00025387  0.0350408 0.8500
  7   -306.8514173869  -0.007265771382 0.09603562  0.00146140  0.0297366 0.0000
  8   -306.8903545752  -0.038937188289 0.00216112  0.00006495  0.0014555 0.0000
                      *** Initiating the SOSCF procedure ***
                           *** Shutting down DIIS ***
                      *** Re-Reading the Fockian *** 
                      *** Removing any level shift *** 
ITER      Energy       Delta-E        Grad      Rot      Max-DP    RMS-DP
  9   -306.89037610  -0.0000215293  0.000412  0.000412  0.001085  0.000036
               *** Restarting incremental Fock matrix formation ***
 10   -306.89037360   0.0000025012  0.000392  0.000730  0.001487  0.000025
 11   -306.89037488  -0.0000012769  0.000099  0.000229  0.000460  0.000015
 12   -306.89037529  -0.0000004061  0.000025  0.000034  0.000223  0.000003
 13   -306.89037530  -0.0000000170  0.000005  0.000008  0.000027  0.000001
                  ***Gradient check signals convergence***
              ***Rediagonalizing the Fockian in SOSCF/NRSCF***

               *****************************************************
               *                     SUCCESS                       *
               *           SCF CONVERGED AFTER  14 CYCLES          *
               *****************************************************

Old exchange energy                            =    -14.188734440 Eh
New exchange energy                            =    -14.188771597 Eh
Exchange energy change after final integration =     -0.000037158 Eh
Total energy after final integration           =   -306.890412466 Eh
Final COS-X integration done in                =     5.534 sec

----------------
TOTAL SCF ENERGY
----------------

Total Energy       :         -306.89041247 Eh           -8350.91268 eV

Components:
Nuclear Repulsion  :          319.46657383 Eh            8693.12742 eV
Electronic Energy  :         -626.35698630 Eh          -17044.04010 eV
One Electron Energy:        -1046.23082713 Eh          -28469.38816 eV
Two Electron Energy:          419.87384083 Eh           11425.34806 eV
Max COSX asymmetry :            0.00000143 Eh               0.00004 eV
CPCM Dielectric    :           -0.01390413 Eh              -0.37835 eV

Virial components:
Potential Energy   :         -610.03599473 Eh          -16599.92334 eV
Kinetic Energy     :          303.14558226 Eh            8249.01067 eV
Virial Ratio       :            2.01235324


DFT components:
N(Alpha)           :       28.000030145268 electrons
N(Beta)            :       28.000030145268 electrons
N(Total)           :       56.000060290536 electrons
E(XC)              :      -31.082855665672 Eh       
DFET-embed. en.    :        0.000000000000 Eh       
CPCM Solvation Model Properties:
Surface-charge          :           -0.02256303
Charge-correction       :           -0.00054404 Eh              -0.01480 eV
Free-energy (cav+disp)  :  This term is not implemented in the current solvation scheme

---------------
SCF CONVERGENCE
---------------

  Last Energy change         ...   -4.6782e-09  Tolerance :   1.0000e-08
  Last MAX-Density change    ...    3.9968e-15  Tolerance :   1.0000e-07
  Last RMS-Density change    ...    5.0723e-17  Tolerance :   5.0000e-09
  Last Orbital Gradient      ...    1.7538e-06  Tolerance :   1.0000e-05
  Last Orbital Rotation      ...    2.7490e-06  Tolerance :   1.0000e-05

             **** THE GBW FILE WAS UPDATED (11_Water.gbw) ****
             **** DENSITY 11_Water.scfp WAS UPDATED ****
             **** ENERGY FILE WAS UPDATED (11_Water.en.tmp) ****
             **** THE GBW FILE WAS UPDATED (11_Water.gbw) ****
             **** DENSITY 11_Water.scfp WAS UPDATED ****
----------------
ORBITAL ENERGIES
----------------

  NO   OCC          E(Eh)            E(eV) 
   0   2.0000     -14.423882      -392.4938 
   1   2.0000     -14.423875      -392.4936 
   2   2.0000     -10.292238      -280.0660 
   3   2.0000     -10.292214      -280.0654 
   4   2.0000     -10.286431      -279.9080 
   5   2.0000     -10.286402      -279.9072 
   6   2.0000     -10.281042      -279.7614 
   7   2.0000      -1.078709       -29.3532 
   8   2.0000      -1.024519       -27.8786 
   9   2.0000      -0.839782       -22.8516 
  10   2.0000      -0.832793       -22.6615 
  11   2.0000      -0.820485       -22.3265 
  12   2.0000      -0.751653       -20.4535 
  13   2.0000      -0.653612       -17.7857 
  14   2.0000      -0.605326       -16.4718 
  15   2.0000      -0.581783       -15.8311 
  16   2.0000      -0.579037       -15.7564 
  17   2.0000      -0.558921       -15.2090 
  18   2.0000      -0.535374       -14.5683 
  19   2.0000      -0.522735       -14.2243 
  20   2.0000      -0.503751       -13.7078 
  21   2.0000      -0.493064       -13.4170 
  22   2.0000      -0.482020       -13.1164 
  23   2.0000      -0.477467       -12.9925 
  24   2.0000      -0.456524       -12.4227 
  25   2.0000      -0.410163       -11.1611 
  26   2.0000      -0.326665        -8.8890 
  27   2.0000      -0.282920        -7.6986 
  28   0.0000       0.126225         3.4348 
  29   0.0000       0.150751         4.1021 
  30   0.0000       0.171514         4.6671 
  31   0.0000       0.198900         5.4123 
  32   0.0000       0.199312         5.4236 
  33   0.0000       0.215555         5.8655 
  34   0.0000       0.224112         6.0984 
  35   0.0000       0.234647         6.3851 
  36   0.0000       0.237356         6.4588 
  37   0.0000       0.241004         6.5581 
  38   0.0000       0.247615         6.7379 
  39   0.0000       0.264441         7.1958 
  40   0.0000       0.264660         7.2018 
  41   0.0000       0.270279         7.3547 
  42   0.0000       0.298561         8.1243 
  43   0.0000       0.327007         8.8983 
  44   0.0000       0.340454         9.2642 
  45   0.0000       0.410825        11.1791 
  46   0.0000       0.460294        12.5252 
  47   0.0000       0.486645        13.2423 
  48   0.0000       0.501836        13.6557 
  49   0.0000       0.536006        14.5855 
  50   0.0000       0.541763        14.7421 
  51   0.0000       0.562611        15.3094 
  52   0.0000       0.568283        15.4638 
  53   0.0000       0.597356        16.2549 
  54   0.0000       0.619192        16.8491 
  55   0.0000       0.657089        17.8803 
  56   0.0000       0.670361        18.2414 
  57   0.0000       0.710920        19.3451 
  58   0.0000       0.720296        19.6003 
  59   0.0000       0.723936        19.6993 
  60   0.0000       0.724455        19.7134 
  61   0.0000       0.739296        20.1173 
  62   0.0000       0.740453        20.1487 
  63   0.0000       0.767996        20.8982 
  64   0.0000       0.768330        20.9073 
  65   0.0000       0.779250        21.2045 
  66   0.0000       0.779573        21.2133 
  67   0.0000       0.789497        21.4833 
  68   0.0000       0.792877        21.5753 
  69   0.0000       0.797149        21.6915 
  70   0.0000       0.807566        21.9750 
  71   0.0000       0.812212        22.1014 
  72   0.0000       0.832708        22.6591 
  73   0.0000       0.842063        22.9137 
  74   0.0000       0.845624        23.0106 
  75   0.0000       0.891214        24.2512 
  76   0.0000       0.894886        24.3511 
  77   0.0000       0.917415        24.9641 
  78   0.0000       0.975943        26.5567 
  79   0.0000       1.011770        27.5316 
  80   0.0000       1.085956        29.5504 
  81   0.0000       1.096358        29.8334 
  82   0.0000       1.183110        32.1941 
  83   0.0000       1.210406        32.9368 
  84   0.0000       1.239954        33.7409 
  85   0.0000       1.274483        34.6805 
  86   0.0000       1.303243        35.4630 
  87   0.0000       1.336261        36.3615 
  88   0.0000       1.398542        38.0563 
  89   0.0000       1.399127        38.0722 
  90   0.0000       1.473969        40.1087 
  91   0.0000       1.497643        40.7529 
  92   0.0000       1.601617        43.5822 
  93   0.0000       1.643039        44.7094 
  94   0.0000       1.647889        44.8414 
  95   0.0000       1.650119        44.9020 
  96   0.0000       1.652787        44.9746 
  97   0.0000       1.676963        45.6325 
  98   0.0000       1.682055        45.7710 
  99   0.0000       1.723418        46.8966 
 100   0.0000       1.742847        47.4253 
 101   0.0000       1.793440        48.8020 
 102   0.0000       1.810392        49.2633 
 103   0.0000       1.862849        50.6907 
 104   0.0000       1.883247        51.2458 
 105   0.0000       1.884201        51.2717 
 106   0.0000       1.889528        51.4167 
 107   0.0000       1.911955        52.0269 
 108   0.0000       1.917121        52.1675 
 109   0.0000       1.931333        52.5542 
 110   0.0000       1.942162        52.8489 
 111   0.0000       1.944416        52.9102 
 112   0.0000       1.961931        53.3868 
 113   0.0000       2.004001        54.5316 
 114   0.0000       2.012662        54.7673 
 115   0.0000       2.044329        55.6290 
 116   0.0000       2.086304        56.7712 
 117   0.0000       2.097526        57.0766 
 118   0.0000       2.115775        57.5732 
 119   0.0000       2.151209        58.5374 
 120   0.0000       2.161508        58.8176 
 121   0.0000       2.161816        58.8260 
 122   0.0000       2.215967        60.2995 
 123   0.0000       2.224207        60.5238 
 124   0.0000       2.299260        62.5660 
 125   0.0000       2.303294        62.6758 
 126   0.0000       2.356811        64.1321 
 127   0.0000       2.394292        65.1520 
 128   0.0000       2.410785        65.6008 
 129   0.0000       2.420080        65.8537 
 130   0.0000       2.436217        66.2928 
 131   0.0000       2.477948        67.4284 
 132   0.0000       2.529158        68.8219 
 133   0.0000       2.554881        69.5218 
 134   0.0000       2.573118        70.0181 
 135   0.0000       2.604049        70.8598 
 136   0.0000       2.735060        74.4248 
 137   0.0000       2.741052        74.5878 
 138   0.0000       2.749451        74.8164 
 139   0.0000       2.764850        75.2354 
 140   0.0000       2.767352        75.3035 
 141   0.0000       2.799136        76.1684 
 142   0.0000       2.847706        77.4900 
 143   0.0000       2.904669        79.0401 
 144   0.0000       2.919828        79.4526 
 145   0.0000       2.989125        81.3382 
 146   0.0000       3.024563        82.3025 
 147   0.0000       3.028169        82.4007 
 148   0.0000       3.034231        82.5656 
 149   0.0000       3.042305        82.7853 
 150   0.0000       3.056417        83.1693 
 151   0.0000       3.071253        83.5731 
 152   0.0000       3.128660        85.1352 
 153   0.0000       3.130881        85.1956 
 154   0.0000       3.196596        86.9838 
 155   0.0000       3.227769        87.8321 
 156   0.0000       3.379029        91.9480 
 157   0.0000       3.514356        95.6305 

                    ********************************
                    * MULLIKEN POPULATION ANALYSIS *
                    ********************************

-----------------------
MULLIKEN ATOMIC CHARGES
-----------------------
   0 C :   -0.192013
   1 N :   -0.338752
   2 N :   -0.338752
   3 C :    0.070458
   4 C :    0.070458
   5 H :    0.043459
   6 H :    0.043459
   7 H :    0.051286
   8 H :    0.051286
   9 H :    0.056813
  10 H :    0.056812
  11 C :    0.109981
  12 C :    0.109981
  13 H :    0.028033
  14 H :    0.028033
  15 H :    0.036539
  16 H :    0.036539
  17 H :    0.038189
  18 H :    0.038189
Sum of atomic charges:   -0.0000000

--------------------------------
MULLIKEN REDUCED ORBITAL CHARGES
--------------------------------
  0 C s       :     3.552265  s :     3.552265
      pz      :     1.265030  p :     2.572310
      px      :     0.613762
      py      :     0.693518
      dz2     :     0.005871  d :     0.067438
      dxz     :     0.006847
      dyz     :     0.024813
      dx2y2   :     0.010501
      dxy     :     0.019406
  1 N s       :     3.418016  s :     3.418016
      pz      :     1.141083  p :     3.892491
      px      :     1.610719
      py      :     1.140689
      dz2     :     0.007450  d :     0.028246
      dxz     :     0.003343
      dyz     :     0.009652
      dx2y2   :     0.004001
      dxy     :     0.003800
  2 N s       :     3.418016  s :     3.418016
      pz      :     1.141083  p :     3.892491
      px      :     1.610719
      py      :     1.140689
      dz2     :     0.007450  d :     0.028246
      dxz     :     0.003343
      dyz     :     0.009652
      dx2y2   :     0.004001
      dxy     :     0.003800
  3 C s       :     3.002799  s :     3.002799
      pz      :     0.821063  p :     2.888355
      px      :     1.024959
      py      :     1.042334
      dz2     :     0.011994  d :     0.038387
      dxz     :     0.011638
      dyz     :     0.005125
      dx2y2   :     0.002719
      dxy     :     0.006911
  4 C s       :     3.002799  s :     3.002799
      pz      :     0.821063  p :     2.888355
      px      :     1.024958
      py      :     1.042334
      dz2     :     0.011994  d :     0.038387
      dxz     :     0.011638
      dyz     :     0.005125
      dx2y2   :     0.002719
      dxy     :     0.006911
  5 H s       :     0.933128  s :     0.933128
      pz      :     0.002824  p :     0.023413
      px      :     0.008148
      py      :     0.012441
  6 H s       :     0.933128  s :     0.933128
      pz      :     0.002824  p :     0.023413
      px      :     0.008149
      py      :     0.012441
  7 H s       :     0.924691  s :     0.924691
      pz      :     0.004616  p :     0.024023
      px      :     0.008426
      py      :     0.010981
  8 H s       :     0.924691  s :     0.924691
      pz      :     0.004616  p :     0.024023
      px      :     0.008426
      py      :     0.010981
  9 H s       :     0.920022  s :     0.920022
      pz      :     0.006636  p :     0.023166
      px      :     0.011486
      py      :     0.005044
 10 H s       :     0.920022  s :     0.920022
      pz      :     0.006636  p :     0.023166
      px      :     0.011486
      py      :     0.005044
 11 C s       :     2.993132  s :     2.993132
      pz      :     0.973703  p :     2.857157
      px      :     1.027438
      py      :     0.856016
      dz2     :     0.007691  d :     0.039730
      dxz     :     0.003340
      dyz     :     0.009626
      dx2y2   :     0.005795
      dxy     :     0.013277
 12 C s       :     2.993132  s :     2.993132
      pz      :     0.973703  p :     2.857157
      px      :     1.027438
      py      :     0.856016
      dz2     :     0.007691  d :     0.039730
      dxz     :     0.003340
      dyz     :     0.009626
      dx2y2   :     0.005795
      dxy     :     0.013277
 13 H s       :     0.948646  s :     0.948646
      pz      :     0.014099  p :     0.023321
      px      :     0.005146
      py      :     0.004076
 14 H s       :     0.948646  s :     0.948646
      pz      :     0.014099  p :     0.023321
      px      :     0.005146
      py      :     0.004076
 15 H s       :     0.940522  s :     0.940522
      pz      :     0.004079  p :     0.022939
      px      :     0.012008
      py      :     0.006852
 16 H s       :     0.940522  s :     0.940522
      pz      :     0.004079  p :     0.022939
      px      :     0.012008
      py      :     0.006852
 17 H s       :     0.938884  s :     0.938884
      pz      :     0.005310  p :     0.022927
      px      :     0.011153
      py      :     0.006464
 18 H s       :     0.938884  s :     0.938884
      pz      :     0.005310  p :     0.022927
      px      :     0.011153
      py      :     0.006464


                     *******************************
                     * LOEWDIN POPULATION ANALYSIS *
                     *******************************

----------------------
LOEWDIN ATOMIC CHARGES
----------------------
   0 C :   -0.264223
   1 N :   -0.063748
   2 N :   -0.063748
   3 C :    0.019732
   4 C :    0.019732
   5 H :    0.029824
   6 H :    0.029824
   7 H :    0.031319
   8 H :    0.031319
   9 H :    0.026350
  10 H :    0.026350
  11 C :    0.026734
  12 C :    0.026734
  13 H :    0.020187
  14 H :    0.020187
  15 H :    0.019694
  16 H :    0.019694
  17 H :    0.022021
  18 H :    0.022021

-------------------------------
LOEWDIN REDUCED ORBITAL CHARGES
-------------------------------
  0 C s       :     3.156462  s :     3.156462
      pz      :     1.426598  p :     2.954861
      px      :     0.659867
      py      :     0.868396
      dz2     :     0.012894  d :     0.152900
      dxz     :     0.009588
      dyz     :     0.056320
      dx2y2   :     0.032033
      dxy     :     0.042066
  1 N s       :     3.076682  s :     3.076682
      pz      :     1.183844  p :     3.922027
      px      :     1.542381
      py      :     1.195803
      dz2     :     0.017445  d :     0.065040
      dxz     :     0.005975
      dyz     :     0.026128
      dx2y2   :     0.008799
      dxy     :     0.006692
  2 N s       :     3.076682  s :     3.076682
      pz      :     1.183844  p :     3.922027
      px      :     1.542381
      py      :     1.195803
      dz2     :     0.017445  d :     0.065040
      dxz     :     0.005975
      dyz     :     0.026128
      dx2y2   :     0.008799
      dxy     :     0.006692
  3 C s       :     2.834686  s :     2.834686
      pz      :     0.904497  p :     3.050491
      px      :     1.070646
      py      :     1.075349
      dz2     :     0.029292  d :     0.095091
      dxz     :     0.028666
      dyz     :     0.011988
      dx2y2   :     0.006793
      dxy     :     0.018352
  4 C s       :     2.834686  s :     2.834686
      pz      :     0.904497  p :     3.050491
      px      :     1.070646
      py      :     1.075349
      dz2     :     0.029292  d :     0.095091
      dxz     :     0.028666
      dyz     :     0.011988
      dx2y2   :     0.006793
      dxy     :     0.018352
  5 H s       :     0.904816  s :     0.904816
      pz      :     0.009471  p :     0.065360
      px      :     0.022065
      py      :     0.033824
  6 H s       :     0.904816  s :     0.904816
      pz      :     0.009471  p :     0.065360
      px      :     0.022065
      py      :     0.033824
  7 H s       :     0.901529  s :     0.901529
      pz      :     0.014860  p :     0.067152
      px      :     0.022880
      py      :     0.029411
  8 H s       :     0.901529  s :     0.901529
      pz      :     0.014860  p :     0.067152
      px      :     0.022880
      py      :     0.029411
  9 H s       :     0.907832  s :     0.907832
      pz      :     0.021188  p :     0.065819
      px      :     0.031274
      py      :     0.013356
 10 H s       :     0.907832  s :     0.907832
      pz      :     0.021188  p :     0.065819
      px      :     0.031274
      py      :     0.013356
 11 C s       :     2.837914  s :     2.837914
      pz      :     1.024797  p :     3.037693
      px      :     1.073933
      py      :     0.938962
      dz2     :     0.019777  d :     0.097659
      dxz     :     0.007316
      dyz     :     0.023167
      dx2y2   :     0.013094
      dxy     :     0.034305
 12 C s       :     2.837914  s :     2.837914
      pz      :     1.024797  p :     3.037693
      px      :     1.073933
      py      :     0.938962
      dz2     :     0.019777  d :     0.097659
      dxz     :     0.007316
      dyz     :     0.023167
      dx2y2   :     0.013094
      dxy     :     0.034305
 13 H s       :     0.913107  s :     0.913107
      pz      :     0.040885  p :     0.066706
      px      :     0.013797
      py      :     0.012024
 14 H s       :     0.913107  s :     0.913107
      pz      :     0.040885  p :     0.066706
      px      :     0.013797
      py      :     0.012024
 15 H s       :     0.915906  s :     0.915906
      pz      :     0.011370  p :     0.064400
      px      :     0.032416
      py      :     0.020614
 16 H s       :     0.915906  s :     0.915906
      pz      :     0.011370  p :     0.064400
      px      :     0.032416
      py      :     0.020614
 17 H s       :     0.913553  s :     0.913553
      pz      :     0.015045  p :     0.064426
      px      :     0.030009
      py      :     0.019371
 18 H s       :     0.913553  s :     0.913553
      pz      :     0.015045  p :     0.064426
      px      :     0.030009
      py      :     0.019371


                      *****************************
                      * MAYER POPULATION ANALYSIS *
                      *****************************

  NA   - Mulliken gross atomic population
  ZA   - Total nuclear charge
  QA   - Mulliken gross atomic charge
  VA   - Mayer's total valence
  BVA  - Mayer's bonded valence
  FA   - Mayer's free valence

  ATOM       NA         ZA         QA         VA         BVA        FA
  0 C      6.1920     6.0000    -0.1920     2.7836     2.7836     0.0000
  1 N      7.3388     7.0000    -0.3388     3.2732     3.2732    -0.0000
  2 N      7.3388     7.0000    -0.3388     3.2732     3.2732     0.0000
  3 C      5.9295     6.0000     0.0705     3.9264     3.9264    -0.0000
  4 C      5.9295     6.0000     0.0705     3.9264     3.9264    -0.0000
  5 H      0.9565     1.0000     0.0435     0.9969     0.9969     0.0000
  6 H      0.9565     1.0000     0.0435     0.9969     0.9969     0.0000
  7 H      0.9487     1.0000     0.0513     1.0012     1.0012     0.0000
  8 H      0.9487     1.0000     0.0513     1.0012     1.0012    -0.0000
  9 H      0.9432     1.0000     0.0568     0.9852     0.9852     0.0000
 10 H      0.9432     1.0000     0.0568     0.9852     0.9852     0.0000
 11 C      5.8900     6.0000     0.1100     3.8868     3.8868    -0.0000
 12 C      5.8900     6.0000     0.1100     3.8868     3.8868    -0.0000
 13 H      0.9720     1.0000     0.0280     1.0341     1.0341    -0.0000
 14 H      0.9720     1.0000     0.0280     1.0341     1.0341    -0.0000
 15 H      0.9635     1.0000     0.0365     0.9912     0.9912     0.0000
 16 H      0.9635     1.0000     0.0365     0.9912     0.9912    -0.0000
 17 H      0.9618     1.0000     0.0382     0.9888     0.9888     0.0000
 18 H      0.9618     1.0000     0.0382     0.9888     0.9888     0.0000

  Mayer bond orders larger than 0.100000
B(  0-C ,  1-N ) :   1.2969 B(  0-C ,  2-N ) :   1.2969 B(  1-N ,  3-C ) :   0.9276 
B(  1-N , 11-C ) :   0.9716 B(  2-N ,  4-C ) :   0.9276 B(  2-N , 12-C ) :   0.9716 
B(  3-C ,  5-H ) :   0.9712 B(  3-C ,  7-H ) :   0.9744 B(  3-C ,  9-H ) :   0.9745 
B(  4-C ,  6-H ) :   0.9712 B(  4-C ,  8-H ) :   0.9744 B(  4-C , 10-H ) :   0.9745 
B( 11-C , 13-H ) :   0.9704 B( 11-C , 15-H ) :   0.9741 B( 11-C , 17-H ) :   0.9774 
B( 12-C , 14-H ) :   0.9704 B( 12-C , 16-H ) :   0.9741 B( 12-C , 18-H ) :   0.9774 


-------
TIMINGS
-------

Total SCF time: 0 days 0 hours 0 min 42 sec 

Total time                  ....      42.838 sec
Sum of individual times     ....      42.212 sec  ( 98.5%)

Fock matrix formation       ....      40.535 sec  ( 94.6%)
  Split-RI-J                ....       1.897 sec  (  4.7% of F)
  Chain of spheres X        ....      29.511 sec  ( 72.8% of F)
  XC integration            ....       5.117 sec  ( 12.6% of F)
    Basis function eval.    ....       1.550 sec  ( 30.3% of XC)
    Density eval.           ....       0.903 sec  ( 17.6% of XC)
    XC-Functional eval.     ....       0.677 sec  ( 13.2% of XC)
    XC-Potential eval.      ....       0.931 sec  ( 18.2% of XC)
Diagonalization             ....       0.066 sec  (  0.2%)
Density matrix formation    ....       0.005 sec  (  0.0%)
Population analysis         ....       0.085 sec  (  0.2%)
Initial guess               ....       0.137 sec  (  0.3%)
Orbital Transformation      ....       0.000 sec  (  0.0%)
Orbital Orthonormalization  ....       0.000 sec  (  0.0%)
DIIS solution               ....       0.046 sec  (  0.1%)
SOSCF solution              ....       0.027 sec  (  0.1%)
Grid generation             ....       1.312 sec  (  3.1%)

Maximum memory used throughout the entire SCF-calculation: 53.2 MB


-------------------------------------------------------------------------------
                          DFT DISPERSION CORRECTION                            
                                                                               
                                 DFTD4 V2.5                                    
-------------------------------------------------------------------------------
The WB97X functional is recognized
Active option DFTDOPT                   ...         5   

Starting D4
-------------------------   ----------------
Dispersion correction           -0.002167680
-------------------------   ----------------


-------------------------   --------------------
FINAL SINGLE POINT ENERGY      -306.892580145988
-------------------------   --------------------



           ************************************************************
           *        Program running with 4 parallel MPI-processes     *
           *              working on a common directory               *
           ************************************************************
------------------------------------------------------------------------------
                         ORCA SCF GRADIENT CALCULATION
------------------------------------------------------------------------------

 ... reading COSX grid (gridx3)
Gradient of the Kohn-Sham DFT energy:
Kohn-Sham wavefunction type      ... RKS
Hartree-Fock exchange scaling    ...    0.158
Number of operators              ...    1
Number of atoms                  ...   19
Basis set dimensions             ...  158
Integral neglect threshold       ... 2.5e-11
Integral primitive cutoff        ... 2.5e-12
SHARK Integral package           ... ON

Nuc. rep. gradient       (SHARK) ... done (  0.0 sec)
HCore & Overlap gradient (SHARK) ... done (  0.1 sec)
RI-J gradient            (SHARK) ... done (  0.6 sec)
COSX-gradient                    ... done (  6.0 sec)
Exchange-correlation gradient    ... done
Dispersion correction            ... Starting D4
Starting D4
Starting D4
Starting D4


------------------- 
Dispersion Gradient 
------------------- 
   1  :   -0.000000000    0.000000000    0.000009851
   2  :   -0.000000205    0.000018538   -0.000000207
   3  :    0.000000205   -0.000018538   -0.000000207
   4  :    0.000007812    0.000025610   -0.000032463
   5  :   -0.000007812   -0.000025610   -0.000032463
   6  :    0.000000135    0.000005905   -0.000000873
   7  :   -0.000000135   -0.000005905   -0.000000873
   8  :   -0.000000872    0.000006581    0.000000489
   9  :    0.000000872   -0.000006581    0.000000489
  10  :    0.000002033    0.000006683   -0.000000719
  11  :   -0.000002033   -0.000006683   -0.000000719
  12  :   -0.000003029    0.000046286    0.000019099
  13  :    0.000003029   -0.000046286    0.000019099
  14  :   -0.000000336    0.000009229    0.000002701
  15  :    0.000000336   -0.000009229    0.000002701
  16  :   -0.000001428    0.000006612    0.000003266
  17  :    0.000001428   -0.000006612    0.000003266
  18  :    0.000000636    0.000007004    0.000003782
  19  :   -0.000000636   -0.000007004    0.000003782

  |G| =    0.000083910

done

------------------
CARTESIAN GRADIENT
------------------

   1   C   :   -0.000000009    0.000000027    0.004037178
   2   N   :   -0.000745953   -0.000628174    0.001948805
   3   N   :    0.000745923    0.000628138    0.001948799
   4   C   :    0.003735835    0.002080340   -0.010359831
   5   C   :   -0.003735826   -0.002080318   -0.010359756
   6   H   :   -0.001716326   -0.002474899    0.000000127
   7   H   :    0.001716330    0.002474889    0.000000153
   8   H   :   -0.002106800    0.003066641    0.001411625
   9   H   :    0.002106791   -0.003066643    0.001411628
  10   H   :    0.002439729   -0.000175250    0.001971429
  11   H   :   -0.002439725    0.000175251    0.001971413
  12   C   :   -0.001609810    0.006803157    0.005802167
  13   C   :    0.001609825   -0.006803123    0.005802106
  14   H   :    0.000639711    0.001016967   -0.003488326
  15   H   :   -0.000639702   -0.001016972   -0.003488339
  16   H   :   -0.002251608   -0.001857554   -0.000117004
  17   H   :    0.002251607    0.001857542   -0.000117000
  18   H   :    0.002238546   -0.001778245    0.000902943
  19   H   :   -0.002238539    0.001778246    0.000902929

Difference to translation invariance:
           :   -0.0000000018    0.0000000219    0.0001810451

Difference to rotation invariance:
           :    0.0000001021    0.0000001975   -0.0003689232

Norm of the cartesian gradient     ...    0.0239565045
RMS gradient                       ...    0.0031731165
MAX gradient                       ...    0.0103598314

-------
TIMINGS
-------

Total SCF gradient time            ...        8.921 sec

One electron gradient       ....       0.066 sec  (  0.7%)
RI-J Coulomb gradient       ....       0.623 sec  (  7.0%)
COSX gradient               ....       6.013 sec  ( 67.4%)
XC gradient                 ....       1.485 sec  ( 16.7%)
CPCM gradient               ....       0.226 sec  (  2.5%)
   A-Matrix (El+Nuc)        ....       0.054 sec  (  0.6%)
   Potential                ....       0.172 sec  (  1.9%)

Maximum memory used throughout the entire SCFGRAD-calculation: 41.2 MB
------------------------------------------------------------------------------
                         ORCA GEOMETRY RELAXATION STEP
------------------------------------------------------------------------------

Reading the OPT-File                    .... done
Getting information on internals        .... done
Copying old internal coords+grads       .... done
Making the new internal coordinates     .... (new redundants).... done
Validating the new internal coordinates .... (new redundants).... done
Calculating the B-matrix                .... done
Calculating the G,G- and P matrices     .... done
Transforming gradient to internals      .... done
Projecting the internal gradient        .... done
Number of atoms                         ....  19
Number of internal coordinates          ....  77
Current Energy                          ....  -306.892580146 Eh
Current gradient norm                   ....     0.023956505 Eh/bohr
Maximum allowed component of the step   ....  0.300
Current trust radius                    ....  0.300
Evaluating the initial hessian          ....  (Almloef) done
Projecting the Hessian                  .... done
Forming the augmented Hessian           .... done
Diagonalizing the augmented Hessian     .... done
Last element of RFO vector              ....  0.996674448
Lowest eigenvalues of augmented Hessian:
 -0.001190323  0.014310689  0.014310701  0.015652906  0.015653086
Length of the computed step             ....  0.081758359
The final length of the internal step   ....  0.081758359
Converting the step to cartesian space:
 Initial RMS(Int)=    0.0093172298
Transforming coordinates:
 Iter   0:  RMS(Cart)=    0.0559087581 RMS(Int)=    0.0093707495
 Iter   1:  RMS(Cart)=    0.0008479089 RMS(Int)=    0.0004120348
 Iter   2:  RMS(Cart)=    0.0000237001 RMS(Int)=    0.0000060480
 Iter   3:  RMS(Cart)=    0.0000007041 RMS(Int)=    0.0000003770
 Iter   4:  RMS(Cart)=    0.0000000210 RMS(Int)=    0.0000000077
done
Storing new coordinates                 .... done

                                .--------------------.
          ----------------------|Geometry convergence|-------------------------
          Item                value                   Tolerance       Converged
          ---------------------------------------------------------------------
          RMS gradient        0.0024200780            0.0001000000      NO
          MAX gradient        0.0077069751            0.0003000000      NO
          RMS step            0.0093172298            0.0020000000      NO
          MAX step            0.0331710689            0.0040000000      NO
          ........................................................
          Max(Bonds)      0.0099      Max(Angles)    0.90
          Max(Dihed)        1.90      Max(Improp)    0.00
          ---------------------------------------------------------------------

The optimization has not yet converged - more geometry cycles are needed


    ---------------------------------------------------------------------------
                         Redundant Internal Coordinates
                            (Angstroem and degrees)

        Definition                    Value    dE/dq     Step     New-Value
    ----------------------------------------------------------------------------
     1. B(N   1,C   0)                1.3508  0.006248 -0.0051    1.3457   
     2. B(N   2,C   0)                1.3508  0.006248 -0.0051    1.3457   
     3. B(C   3,N   1)                1.4750  0.007707 -0.0099    1.4650   
     4. B(C   4,N   2)                1.4750  0.007707 -0.0099    1.4650   
     5. B(H   5,C   3)                1.0962 -0.003010  0.0045    1.1008   
     6. B(H   6,C   4)                1.0962 -0.003010  0.0045    1.1008   
     7. B(H   7,C   3)                1.0900 -0.003973  0.0058    1.0958   
     8. B(H   8,C   4)                1.0900 -0.003973  0.0058    1.0958   
     9. B(H   9,C   3)                1.0979 -0.003119  0.0047    1.1026   
    10. B(H  10,C   4)                1.0979 -0.003119  0.0047    1.1026   
    11. B(C  11,N   1)                1.4627  0.005255 -0.0065    1.4562   
    12. B(C  12,N   2)                1.4627  0.005255 -0.0065    1.4562   
    13. B(H  13,C  11)                1.0906 -0.003694  0.0054    1.0960   
    14. B(H  14,C  12)                1.0906 -0.003694  0.0054    1.0960   
    15. B(H  15,C  11)                1.1000 -0.002905  0.0044    1.1044   
    16. B(H  16,C  12)                1.1000 -0.002905  0.0044    1.1044   
    17. B(H  17,C  11)                1.0986 -0.002981  0.0045    1.1031   
    18. B(H  18,C  12)                1.0986 -0.002981  0.0045    1.1031   
    19. A(N   1,C   0,N   2)          119.78  0.006845   -0.90    118.88   
    20. A(C   3,N   1,C  11)          112.48 -0.001075    0.17    112.65   
    21. A(C   0,N   1,C   3)          129.62  0.002207   -0.32    129.30   
    22. A(C   0,N   1,C  11)          117.21 -0.001137    0.17    117.37   
    23. A(C   4,N   2,C  12)          112.48 -0.001075    0.17    112.65   
    24. A(C   0,N   2,C  12)          117.21 -0.001137    0.17    117.37   
    25. A(C   0,N   2,C   4)          129.62  0.002207   -0.32    129.30   
    26. A(H   5,C   3,H   7)          107.69 -0.000120    0.01    107.71   
    27. A(N   1,C   3,H   9)          112.66 -0.000267    0.05    112.71   
    28. A(H   5,C   3,H   9)          107.80 -0.000121    0.07    107.87   
    29. A(H   7,C   3,H   9)          109.42  0.000116   -0.05    109.37   
    30. A(N   1,C   3,H   7)          110.95  0.000331   -0.08    110.87   
    31. A(N   1,C   3,H   5)          108.14  0.000051    0.01    108.14   
    32. A(H   6,C   4,H  10)          107.80 -0.000121    0.07    107.87   
    33. A(H   8,C   4,H  10)          109.42  0.000116   -0.05    109.37   
    34. A(N   2,C   4,H  10)          112.66 -0.000267    0.05    112.71   
    35. A(N   2,C   4,H   6)          108.14  0.000051    0.01    108.14   
    36. A(H   6,C   4,H   8)          107.69 -0.000120    0.01    107.71   
    37. A(N   2,C   4,H   8)          110.95  0.000331   -0.08    110.87   
    38. A(H  15,C  11,H  17)          108.00  0.000284   -0.03    107.97   
    39. A(H  13,C  11,H  17)          108.94  0.000045   -0.02    108.92   
    40. A(N   1,C  11,H  17)          110.47 -0.000353    0.07    110.54   
    41. A(H  13,C  11,H  15)          109.48  0.000158   -0.05    109.44   
    42. A(N   1,C  11,H  15)          110.86 -0.000489    0.09    110.95   
    43. A(N   1,C  11,H  13)          109.06  0.000362   -0.07    108.99   
    44. A(H  14,C  12,H  18)          108.94  0.000045   -0.02    108.92   
    45. A(N   2,C  12,H  18)          110.47 -0.000353    0.07    110.54   
    46. A(H  14,C  12,H  16)          109.48  0.000158   -0.05    109.44   
    47. A(N   2,C  12,H  16)          110.86 -0.000489    0.09    110.95   
    48. A(H  16,C  12,H  18)          108.00  0.000284   -0.03    107.97   
    49. A(N   2,C  12,H  14)          109.06  0.000362   -0.07    108.99   
    50. D(C  11,N   1,C   0,N   2)    172.38 -0.000924    1.74    174.12   
    51. D(C   3,N   1,C   0,N   2)    -18.03 -0.001109    1.90    -16.13   
    52. D(C   4,N   2,C   0,N   1)    -18.03 -0.001109    1.90    -16.13   
    53. D(C  12,N   2,C   0,N   1)    172.38 -0.000924    1.74    174.12   
    54. D(H   5,C   3,N   1,C  11)     32.18 -0.000215    0.11     32.29   
    55. D(H   7,C   3,N   1,C   0)    -19.92  0.000062   -0.07    -19.99   
    56. D(H   9,C   3,N   1,C  11)    -86.86  0.000064   -0.00    -86.87   
    57. D(H   9,C   3,N   1,C   0)    103.15  0.000266   -0.16    102.99   
    58. D(H   5,C   3,N   1,C   0)   -137.81 -0.000013   -0.05   -137.86   
    59. D(H   7,C   3,N   1,C  11)    150.07 -0.000140    0.09    150.16   
    60. D(H   8,C   4,N   2,C  12)    150.07 -0.000140    0.09    150.16   
    61. D(H   8,C   4,N   2,C   0)    -19.92  0.000062   -0.07    -19.99   
    62. D(H   6,C   4,N   2,C  12)     32.18 -0.000215    0.11     32.29   
    63. D(H  10,C   4,N   2,C   0)    103.15  0.000266   -0.16    102.99   
    64. D(H   6,C   4,N   2,C   0)   -137.81 -0.000013   -0.05   -137.86   
    65. D(H  10,C   4,N   2,C  12)    -86.86  0.000064   -0.00    -86.87   
    66. D(H  17,C  11,N   1,C   3)     62.81 -0.000198    0.04     62.85   
    67. D(H  17,C  11,N   1,C   0)   -125.85 -0.000005    0.13   -125.72   
    68. D(H  15,C  11,N   1,C   3)    -56.87 -0.000007   -0.03    -56.90   
    69. D(H  15,C  11,N   1,C   0)    114.47  0.000186    0.06    114.52   
    70. D(H  13,C  11,N   1,C   3)   -177.48 -0.000132    0.02   -177.46   
    71. D(H  13,C  11,N   1,C   0)     -6.15  0.000061    0.11     -6.04   
[...]
     51       0.184084  -0.142496  -0.119647   0.322016   0.319176   0.018554
     52       0.250688  -0.240979  -0.273854  -0.216717  -0.215722  -0.013052
     53       0.015520  -0.040507  -0.167423   0.150269   0.148508   0.008046
     54      -0.184085   0.142496  -0.119647   0.322068  -0.319124   0.018552
     55      -0.250689   0.240979  -0.273854  -0.216752   0.215687  -0.013050
     56       0.015518  -0.040507   0.167423  -0.150293   0.148483  -0.008045
                 48         49         50         51         52         53    
      0      -0.000000  -0.000003   0.000615  -0.000000  -0.000537  -0.000070
      1       0.000000  -0.000001   0.000232  -0.000000  -0.000221   0.000994
      2       0.000909   0.000155   0.000001  -0.000306   0.000000   0.000000
      3       0.000520  -0.000400  -0.000409   0.000395   0.000379   0.000075
      4       0.000425   0.000127   0.000229   0.000121   0.000074   0.000578
      5      -0.000545  -0.000098  -0.000093  -0.000099  -0.000241  -0.000355
      6      -0.000520   0.000404  -0.000406  -0.000395   0.000379   0.000075
      7      -0.000425  -0.000129   0.000228  -0.000121   0.000074   0.000577
      8      -0.000545  -0.000099   0.000092  -0.000099   0.000241   0.000355
      9      -0.006267   0.005453   0.004411  -0.057019  -0.054299   0.001347
     10       0.017418   0.002932   0.002531  -0.029048  -0.033637  -0.000628
     11      -0.033496   0.001186   0.001065  -0.016833  -0.017734   0.000344
     12       0.006267  -0.005490   0.004364   0.057016  -0.054302   0.001347
     13      -0.017419  -0.002954   0.002505   0.029047  -0.033639  -0.000631
     14      -0.033497   0.001195  -0.001055  -0.016832   0.017734  -0.000342
     15      -0.210163  -0.030133  -0.025413   0.284390   0.294935  -0.002149
     16      -0.324838  -0.048937  -0.041323   0.464668   0.478944  -0.002920
     17       0.007656   0.002697   0.002526  -0.013102  -0.013734   0.001145
     18       0.210170   0.030349  -0.025153  -0.284375   0.294951  -0.002137
     19       0.324849   0.049289  -0.040901  -0.464643   0.478969  -0.002902
     20       0.007656   0.002719  -0.002503  -0.013102   0.013735  -0.001143
     21      -0.141523  -0.006259  -0.004044   0.039526   0.010384  -0.007447
     22       0.181364   0.008589   0.005425  -0.069205  -0.026927   0.009316
     23       0.085383   0.004530   0.002911  -0.033850  -0.014486   0.004417
     24       0.141529   0.006293  -0.003991  -0.039526   0.010387  -0.007467
     25      -0.181371  -0.008635   0.005351   0.069204  -0.026931   0.009343
     26       0.085386   0.004554  -0.002872  -0.033850   0.014488  -0.004430
     27       0.426274  -0.028704  -0.024349   0.346669   0.336000  -0.008770
     28      -0.054304   0.004353   0.003685  -0.054262  -0.052992   0.001139
     29       0.305758  -0.022634  -0.019468   0.251404   0.242637  -0.006319
     30      -0.426289   0.028911  -0.024101  -0.346650   0.336018  -0.008768
     31       0.054306  -0.004384   0.003647   0.054259  -0.052995   0.001139
     32       0.305768  -0.022799   0.019273   0.251391  -0.242650   0.006318
     33      -0.000231   0.064775   0.065431   0.006692   0.005745   0.010891
     34       0.005738  -0.002731  -0.002882   0.000061   0.000306   0.026687
     35       0.000940   0.012146   0.012219   0.000237   0.000001  -0.058660
     36       0.000231  -0.065333   0.064874  -0.006692   0.005745   0.010875
     37      -0.005738   0.002756  -0.002859  -0.000061   0.000306   0.026646
     38       0.000940   0.012251  -0.012114   0.000237  -0.000001   0.058571
     39       0.006131   0.001268   0.001119  -0.000745  -0.000723  -0.131405
     40       0.007143  -0.008908  -0.009167  -0.002227  -0.002286  -0.161866
     41      -0.032265   0.033877   0.035070   0.012160   0.011737   0.632741
     42      -0.006130  -0.001277   0.001108   0.000745  -0.000723  -0.131206
     43      -0.007143   0.008986  -0.009090   0.002227  -0.002286  -0.161620
     44      -0.032265   0.034176  -0.034778   0.012159  -0.011737  -0.631781
     45      -0.057746  -0.365562  -0.368187  -0.037314  -0.032551  -0.129495
     46      -0.039983  -0.251401  -0.253111  -0.024028  -0.020782  -0.082788
     47       0.001240   0.022973   0.023242   0.004131   0.003749   0.003308
     48       0.057746   0.368702  -0.365042   0.037311  -0.032552  -0.129297
     49       0.039983   0.253560  -0.250949   0.024027  -0.020782  -0.082662
     50       0.001240   0.023172  -0.023045   0.004131  -0.003750  -0.003303
     51       0.050493  -0.404394  -0.409325  -0.039271  -0.031553   0.132811
     52      -0.035583   0.290612   0.294116   0.027172   0.021501  -0.087356
     53       0.022314  -0.199860  -0.202197  -0.019792  -0.016021   0.058790
     54      -0.050494   0.407886  -0.405846   0.039268  -0.031554   0.132608
     55       0.035583  -0.293120   0.291616  -0.027170   0.021501  -0.087223
     56       0.022314  -0.201585   0.200477  -0.019790   0.016022  -0.058700
                 54         55         56    
      0       0.000000  -0.000178  -0.000000
      1      -0.000001  -0.000130  -0.000000
      2       0.000020  -0.000000   0.000515
      3       0.000057  -0.000318   0.000415
      4       0.000715   0.000079   0.000120
      5      -0.000008   0.000437  -0.000434
      6      -0.000057  -0.000318  -0.000415
      7      -0.000716   0.000079  -0.000120
      8      -0.000008  -0.000437  -0.000434
      9      -0.000356   0.035629  -0.031552
     10       0.002027  -0.054405   0.055448
     11       0.000896  -0.010630   0.013078
     12       0.000354   0.035626   0.031555
     13      -0.002026  -0.054399  -0.055453
     14       0.000896   0.010628   0.013079
     15      -0.007462   0.098712  -0.116077
     16      -0.010825   0.145045  -0.175147
     17       0.001654  -0.003934   0.002535
     18       0.007464   0.098700   0.116087
     19       0.010828   0.145027   0.175161
     20       0.001656   0.003934   0.002536
     21       0.010832  -0.366440   0.368964
     22      -0.015169   0.489387  -0.491529
     23      -0.007281   0.234696  -0.234324
     24      -0.010816  -0.366404  -0.368999
     25       0.015149   0.489340   0.491577
     26      -0.007271  -0.234674  -0.234347
     27      -0.001816  -0.153349   0.107947
     28       0.000363   0.010691  -0.009036
     29      -0.000892  -0.110523   0.081701
     30       0.001831  -0.153338  -0.107962
     31      -0.000365   0.010691   0.009037
     32      -0.000903   0.110515   0.081712
     33       0.010922  -0.000333  -0.000459
     34       0.026706  -0.000325  -0.001084
     35      -0.058547   0.001196   0.001721
     36      -0.010939  -0.000333   0.000459
     37      -0.026746  -0.000325   0.001083
     38      -0.058636  -0.001197   0.001721
     39      -0.131158   0.002848   0.003724
     40      -0.161400   0.003184   0.005005
     41       0.631318  -0.012372  -0.019939
     42       0.131357   0.002850  -0.003723
     43       0.161646   0.003187  -0.005003
     44       0.632279   0.012383  -0.019932
     45      -0.129991   0.004292   0.004031
     46      -0.083117   0.003077   0.002338
     47       0.003357   0.000379  -0.000758
     48       0.130187   0.004294  -0.004029
     49       0.083243   0.003078  -0.002337
     50       0.003362  -0.000379  -0.000758
     51       0.132889  -0.001159  -0.004530
     52      -0.087444   0.000437   0.003229
     53       0.058794   0.000191  -0.002597
     54      -0.133091  -0.001161   0.004529
     55       0.087576   0.000439  -0.003228
     56       0.058883  -0.000190  -0.002596


-----------
IR SPECTRUM
-----------

 Mode   freq       eps      Int      T**2         TX        TY        TZ
       cm**-1   L/(mol*cm) km/mol    a.u.
----------------------------------------------------------------------------
  6:     65.08   0.000021    0.10  0.000099  (-0.000000  0.000000  0.009956)
  7:    152.21   0.001680    8.49  0.003444  ( 0.058464  0.005131  0.000000)
  8:    171.00   0.000002    0.01  0.000004  ( 0.000001  0.000000 -0.002109)
  9:    185.55   0.000070    0.35  0.000118  (-0.000000 -0.000000 -0.010842)
 10:    197.95   0.000867    4.38  0.001367  ( 0.033100  0.016489  0.000000)
 11:    240.07   0.002800   14.15  0.003639  ( 0.057276 -0.018941 -0.000000)
 12:    284.76   0.000831    4.20  0.000911  ( 0.000000  0.000000 -0.030176)
 13:    325.24   0.000018    0.09  0.000017  (-0.000000  0.000000  0.004131)
 14:    356.03   0.003699   18.70  0.003243  (-0.029833  0.048503 -0.000000)
 15:    433.16   0.000022    0.11  0.000016  ( 0.000000  0.000001  0.003956)
 16:    439.15   0.003662   18.51  0.002602  (-0.014713 -0.048844  0.000000)
 17:    504.17   0.000798    4.03  0.000494  ( 0.005628 -0.021495  0.000000)
 18:    622.83   0.000545    2.76  0.000273  ( 0.000000  0.000000  0.016530)
 19:    892.11   0.002810   14.20  0.000983  ( 0.000000  0.000000 -0.031353)
 20:    917.67   0.008312   42.01  0.002827  (-0.004467 -0.052978 -0.000000)
 21:   1066.32   0.001245    6.29  0.000364  (-0.000000  0.000000  0.019089)
 22:   1069.90   0.001290    6.52  0.000376  (-0.001889  0.019307 -0.000000)
 23:   1095.63   0.000719    3.63  0.000205  (-0.000000  0.000000  0.014309)
 24:   1109.93   0.000402    2.03  0.000113  ( 0.010540 -0.001433 -0.000000)
 25:   1112.45   0.000739    3.73  0.000207  ( 0.000000 -0.000000  0.014398)
 26:   1156.43   0.016578   83.78  0.004474  ( 0.011456  0.065896 -0.000000)
 27:   1161.17   0.000253    1.28  0.000068  (-0.000000  0.000002  0.008238)
 28:   1165.38   0.014982   75.71  0.004012  (-0.010782  0.062415 -0.000000)
 29:   1267.96   0.000401    2.03  0.000099  (-0.003444  0.009315  0.000000)
 30:   1334.37   0.006946   35.10  0.001624  ( 0.000000 -0.000000  0.040304)
 31:   1409.48   0.031993  161.68  0.007083  ( 0.008728  0.083709 -0.000000)
 32:   1417.17   0.000043    0.22  0.000009  ( 0.000000 -0.000004  0.003081)
 33:   1417.85   0.012963   65.51  0.002853  (-0.004298  0.053241  0.000000)
 34:   1418.73   0.000026    0.13  0.000006  (-0.000000  0.000003 -0.002381)
 35:   1445.27   0.000642    3.25  0.000139  ( 0.000000 -0.000000 -0.011778)
 36:   1448.69   0.000276    1.40  0.000059  ( 0.004978  0.005891 -0.000000)
 37:   1457.43   0.000534    2.70  0.000114  ( 0.000010 -0.000004 -0.010696)
 38:   1457.60   0.007688   38.85  0.001646  ( 0.036973 -0.016699  0.000003)
 39:   1464.93   0.008283   41.86  0.001764  (-0.010997 -0.040541 -0.000000)
 40:   1467.24   0.001981   10.01  0.000421  (-0.000000 -0.000000  0.020524)
 41:   1476.73   0.004207   21.26  0.000889  (-0.029331  0.005358 -0.000000)
 42:   1480.83   0.003054   15.43  0.000643  ( 0.000000  0.000000 -0.025367)
 43:   1508.92   0.001774    8.96  0.000367  (-0.000000 -0.000000  0.019154)
 44:   1591.58   0.113892  575.56  0.022331  (-0.010342 -0.149077 -0.000000)
 45:   3037.64   0.036592  184.92  0.003759  ( 0.004303  0.061161 -0.000001)
 46:   3039.76   0.002529   12.78  0.000260  ( 0.000000  0.000005  0.016114)
 47:   3058.06   0.008140   41.13  0.000831  (-0.001426  0.028785 -0.000001)
 48:   3062.53   0.013856   70.02  0.001412  ( 0.000000 -0.000000 -0.037575)
 49:   3118.94   0.000628    3.17  0.000063  (-0.000196 -0.000003  0.007926)
 50:   3119.00   0.021010  106.18  0.002102  ( 0.045842  0.000787  0.000034)
 51:   3143.67   0.000615    3.11  0.000061  (-0.000001 -0.000000 -0.007816)
 52:   3146.26   0.009046   45.71  0.000897  (-0.025232 -0.016142  0.000000)
 53:   3209.21   0.001127    5.70  0.000110  ( 0.004990  0.009204 -0.000013)
 54:   3209.28   0.003035   15.34  0.000295  (-0.000004 -0.000007 -0.017180)
 55:   3212.23   0.004471   22.59  0.000434  ( 0.013644 -0.015755 -0.000000)
 56:   3214.24   0.000296    1.50  0.000029  ( 0.000001 -0.000001  0.005360)

* The epsilon (eps) is given for a Dirac delta lineshape.
** The dipole moment derivative (T) already includes vibrational overlap.

The first frequency considered to be a vibration is 6
The total number of vibrations considered is 51


--------------------------
THERMOCHEMISTRY AT 298.15K
--------------------------

Temperature         ... 298.15 K
Pressure            ... 1.00 atm
Total Mass          ... 100.16 AMU

Throughout the following assumptions are being made:
  (1) The electronic state is orbitally nondegenerate
  (2) There are no thermally accessible electronically excited states
  (3) Hindered rotations indicated by low frequency modes are not
      treated as such but are treated as vibrations and this may
      cause some error
  (4) All equations used are the standard statistical mechanics
      equations for an ideal gas
  (5) All vibrations are strictly harmonic

freq.      65.08  E(vib)   ...       0.50 
freq.     152.21  E(vib)   ...       0.40 
freq.     171.00  E(vib)   ...       0.38 
freq.     185.55  E(vib)   ...       0.37 
freq.     197.95  E(vib)   ...       0.35 
freq.     240.07  E(vib)   ...       0.31 
freq.     284.76  E(vib)   ...       0.28 
freq.     325.24  E(vib)   ...       0.24 
freq.     356.03  E(vib)   ...       0.22 
freq.     433.16  E(vib)   ...       0.17 
freq.     439.15  E(vib)   ...       0.17 
freq.     504.17  E(vib)   ...       0.14 
freq.     622.83  E(vib)   ...       0.09 
freq.     892.11  E(vib)   ...       0.03 
freq.     917.67  E(vib)   ...       0.03 
freq.    1066.32  E(vib)   ...       0.02 
freq.    1069.90  E(vib)   ...       0.02 
freq.    1095.63  E(vib)   ...       0.02 
freq.    1109.93  E(vib)   ...       0.02 
freq.    1112.45  E(vib)   ...       0.01 
freq.    1156.43  E(vib)   ...       0.01 
freq.    1161.17  E(vib)   ...       0.01 
freq.    1165.38  E(vib)   ...       0.01 
freq.    1267.96  E(vib)   ...       0.01 
freq.    1334.37  E(vib)   ...       0.01 
freq.    1409.48  E(vib)   ...       0.00 
freq.    1417.17  E(vib)   ...       0.00 
freq.    1417.85  E(vib)   ...       0.00 
freq.    1418.73  E(vib)   ...       0.00 
freq.    1445.27  E(vib)   ...       0.00 
freq.    1448.69  E(vib)   ...       0.00 
freq.    1457.43  E(vib)   ...       0.00 
freq.    1457.60  E(vib)   ...       0.00 
freq.    1464.93  E(vib)   ...       0.00 
freq.    1467.24  E(vib)   ...       0.00 
freq.    1476.73  E(vib)   ...       0.00 
freq.    1480.83  E(vib)   ...       0.00 
freq.    1508.92  E(vib)   ...       0.00 
freq.    1591.58  E(vib)   ...       0.00 
freq.    3037.64  E(vib)   ...       0.00 
freq.    3039.76  E(vib)   ...       0.00 
freq.    3058.06  E(vib)   ...       0.00 
freq.    3062.53  E(vib)   ...       0.00 
freq.    3118.94  E(vib)   ...       0.00 
freq.    3119.00  E(vib)   ...       0.00 
freq.    3143.67  E(vib)   ...       0.00 
freq.    3146.26  E(vib)   ...       0.00 
freq.    3209.21  E(vib)   ...       0.00 
freq.    3209.28  E(vib)   ...       0.00 
freq.    3212.23  E(vib)   ...       0.00 
freq.    3214.24  E(vib)   ...       0.00 

------------
INNER ENERGY
------------

The inner energy is: U= E(el) + E(ZPE) + E(vib) + E(rot) + E(trans)
    E(el)   - is the total energy from the electronic structure calculation
              = E(kin-el) + E(nuc-el) + E(el-el) + E(nuc-nuc)
    E(ZPE)  - the the zero temperature vibrational energy from the frequency calculation
    E(vib)  - the the finite temperature correction to E(ZPE) due to population
              of excited vibrational states
    E(rot)  - is the rotational thermal energy
    E(trans)- is the translational thermal energy

Summary of contributions to the inner energy U:
Electronic energy                ...   -306.89314347 Eh
Zero point energy                ...      0.17168220 Eh     107.73 kcal/mol
Thermal vibrational correction   ...      0.00620260 Eh       3.89 kcal/mol
Thermal rotational correction    ...      0.00141627 Eh       0.89 kcal/mol
Thermal translational correction ...      0.00141627 Eh       0.89 kcal/mol
-----------------------------------------------------------------------
Total thermal energy                   -306.71242612 Eh


Summary of corrections to the electronic energy:
(perhaps to be used in another calculation)
Total thermal correction                  0.00903515 Eh       5.67 kcal/mol
Non-thermal (ZPE) correction              0.17168220 Eh     107.73 kcal/mol
-----------------------------------------------------------------------
Total correction                          0.18071735 Eh     113.40 kcal/mol


--------
ENTHALPY
--------

The enthalpy is H = U + kB*T
                kB is Boltzmann's constant
Total free energy                 ...   -306.71242612 Eh 
Thermal Enthalpy correction       ...      0.00094421 Eh       0.59 kcal/mol
-----------------------------------------------------------------------
Total Enthalpy                    ...   -306.71148191 Eh


Note: Rotational entropy computed according to Herzberg 
Infrared and Raman Spectra, Chapter V,1, Van Nostrand Reinhold, 1945 
Point Group:  C2, Symmetry Number:   2  
Rotational constants in cm-1:     0.162517     0.056856     0.044688 

Vibrational entropy computed according to the QRRHO of S. Grimme
Chem.Eur.J. 2012 18 9955


-------
ENTROPY
-------

The entropy contributions are T*S = T*(S(el)+S(vib)+S(rot)+S(trans))
     S(el)   - electronic entropy
     S(vib)  - vibrational entropy
     S(rot)  - rotational entropy
     S(trans)- translational entropy
The entropies will be listed as multiplied by the temperature to get
units of energy

Electronic entropy                ...      0.00000000 Eh      0.00 kcal/mol
Vibrational entropy               ...      0.01062925 Eh      6.67 kcal/mol
Rotational entropy                ...      0.01253501 Eh      7.87 kcal/mol
Translational entropy             ...      0.01887358 Eh     11.84 kcal/mol
-----------------------------------------------------------------------
Final entropy term                ...      0.04203784 Eh     26.38 kcal/mol

In case the symmetry of your molecule has not been determined correctly
or in case you have a reason to use a different symmetry number we print 
out the resulting rotational entropy values for sn=1,12 :
 --------------------------------------------------------
|  sn= 1 | S(rot)=       0.01318946 Eh      8.28 kcal/mol|
|  sn= 2 | S(rot)=       0.01253501 Eh      7.87 kcal/mol|
|  sn= 3 | S(rot)=       0.01215218 Eh      7.63 kcal/mol|
|  sn= 4 | S(rot)=       0.01188055 Eh      7.46 kcal/mol|
|  sn= 5 | S(rot)=       0.01166986 Eh      7.32 kcal/mol|
|  sn= 6 | S(rot)=       0.01149772 Eh      7.21 kcal/mol|
|  sn= 7 | S(rot)=       0.01135217 Eh      7.12 kcal/mol|
|  sn= 8 | S(rot)=       0.01122610 Eh      7.04 kcal/mol|
|  sn= 9 | S(rot)=       0.01111489 Eh      6.97 kcal/mol|
|  sn=10 | S(rot)=       0.01101541 Eh      6.91 kcal/mol|
|  sn=11 | S(rot)=       0.01092542 Eh      6.86 kcal/mol|
|  sn=12 | S(rot)=       0.01084326 Eh      6.80 kcal/mol|
 --------------------------------------------------------


-------------------
GIBBS FREE ENERGY
-------------------

The Gibbs free energy is G = H - T*S

Total enthalpy                    ...   -306.71148191 Eh 
Total entropy correction          ...     -0.04203784 Eh    -26.38 kcal/mol
-----------------------------------------------------------------------
Final Gibbs free energy         ...   -306.75351975 Eh

For completeness - the Gibbs free energy minus the electronic energy
G-E(el)                           ...      0.13962371 Eh     87.62 kcal/mol


Timings for individual modules:

Sum of individual times         ...      440.008 sec (=   7.333 min)
GTO integral calculation        ...        6.372 sec (=   0.106 min)   1.4 %
SCF iterations                  ...      219.363 sec (=   3.656 min)  49.9 %
SCF Gradient evaluation         ...       55.386 sec (=   0.923 min)  12.6 %
Geometry relaxation             ...        0.553 sec (=   0.009 min)   0.1 %
Analytical frequency calculation...      158.333 sec (=   2.639 min)  36.0 %
                             ****ORCA TERMINATED NORMALLY****
TOTAL RUN TIME: 0 days 0 hours 7 minutes 22 seconds 718 msec
