
                                 *****************
                                 * O   R   C   A *
                                 *****************

                                            #,                                       
                                            ###                                      
                                            ####                                     
                                            #####                                    
                                            ######                                   
                                           ########,                                 
                                     ,,################,,,,,                         
                               ,,#################################,,                 
                          ,,##########################################,,             
                       ,#########################################, ''#####,          
                    ,#############################################,,   '####,        
                  ,##################################################,,,,####,       
                ,###########''''           ''''###############################       
              ,#####''   ,,,,##########,,,,          '''####'''          '####       
            ,##' ,,,,###########################,,,                        '##       
           ' ,,###''''                  '''############,,,                           
         ,,##''                                '''############,,,,        ,,,,,,###''
      ,#''                                            '''#######################'''  
     '                                                          ''''####''''         
             ,#######,   #######,   ,#######,      ##                                
            ,#'     '#,  ##    ##  ,#'     '#,    #''#        ######   ,####,        
            ##       ##  ##   ,#'  ##            #'  '#       #        #'  '#        
            ##       ##  #######   ##           ,######,      #####,   #    #        
            '#,     ,#'  ##    ##  '#,     ,#' ,#      #,         ##   #,  ,#        
             '#######'   ##     ##  '#######'  #'      '#     #####' # '####'        



                  #######################################################
                  #                        -***-                        #
                  #          Department of theory and spectroscopy      #
                  #    Directorship and core code : Frank Neese         #
                  #        Max Planck Institute fuer Kohlenforschung    #
                  #                Kaiser Wilhelm Platz 1               #
                  #                 D-45470 Muelheim/Ruhr               #
                  #                      Germany                        #
                  #                                                     #
                  #                  All rights reserved                #
                  #                        -***-                        #
                  #######################################################


                         Program Version 5.0.4 -  RELEASE  -


 With contributions from (in alphabetic order):
   Daniel Aravena         : Magnetic Suceptibility
   Michael Atanasov       : Ab Initio Ligand Field Theory (pilot matlab implementation)
   Alexander A. Auer      : GIAO ZORA, VPT2 properties, NMR spectrum
   Ute Becker             : Parallelization
   Giovanni Bistoni       : ED, misc. LED, open-shell LED, HFLD
   Martin Brehm           : Molecular dynamics
   Dmytro Bykov           : SCF Hessian
   Vijay G. Chilkuri      : MRCI spin determinant printing, contributions to CSF-ICE
   Dipayan Datta          : RHF DLPNO-CCSD density
   Achintya Kumar Dutta   : EOM-CC, STEOM-CC
   Dmitry Ganyushin       : Spin-Orbit,Spin-Spin,Magnetic field MRCI
   Miquel Garcia          : C-PCM and meta-GGA Hessian, CC/C-PCM, Gaussian charge scheme
   Yang Guo               : DLPNO-NEVPT2, F12-NEVPT2, CIM, IAO-localization
   Andreas Hansen         : Spin unrestricted coupled pair/coupled cluster methods
   Benjamin Helmich-Paris : MC-RPA, TRAH-SCF, COSX integrals
   Lee Huntington         : MR-EOM, pCC
   Robert Izsak           : Overlap fitted RIJCOSX, COSX-SCS-MP3, EOM
   Marcus Kettner         : VPT2
   Christian Kollmar      : KDIIS, OOCD, Brueckner-CCSD(T), CCSD density, CASPT2, CASPT2-K
   Simone Kossmann        : Meta GGA functionals, TD-DFT gradient, OOMP2, MP2 Hessian
   Martin Krupicka        : Initial AUTO-CI
   Lucas Lang             : DCDCAS
   Marvin Lechner         : AUTO-CI (C++ implementation), FIC-MRCC
   Dagmar Lenk            : GEPOL surface, SMD
   Dimitrios Liakos       : Extrapolation schemes; Compound Job, initial MDCI parallelization
   Dimitrios Manganas     : Further ROCIS development; embedding schemes
   Dimitrios Pantazis     : SARC Basis sets
   Anastasios Papadopoulos: AUTO-CI, single reference methods and gradients
   Taras Petrenko         : DFT Hessian,TD-DFT gradient, ASA, ECA, R-Raman, ABS, FL, XAS/XES, NRVS
   Peter Pinski           : DLPNO-MP2, DLPNO-MP2 Gradient
   Christoph Reimann      : Effective Core Potentials
   Marius Retegan         : Local ZFS, SOC
   Christoph Riplinger    : Optimizer, TS searches, QM/MM, DLPNO-CCSD(T), (RO)-DLPNO pert. Triples
   Tobias Risthaus        : Range-separated hybrids, TD-DFT gradient, RPA, STAB
   Michael Roemelt        : Original ROCIS implementation
   Masaaki Saitow         : Open-shell DLPNO-CCSD energy and density
   Barbara Sandhoefer     : DKH picture change effects
   Avijit Sen             : IP-ROCIS
   Kantharuban Sivalingam : CASSCF convergence, NEVPT2, FIC-MRCI
   Bernardo de Souza      : ESD, SOC TD-DFT
   Georgi Stoychev        : AutoAux, RI-MP2 NMR, DLPNO-MP2 response
   Willem Van den Heuvel  : Paramagnetic NMR
   Boris Wezisla          : Elementary symmetry handling
   Frank Wennmohs         : Technical directorship


 We gratefully acknowledge several colleagues who have allowed us to
 interface, adapt or use parts of their codes:
   Stefan Grimme, W. Hujo, H. Kruse, P. Pracht,  : VdW corrections, initial TS optimization,
                  C. Bannwarth, S. Ehlert          DFT functionals, gCP, sTDA/sTD-DF
   Ed Valeev, F. Pavosevic, A. Kumar             : LibInt (2-el integral package), F12 methods
   Garnet Chan, S. Sharma, J. Yang, R. Olivares  : DMRG
   Ulf Ekstrom                                   : XCFun DFT Library
   Mihaly Kallay                                 : mrcc  (arbitrary order and MRCC methods)
   Jiri Pittner, Ondrej Demel                    : Mk-CCSD
   Frank Weinhold                                : gennbo (NPA and NBO analysis)
   Christopher J. Cramer and Donald G. Truhlar   : smd solvation model
   Lars Goerigk                                  : TD-DFT with DH, B97 family of functionals
   V. Asgeirsson, H. Jonsson                     : NEB implementation
   FAccTs GmbH                                   : IRC, NEB, NEB-TS, DLPNO-Multilevel, CI-OPT
                                                   MM, QMMM, 2- and 3-layer-ONIOM, Crystal-QMMM,
                                                   LR-CPCM, SF, NACMEs, symmetry and pop. for TD-DFT,
                                                   nearIR, NL-DFT gradient (VV10), updates on ESD,
                                                   ML-optimized integration grids
   S Lehtola, MJT Oliveira, MAL Marques          : LibXC Library
   Liviu Ungur et al                             : ANISO software


 Your calculation uses the libint2 library for the computation of 2-el integrals
 For citations please refer to: http://libint.valeyev.net

 Your ORCA version has been built with support for libXC version: 5.1.0
 For citations please refer to: https://tddft.org/programs/libxc/

 This ORCA versions uses:
   CBLAS   interface :  Fast vector & matrix operations
   LAPACKE interface :  Fast linear algebra routines
   SCALAPACK package :  Parallel linear algebra routines
   Shared memory     :  Shared parallel matrices
   BLAS/LAPACK       :  OpenBLAS 0.3.15  USE64BITINT DYNAMIC_ARCH NO_AFFINITY SkylakeX SINGLE_THREADED
        Core in use  :  SkylakeX
   Copyright (c) 2011-2014, The OpenBLAS Project


Your calculation utilizes the atom-pairwise dispersion correction
based on tight binding partial charges (D4)
Cite in your paper:
E.Caldeweyher, C.Bannwarth, S.Grimme, J.Chem.Phys., (2017), 147, 034112.
E.Caldeweyher, S.Ehlert, A.Hansen, H.Neugebauer, S.Grimme, J.Chem.Phys., (2018), in progress.
   

XCFun DFT library Copyright 2009-2010 Ulf Ekstrom and contributors.
See http://admol.org/xcfun for more information.
This is free software; see the source code for copying conditions.
There is ABSOLUTELY NO WARRANTY; not even for MERCHANTABILITY or FITNESS FOR A PARTICULAR PURPOSE.
For details see the documentation.
Scientific users of this library should cite U. Ekstrom, L. Visscher, R. Bast, A. J. Thorvaldsen and K. Ruud;
J.Chem.Theor.Comp. 2010, DOI: 10.1021/ct100117s
XCFun Version 0.99 

================================================================================

----- Orbital basis set information -----
Your calculation utilizes the basis: def2-SVP
   F. Weigend and R. Ahlrichs, Phys. Chem. Chem. Phys. 7, 3297 (2005).

----- AuxJ basis set information -----
Your calculation utilizes the auxiliary basis: def2/J
   F. Weigend, Phys. Chem. Chem. Phys. 8, 1057 (2006).

================================================================================
                                        WARNINGS
                       Please study these warnings very carefully!
================================================================================


INFO   : the flag for use of the SHARK integral package has been found!

================================================================================
                                       INPUT FILE
================================================================================
NAME = DFT_water_outs/2+-gasSP.inp
|  1> ! SP wB97X D4 def2-SVP def2/J defgrid2 
|  2> %maxcore 3000
|  3> %PAL NPROCS 4 END
|  4> * xyz 1 1
|  5> C -0.0 0.6848 -0.6593
|  6> C -0.0 -0.6848 -0.6593
|  7> N -0.0 1.0801 0.6696
|  8> N 0.0 -1.0801 0.6696
|  9> C -0.0 0.0 1.4438
| 10> C -0.0 2.46 1.1346
| 11> C 0.0 -2.46 1.1346
| 12> H -0.8976 2.9725 0.764
| 13> H -0.8976 -2.9725 0.764
| 14> H 0.8976 -2.9725 0.764
| 15> H 0.8976 2.9725 0.764
| 16> H -0.0 2.4651 2.2306
| 17> H 0.0 -2.4651 2.2306
| 18> H -0.0 0.0 2.5339
| 19> C 0.0 1.6683 -1.7769
| 20> C -0.0 -1.6683 -1.7769
| 21> H 0.8912 2.3136 -1.7372
| 22> H 0.8911 -2.3136 -1.7372
| 23> H -0.8912 -2.3136 -1.7372
| 24> H -0.8911 2.3136 -1.7372
| 25> H 0.0 1.1411 -2.7393
| 26> H -0.0 -1.1411 -2.7393
| 27> **                         ****END OF INPUT****
================================================================================

                       ****************************
                       * Single Point Calculation *
                       ****************************

---------------------------------
CARTESIAN COORDINATES (ANGSTROEM)
---------------------------------
  C     -0.000000    0.684800   -0.659300
  C     -0.000000   -0.684800   -0.659300
  N     -0.000000    1.080100    0.669600
  N      0.000000   -1.080100    0.669600
  C     -0.000000    0.000000    1.443800
  C     -0.000000    2.460000    1.134600
  C      0.000000   -2.460000    1.134600
  H     -0.897600    2.972500    0.764000
  H     -0.897600   -2.972500    0.764000
  H      0.897600   -2.972500    0.764000
  H      0.897600    2.972500    0.764000
  H     -0.000000    2.465100    2.230600
  H      0.000000   -2.465100    2.230600
  H     -0.000000    0.000000    2.533900
  C      0.000000    1.668300   -1.776900
  C     -0.000000   -1.668300   -1.776900
  H      0.891200    2.313600   -1.737200
  H      0.891100   -2.313600   -1.737200
  H     -0.891200   -2.313600   -1.737200
  H     -0.891100    2.313600   -1.737200
  H      0.000000    1.141100   -2.739300
  H     -0.000000   -1.141100   -2.739300

----------------------------
CARTESIAN COORDINATES (A.U.)
----------------------------
  NO LB      ZA    FRAG     MASS         X           Y           Z
   0 C     6.0000    0    12.011   -0.000000    1.294084   -1.245896
   1 C     6.0000    0    12.011   -0.000000   -1.294084   -1.245896
   2 N     7.0000    0    14.007   -0.000000    2.041093    1.265361
   3 N     7.0000    0    14.007    0.000000   -2.041093    1.265361
   4 C     6.0000    0    12.011   -0.000000    0.000000    2.728387
   5 C     6.0000    0    12.011   -0.000000    4.648726    2.144083
   6 C     6.0000    0    12.011    0.000000   -4.648726    2.144083
   7 H     1.0000    0     1.008   -1.696218    5.617211    1.443751
   8 H     1.0000    0     1.008   -1.696218   -5.617211    1.443751
   9 H     1.0000    0     1.008    1.696218   -5.617211    1.443751
  10 H     1.0000    0     1.008    1.696218    5.617211    1.443751
  11 H     1.0000    0     1.008   -0.000000    4.658364    4.215223
  12 H     1.0000    0     1.008    0.000000   -4.658364    4.215223
  13 H     1.0000    0     1.008   -0.000000    0.000000    4.788377
  14 C     6.0000    0    12.011    0.000000    3.152630   -3.357854
  15 C     6.0000    0    12.011   -0.000000   -3.152630   -3.357854
  16 H     1.0000    0     1.008    1.684124    4.372070   -3.282832
  17 H     1.0000    0     1.008    1.683935   -4.372070   -3.282832
  18 H     1.0000    0     1.008   -1.684124   -4.372070   -3.282832
  19 H     1.0000    0     1.008   -1.683935    4.372070   -3.282832
  20 H     1.0000    0     1.008    0.000000    2.156366   -5.176527
  21 H     1.0000    0     1.008   -0.000000   -2.156366   -5.176527

--------------------------------
INTERNAL COORDINATES (ANGSTROEM)
--------------------------------
 C      0   0   0     0.000000000000     0.00000000     0.00000000
 C      1   0   0     1.369600000000     0.00000000     0.00000000
 N      1   2   0     1.386447727107   106.56585027     0.00000000
 N      2   1   3     1.386447727107   106.56585027     0.00000000
 C      3   1   2     1.328909948040   109.06655440     0.00000000
 C      3   1   2     1.456141823450   125.18868607   180.00000000
 C      4   2   1     1.456141823450   125.18868607   180.00000000
 H      6   3   1     1.098037508467   109.54359074    60.16176833
 H      7   4   2     1.098037508467   109.54359074   299.83823167
 H      7   4   2     1.098037508467   109.54359074    60.16176833
 H      6   3   1     1.098037508467   109.54359074   299.83823167
 H      6   3   1     1.096011865812   108.88944745   180.00000000
 H      7   4   2     1.096011865812   108.88944745   180.00000000
 H      5   3   1     1.090100000000   125.63240467   180.00000085
 C      1   2   3     1.488724961166   131.34812393   180.00000000
 C      2   1   3     1.488724961166   131.34812393   180.00000000
 H     15   1   2     1.101011180688   111.10794500   240.18717694
 H     16   2   1     1.100930238480   111.10957114   119.81559660
 H     16   2   1     1.101011180688   111.10794500   240.18717694
 H     15   1   2     1.100930238480   111.10957114   119.81559660
 H     15   1   2     1.097339327647   109.93807276     0.00000000
 H     16   2   1     1.097339327647   109.93807276     0.00000000

---------------------------
INTERNAL COORDINATES (A.U.)
---------------------------
 C      0   0   0     0.000000000000     0.00000000     0.00000000
 C      1   0   0     2.588168913019     0.00000000     0.00000000
 N      1   2   0     2.620006503230   106.56585027     0.00000000
 N      2   1   3     2.620006503230   106.56585027     0.00000000
 C      3   1   2     2.511275858439   109.06655440     0.00000000
 C      3   1   2     2.751709258469   125.18868607   180.00000000
 C      4   2   1     2.751709258469   125.18868607   180.00000000
 H      6   3   1     2.074990175776   109.54359074    60.16176833
 H      7   4   2     2.074990175776   109.54359074   299.83823167
 H      7   4   2     2.074990175776   109.54359074    60.16176833
 H      6   3   1     2.074990175776   109.54359074   299.83823167
 H      6   3   1     2.071162265912   108.88944745   180.00000000
 H      7   4   2     2.071162265912   108.88944745   180.00000000
 H      5   3   1     2.059990458588   125.63240467   180.00000085
 C      1   2   3     2.813282465337   131.34812393   180.00000000
 C      2   1   3     2.813282465337   131.34812393   180.00000000
 H     15   1   2     2.080609601886   111.10794500   240.18717694
 H     16   2   1     2.080456643280   111.10957114   119.81559660
 H     16   2   1     2.080609601886   111.10794500   240.18717694
 H     15   1   2     2.080456643280   111.10957114   119.81559660
 H     15   1   2     2.073670805233   109.93807276     0.00000000
 H     16   2   1     2.073670805233   109.93807276     0.00000000

---------------------
BASIS SET INFORMATION
---------------------
There are 3 groups of distinct atoms

 Group   1 Type C   : 7s4p1d contracted to 3s2p1d pattern {511/31/1}
 Group   2 Type N   : 7s4p1d contracted to 3s2p1d pattern {511/31/1}
 Group   3 Type H   : 4s1p contracted to 2s1p pattern {31/1}

Atom   0C    basis set group =>   1
Atom   1C    basis set group =>   1
Atom   2N    basis set group =>   2
Atom   3N    basis set group =>   2
Atom   4C    basis set group =>   1
Atom   5C    basis set group =>   1
Atom   6C    basis set group =>   1
Atom   7H    basis set group =>   3
Atom   8H    basis set group =>   3
Atom   9H    basis set group =>   3
Atom  10H    basis set group =>   3
Atom  11H    basis set group =>   3
Atom  12H    basis set group =>   3
Atom  13H    basis set group =>   3
Atom  14C    basis set group =>   1
Atom  15C    basis set group =>   1
Atom  16H    basis set group =>   3
Atom  17H    basis set group =>   3
Atom  18H    basis set group =>   3
Atom  19H    basis set group =>   3
Atom  20H    basis set group =>   3
Atom  21H    basis set group =>   3
---------------------------------
AUXILIARY/J BASIS SET INFORMATION
---------------------------------
There are 3 groups of distinct atoms

 Group   1 Type C   : 12s5p4d2f1g contracted to 6s4p3d1f1g pattern {711111/2111/211/2/1}
 Group   2 Type N   : 12s5p4d2f1g contracted to 6s4p3d1f1g pattern {711111/2111/211/2/1}
 Group   3 Type H   : 5s2p1d contracted to 3s1p1d pattern {311/2/1}

Atom   0C    basis set group =>   1
Atom   1C    basis set group =>   1
Atom   2N    basis set group =>   2
Atom   3N    basis set group =>   2
Atom   4C    basis set group =>   1
Atom   5C    basis set group =>   1
Atom   6C    basis set group =>   1
Atom   7H    basis set group =>   3
Atom   8H    basis set group =>   3
Atom   9H    basis set group =>   3
Atom  10H    basis set group =>   3
Atom  11H    basis set group =>   3
Atom  12H    basis set group =>   3
Atom  13H    basis set group =>   3
Atom  14C    basis set group =>   1
Atom  15C    basis set group =>   1
Atom  16H    basis set group =>   3
Atom  17H    basis set group =>   3
Atom  18H    basis set group =>   3
Atom  19H    basis set group =>   3
Atom  20H    basis set group =>   3
Atom  21H    basis set group =>   3


           ************************************************************
           *        Program running with 4 parallel MPI-processes     *
           *              working on a common directory               *
           ************************************************************
------------------------------------------------------------------------------
                           ORCA GTO INTEGRAL CALCULATION
                           -- RI-GTO INTEGRALS CHOSEN --
------------------------------------------------------------------------------
------------------------------------------------------------------------------
                   ___                                                        
                  /   \      - P O W E R E D   B Y -                         
                 /     \                                                     
                 |  |  |   _    _      __       _____    __    __             
                 |  |  |  | |  | |    /  \     |  _  \  |  |  /  |          
                  \  \/   | |  | |   /    \    | | | |  |  | /  /          
                 / \  \   | |__| |  /  /\  \   | |_| |  |  |/  /          
                |  |  |   |  __  | /  /__\  \  |    /   |      \           
                |  |  |   | |  | | |   __   |  |    \   |  |\   \          
                \     /   | |  | | |  |  |  |  | |\  \  |  | \   \       
                 \___/    |_|  |_| |__|  |__|  |_| \__\ |__|  \__/        
                                                                              
                      - O R C A' S   B I G   F R I E N D -                    
                                      &                                       
                       - I N T E G R A L  F E E D E R -                       
                                                                              
 v1 FN, 2020, v2 2021                                                         
------------------------------------------------------------------------------


Reading SHARK input file DFT_water_outs/2+-gasSP.SHARKINP.tmp ... ok
----------------------
SHARK INTEGRAL PACKAGE
----------------------

Number of atoms                             ...     22
Number of basis functions                   ...    191
Number of shells                            ...     93
Maximum angular momentum                    ...      2
Integral batch strategy                     ... SHARK/LIBINT Hybrid
RI-J (if used) integral strategy            ... SPLIT-RIJ (Revised 2003 algorithm where possible)
Printlevel                                  ...      1
Contraction scheme used                     ... SEGMENTED contraction
Coulomb Range Separation                    ... NOT USED
Exchange Range Separation                   ... Long Range
   Mu parameter                             ...  0.300000
   Scaling (regular/separated)              ...  0.157706  0.842294
Finite Nucleus Model                        ... NOT USED
Auxiliary Coulomb fitting basis             ... AVAILABLE
   # of basis functions in Aux-J            ...    584
   # of shells in Aux-J                     ...    200
   Maximum angular momentum in Aux-J        ...      4
Auxiliary J/K fitting basis                 ... NOT available
Auxiliary Correlation fitting basis         ... NOT available
Auxiliary 'external' fitting basis          ... NOT available
Integral threshold                          ...     1.000000e-10
Primitive cut-off                           ...     1.000000e-11
Primitive pair pre-selection threshold      ...     1.000000e-11

Calculating pre-screening integrals         ... done (  0.0 sec) Dimension = 93
Organizing shell pair data                  ... done (  0.0 sec)
Shell pair information
Total number of shell pairs                 ...      4371
Shell pairs after pre-screening             ...      4010
Total number of primitive shell pairs       ...     15207
Primitive shell pairs kept                  ...     10154
          la=0 lb=0:   1338 shell pairs
          la=1 lb=0:   1491 shell pairs
          la=1 lb=1:    439 shell pairs
          la=2 lb=0:    439 shell pairs
          la=2 lb=1:    261 shell pairs
          la=2 lb=2:     42 shell pairs

Calculating one electron integrals          ... done (  0.0 sec)
Calculating RI/J V-Matrix + Cholesky decomp.... done (  0.0 sec)
Calculating Nuclear repulsion               ... done (  0.0 sec) ENN=    474.314649937122 Eh

SHARK setup successfully completed in   0.2 seconds

Maximum memory used throughout the entire GTOINT-calculation: 12.6 MB


           ************************************************************
           *        Program running with 4 parallel MPI-processes     *
           *              working on a common directory               *
           ************************************************************
-------------------------------------------------------------------------------
                                 ORCA SCF
-------------------------------------------------------------------------------

------------
SCF SETTINGS
------------
Hamiltonian:
 Density Functional     Method          .... DFT(GTOs)
 Exchange Functional    Exchange        .... WB97X
 Correlation Functional Correlation     .... WB97X
 Gradients option       PostSCFGGA      .... off
 Hybrid DFT is turned on
   Fraction HF Exchange ScalHFX         ....  0.157706
   Scaling of DF-GGA-X  ScalDFX         ....  0.000000
   Scaling of DF-GGA-C  ScalDFC         ....  1.000000
   Scaling of DF-LDA-C  ScalLDAC        ....  1.000000
   Perturbative correction              ....  0.000000
   Density functional embedding theory  .... OFF
 Long-range corrected/Screened/Range-Separated Hybrid DFT is turned on
   Amount of maximum screened exact exchange              ....  0.842294
   Range separation parameter mu (erf(mu*r12)/r12)        ....  0.300000
 RI-approximation to the Coulomb term is turned on
   Number of AuxJ basis functions       .... 584
   RIJ-COSX (HFX calculated with COS-X)).... on


General Settings:
 Integral files         IntName         .... DFT_water_outs/2+-gasSP
 Hartree-Fock type      HFTyp           .... RHF
 Total Charge           Charge          ....    1
 Multiplicity           Mult            ....    1
 Number of Electrons    NEL             ....   68
 Basis Dimension        Dim             ....  191
 Nuclear Repulsion      ENuc            ....    474.3146499371 Eh

Convergence Acceleration:
 DIIS                   CNVDIIS         .... on
   Start iteration      DIISMaxIt       ....    12
   Startup error        DIISStart       ....  0.200000
   # of expansion vecs  DIISMaxEq       ....     5
   Bias factor          DIISBfac        ....   1.050
   Max. coefficient     DIISMaxC        ....  10.000
 Trust-Rad. Augm. Hess. CNVTRAH         .... auto
   Auto Start mean grad. ratio tolernc. ....  1.125000
   Auto Start start iteration           ....    20
   Auto Start num. interpolation iter.  ....    10
   Max. Number of Micro iterations      ....    16
   Max. Number of Macro iterations      .... Maxiter - #DIIS iter
   Number of Davidson start vectors     ....     2
   Converg. threshold I  (grad. norm)   ....   5.000e-05
   Converg. threshold II (energy diff.) ....   1.000e-06
   Grad. Scal. Fac. for Micro threshold ....   0.100
   Minimum threshold for Micro iter.    ....   0.010
   NR start threshold (gradient norm)   ....   0.001
   Initial trust radius                 ....   0.400
   Minimum AH scaling param. (alpha)    ....   1.000
   Maximum AH scaling param. (alpha)    .... 1000.000
   Orbital update algorithm             .... Taylor
   White noise on init. David. guess    .... on
   Maximum white noise                  ....   0.010
   Quad. conv. algorithm                .... NR
 SOSCF                  CNVSOSCF        .... on
   Start iteration      SOSCFMaxIt      ....   150
   Startup grad/error   SOSCFStart      ....  0.003300
 Level Shifting         CNVShift        .... on
   Level shift para.    LevelShift      ....    0.2500
   Turn off err/grad.   ShiftErr        ....    0.0010
 Zerner damping         CNVZerner       .... off
 Static damping         CNVDamp         .... on
   Fraction old density DampFac         ....    0.7000
   Max. Damping (<1)    DampMax         ....    0.9800
   Min. Damping (>=0)   DampMin         ....    0.0000
   Turn off err/grad.   DampErr         ....    0.1000
 Fernandez-Rico         CNVRico         .... off

SCF Procedure:
 Maximum # iterations   MaxIter         ....   125
 SCF integral mode      SCFMode         .... Direct
   Integral package                     .... SHARK and LIBINT hybrid scheme
 Reset frequency        DirectResetFreq ....    20
 Integral Threshold     Thresh          ....  1.000e-10 Eh
 Primitive CutOff       TCut            ....  1.000e-11 Eh

Convergence Tolerance:
 Convergence Check Mode ConvCheckMode   .... Total+1el-Energy
 Convergence forced     ConvForced      .... 0
 Energy Change          TolE            ....  1.000e-06 Eh
 1-El. energy change                    ....  1.000e-03 Eh
 Orbital Gradient       TolG            ....  5.000e-05
 Orbital Rotation angle TolX            ....  5.000e-05
 DIIS Error             TolErr          ....  1.000e-06


Diagonalization of the overlap matrix:
Smallest eigenvalue                        ... 9.148e-04
Time for diagonalization                   ...    0.006 sec
Threshold for overlap eigenvalues          ... 1.000e-08
Number of eigenvalues below threshold      ... 0
Time for construction of square roots      ...    0.004 sec
Total time needed                          ...    0.011 sec

Time for model grid setup =    0.140 sec

------------------------------
INITIAL GUESS: MODEL POTENTIAL
------------------------------
Loading Hartree-Fock densities                     ... done
Calculating cut-offs                               ... done
Initializing the effective Hamiltonian             ... done
Setting up the integral package (SHARK)            ... done
Starting the Coulomb interaction                   ... done (   0.1 sec)
Reading the grid                                   ... done
Mapping shells                                     ... done
Starting the XC term evaluation                    ... done (   0.1 sec)
  promolecular density results
     # of electrons  =     68.999540742
     EX              =    -52.799037619
     EC              =     -2.286875333
     EX+EC           =    -55.085912953
Transforming the Hamiltonian                       ... done (   0.0 sec)
Diagonalizing the Hamiltonian                      ... done (   0.0 sec)
Back transforming the eigenvectors                 ... done (   0.0 sec)
Now organizing SCF variables                       ... done
                      ------------------
                      INITIAL GUESS DONE (   0.3 sec)
                      ------------------
-------------------
DFT GRID GENERATION
-------------------

General Integration Accuracy     IntAcc      ... 4.388
Radial Grid Type                 RadialGrid  ... OptM3 with GC (2021)
Angular Grid (max. ang.)         AngularGrid ... 4 (Lebedev-302)
Angular grid pruning method      GridPruning ... 4 (adaptive)
Weight generation scheme         WeightScheme... Becke
Basis function cutoff            BFCut       ... 1.0000e-10
Integration weight cutoff        WCut        ... 1.0000e-14
Angular grids for H and He will be reduced by one unit
Partially contracted basis set               ... off
Rotationally invariant grid construction     ... off

Total number of grid points                  ...    95669
Total number of batches                      ...     1506
Average number of points per batch           ...       63
Average number of grid points per atom       ...     4349
Time for grid setup =    0.595 sec

--------------------
COSX GRID GENERATION
--------------------

GRIDX 1
-------
General Integration Accuracy     IntAcc      ... 3.816
Radial Grid Type                 RadialGrid  ... OptM3 with GC (2021)
Angular Grid (max. ang.)         AngularGrid ... 1 (Lebedev-50)
Angular grid pruning method      GridPruning ... 4 (adaptive)
Weight generation scheme         WeightScheme... Becke
Basis function cutoff            BFCut       ... 1.0000e-10
Integration weight cutoff        WCut        ... 1.0000e-14
Angular grids for H and He will be reduced by one unit
Partially contracted basis set               ... on
Rotationally invariant grid construction     ... off

Total number of grid points                  ...    12230
Total number of batches                      ...      205
Average number of points per batch           ...       59
Average number of grid points per atom       ...      556
UseSFitting                                  ... on

GRIDX 2
-------
General Integration Accuracy     IntAcc      ... 4.020
Radial Grid Type                 RadialGrid  ... OptM3 with GC (2021)
Angular Grid (max. ang.)         AngularGrid ... 2 (Lebedev-110)
Angular grid pruning method      GridPruning ... 4 (adaptive)
Weight generation scheme         WeightScheme... Becke
Basis function cutoff            BFCut       ... 1.0000e-10
Integration weight cutoff        WCut        ... 1.0000e-14
Angular grids for H and He will be reduced by one unit
Partially contracted basis set               ... on
Rotationally invariant grid construction     ... off

Total number of grid points                  ...    25755
Total number of batches                      ...      415
Average number of points per batch           ...       62
Average number of grid points per atom       ...     1171
UseSFitting                                  ... on

GRIDX 3
-------
General Integration Accuracy     IntAcc      ... 4.338
Radial Grid Type                 RadialGrid  ... OptM3 with GC (2021)
Angular Grid (max. ang.)         AngularGrid ... 3 (Lebedev-194)
Angular grid pruning method      GridPruning ... 4 (adaptive)
Weight generation scheme         WeightScheme... Becke
Basis function cutoff            BFCut       ... 1.0000e-10
Integration weight cutoff        WCut        ... 1.0000e-14
Angular grids for H and He will be reduced by one unit
Partially contracted basis set               ... on
Rotationally invariant grid construction     ... off

Total number of grid points                  ...    56319
Total number of batches                      ...      890
Average number of points per batch           ...       63
Average number of grid points per atom       ...     2560
UseSFitting                                  ... on

Time for X-Grid setup             =    0.706 sec

--------------
SCF ITERATIONS
--------------
ITER       Energy         Delta-E        Max-DP      RMS-DP      [F,P]     Damp
               ***  Starting incremental Fock matrix formation  ***
  0   -383.3706262669   0.000000000000 0.06138582  0.00143186  0.1436843 0.7000
  1   -383.4227757000  -0.052149433177 0.04202379  0.00105747  0.0874945 0.7000
                               ***Turning on DIIS***
  2   -383.4515353231  -0.028759623032 0.07665456  0.00223520  0.0462402 0.0000
  3   -383.5004627883  -0.048927465260 0.02918911  0.00056412  0.0308679 0.0000
  4   -383.5060815301  -0.005618741771 0.00479568  0.00011367  0.0034497 0.0000
                      *** Initiating the SOSCF procedure ***
                           *** Shutting down DIIS ***
                      *** Re-Reading the Fockian *** 
                      *** Removing any level shift *** 
ITER      Energy       Delta-E        Grad      Rot      Max-DP    RMS-DP
  5   -383.50619498  -0.0001134468  0.000440  0.000440  0.001888  0.000050
               *** Restarting incremental Fock matrix formation ***
  6   -383.50628163  -0.0000866511  0.000235  0.000475  0.000768  0.000028
  7   -383.50628381  -0.0000021820  0.000074  0.000207  0.000361  0.000015
  8   -383.50628410  -0.0000002861  0.000043  0.000061  0.000106  0.000004
  9   -383.50628416  -0.0000000662  0.000013  0.000015  0.000037  0.000001
                 **** Energy Check signals convergence ****
              ***Rediagonalizing the Fockian in SOSCF/NRSCF***

               *****************************************************
               *                     SUCCESS                       *
               *           SCF CONVERGED AFTER  10 CYCLES          *
               *****************************************************

Old exchange energy                            =    -17.444477435 Eh
New exchange energy                            =    -17.444451088 Eh
Exchange energy change after final integration =      0.000026347 Eh
Total energy after final integration           =   -383.506257810 Eh
Final COS-X integration done in                =    12.525 sec

----------------
TOTAL SCF ENERGY
----------------

Total Energy       :         -383.50625781 Eh          -10435.73582 eV

Components:
Nuclear Repulsion  :          474.31464994 Eh           12906.75779 eV
Electronic Energy  :         -857.82090775 Eh          -23342.49361 eV
One Electron Energy:        -1444.01058783 Eh          -39293.52574 eV
Two Electron Energy:          586.18968008 Eh           15951.03213 eV
Max COSX asymmetry :            0.00000150 Eh               0.00004 eV

Virial components:
Potential Energy   :         -762.43540625 Eh          -20746.92216 eV
Kinetic Energy     :          378.92914844 Eh           10311.18634 eV
Virial Ratio       :            2.01207906


DFT components:
N(Alpha)           :       34.000110314278 electrons
N(Beta)            :       34.000110314278 electrons
N(Total)           :       68.000220628556 electrons
E(XC)              :      -38.820032105907 Eh       
DFET-embed. en.    :        0.000000000000 Eh       

---------------
SCF CONVERGENCE
---------------

  Last Energy change         ...    6.1435e-09  Tolerance :   1.0000e-06
  Last MAX-Density change    ...    2.6645e-15  Tolerance :   1.0000e-05
  Last RMS-Density change    ...    3.7695e-17  Tolerance :   1.0000e-06
  Last Orbital Gradient      ...    6.6315e-06  Tolerance :   5.0000e-05
  Last Orbital Rotation      ...    1.4742e-05  Tolerance :   5.0000e-05

             **** THE GBW FILE WAS UPDATED (DFT_water_outs/2+-gasSP.gbw) ****
             **** DENSITY DFT_water_outs/2+-gasSP.scfp WAS UPDATED ****
             **** ENERGY FILE WAS UPDATED (DFT_water_outs/2+-gasSP.en.tmp) ****
             **** THE GBW FILE WAS UPDATED (DFT_water_outs/2+-gasSP.gbw) ****
             **** DENSITY DFT_water_outs/2+-gasSP.scfp WAS UPDATED ****
----------------
ORBITAL ENERGIES
----------------

  NO   OCC          E(Eh)            E(eV) 
   0   2.0000     -14.657071      -398.8392 
   1   2.0000     -14.657053      -398.8387 
   2   2.0000     -10.530886      -286.5600 
   3   2.0000     -10.478553      -285.1359 
   4   2.0000     -10.478055      -285.1224 
   5   2.0000     -10.476801      -285.0883 
   6   2.0000     -10.476781      -285.0877 
   7   2.0000     -10.427603      -283.7495 
   8   2.0000     -10.427551      -283.7481 
   9   2.0000      -1.361033       -37.0356 
  10   2.0000      -1.241153       -33.7735 
  11   2.0000      -1.101049       -29.9611 
  12   2.0000      -1.061019       -28.8718 
  13   2.0000      -1.020436       -27.7675 
  14   2.0000      -0.973023       -26.4773 
  15   2.0000      -0.971116       -26.4254 
  16   2.0000      -0.880546       -23.9609 
  17   2.0000      -0.871602       -23.7175 
  18   2.0000      -0.811840       -22.0913 
  19   2.0000      -0.791913       -21.5490 
  20   2.0000      -0.754613       -20.5341 
  21   2.0000      -0.741607       -20.1802 
  22   2.0000      -0.731780       -19.9128 
  23   2.0000      -0.699185       -19.0258 
  24   2.0000      -0.683751       -18.6058 
  25   2.0000      -0.682344       -18.5675 
  26   2.0000      -0.679159       -18.4808 
  27   2.0000      -0.664403       -18.0793 
  28   2.0000      -0.657135       -17.8816 
  29   2.0000      -0.655164       -17.8279 
  30   2.0000      -0.645048       -17.5527 
  31   2.0000      -0.640567       -17.4307 
  32   2.0000      -0.558704       -15.2031 
  33   2.0000      -0.495180       -13.4745 
  34   0.0000      -0.084875        -2.3096 
  35   0.0000      -0.037218        -1.0127 
  36   0.0000      -0.003359        -0.0914 
  37   0.0000       0.008730         0.2376 
  38   0.0000       0.012263         0.3337 
  39   0.0000       0.042964         1.1691 
  40   0.0000       0.045825         1.2470 
  41   0.0000       0.052648         1.4326 
  42   0.0000       0.058682         1.5968 
  43   0.0000       0.068129         1.8539 
  44   0.0000       0.085506         2.3267 
  45   0.0000       0.096500         2.6259 
  46   0.0000       0.104828         2.8525 
  47   0.0000       0.107819         2.9339 
  48   0.0000       0.130531         3.5519 
  49   0.0000       0.133336         3.6282 
  50   0.0000       0.149340         4.0638 
  51   0.0000       0.166440         4.5291 
  52   0.0000       0.174592         4.7509 
  53   0.0000       0.176326         4.7981 
  54   0.0000       0.209110         5.6902 
  55   0.0000       0.212247         5.7755 
  56   0.0000       0.304273         8.2797 
  57   0.0000       0.312682         8.5085 
  58   0.0000       0.312851         8.5131 
  59   0.0000       0.321307         8.7432 
  60   0.0000       0.328826         8.9478 
  61   0.0000       0.344190         9.3659 
  62   0.0000       0.374623        10.1940 
  63   0.0000       0.388674        10.5764 
  64   0.0000       0.394108        10.7242 
  65   0.0000       0.408697        11.1212 
  66   0.0000       0.439344        11.9552 
  67   0.0000       0.471033        12.8175 
  68   0.0000       0.475224        12.9315 
  69   0.0000       0.485841        13.2204 
  70   0.0000       0.492077        13.3901 
  71   0.0000       0.544435        14.8148 
  72   0.0000       0.550213        14.9721 
  73   0.0000       0.567961        15.4550 
  74   0.0000       0.585485        15.9319 
  75   0.0000       0.586145        15.9498 
  76   0.0000       0.586596        15.9621 
  77   0.0000       0.596184        16.2230 
  78   0.0000       0.604288        16.4435 
  79   0.0000       0.613200        16.6860 
  80   0.0000       0.616599        16.7785 
  81   0.0000       0.617802        16.8113 
  82   0.0000       0.625583        17.0230 
  83   0.0000       0.646338        17.5878 
  84   0.0000       0.653808        17.7910 
  85   0.0000       0.655158        17.8278 
  86   0.0000       0.660797        17.9812 
  87   0.0000       0.665690        18.1144 
  88   0.0000       0.665820        18.1179 
  89   0.0000       0.681107        18.5339 
  90   0.0000       0.682824        18.5806 
  91   0.0000       0.712590        19.3906 
  92   0.0000       0.746165        20.3042 
  93   0.0000       0.790737        21.5170 
  94   0.0000       0.804407        21.8890 
  95   0.0000       0.835160        22.7259 
  96   0.0000       0.859974        23.4011 
  97   0.0000       0.870223        23.6800 
  98   0.0000       0.907863        24.7042 
  99   0.0000       1.001972        27.2650 
 100   0.0000       1.038296        28.2535 
 101   0.0000       1.060607        28.8606 
 102   0.0000       1.093698        29.7610 
 103   0.0000       1.118266        30.4296 
 104   0.0000       1.121921        30.5290 
 105   0.0000       1.127590        30.6833 
 106   0.0000       1.146713        31.2037 
 107   0.0000       1.162293        31.6276 
 108   0.0000       1.217298        33.1244 
 109   0.0000       1.243172        33.8284 
 110   0.0000       1.265823        34.4448 
 111   0.0000       1.362202        37.0674 
 112   0.0000       1.374611        37.4051 
 113   0.0000       1.459101        39.7042 
 114   0.0000       1.461744        39.7761 
 115   0.0000       1.467698        39.9381 
 116   0.0000       1.467927        39.9443 
 117   0.0000       1.486675        40.4545 
 118   0.0000       1.498170        40.7673 
 119   0.0000       1.501872        40.8680 
 120   0.0000       1.504063        40.9276 
 121   0.0000       1.509714        41.0814 
 122   0.0000       1.560222        42.4558 
 123   0.0000       1.584260        43.1099 
 124   0.0000       1.660494        45.1843 
 125   0.0000       1.673942        45.5503 
 126   0.0000       1.678728        45.6805 
 127   0.0000       1.702571        46.3293 
 128   0.0000       1.714032        46.6412 
 129   0.0000       1.726039        46.9679 
 130   0.0000       1.737035        47.2671 
 131   0.0000       1.741733        47.3950 
 132   0.0000       1.749340        47.6020 
 133   0.0000       1.756179        47.7881 
 134   0.0000       1.759880        47.8888 
 135   0.0000       1.787531        48.6412 
 136   0.0000       1.805984        49.1433 
 137   0.0000       1.820081        49.5269 
 138   0.0000       1.830430        49.8085 
 139   0.0000       1.850735        50.3611 
 140   0.0000       1.858177        50.5636 
 141   0.0000       1.867542        50.8184 
 142   0.0000       1.902176        51.7608 
 143   0.0000       1.924657        52.3726 
 144   0.0000       1.971207        53.6393 
 145   0.0000       1.981874        53.9295 
 146   0.0000       2.023178        55.0535 
 147   0.0000       2.026069        55.1321 
 148   0.0000       2.034480        55.3610 
 149   0.0000       2.041974        55.5649 
 150   0.0000       2.063347        56.1465 
 151   0.0000       2.128914        57.9307 
 152   0.0000       2.133102        58.0447 
 153   0.0000       2.158433        58.7339 
 154   0.0000       2.179206        59.2992 
 155   0.0000       2.187485        59.5245 
 156   0.0000       2.253610        61.3238 
 157   0.0000       2.273739        61.8716 
 158   0.0000       2.338571        63.6358 
 159   0.0000       2.363707        64.3197 
 160   0.0000       2.371494        64.5316 
 161   0.0000       2.386752        64.9468 
 162   0.0000       2.387858        64.9769 
 163   0.0000       2.428692        66.0881 
 164   0.0000       2.439499        66.3821 
 165   0.0000       2.443270        66.4848 
 166   0.0000       2.488234        67.7083 
 167   0.0000       2.532943        68.9249 
 168   0.0000       2.540819        69.1392 
 169   0.0000       2.615451        71.1700 
 170   0.0000       2.623934        71.4009 
 171   0.0000       2.680606        72.9430 
 172   0.0000       2.716033        73.9070 
 173   0.0000       2.719362        73.9976 
 174   0.0000       2.719947        74.0135 
 175   0.0000       2.725532        74.1655 
 176   0.0000       2.752924        74.9109 
 177   0.0000       2.778803        75.6151 
 178   0.0000       2.818712        76.7010 
 179   0.0000       2.846389        77.4542 
 180   0.0000       2.853066        77.6359 
 181   0.0000       2.881975        78.4225 
 182   0.0000       2.899051        78.8872 
 183   0.0000       2.927096        79.6503 
 184   0.0000       2.938979        79.9737 
 185   0.0000       2.982140        81.1482 
 186   0.0000       2.992223        81.4225 
 187   0.0000       3.131444        85.2109 
 188   0.0000       3.261872        88.7600 
 189   0.0000       3.341719        90.9328 
 190   0.0000       3.416952        92.9800 

                    ********************************
                    * MULLIKEN POPULATION ANALYSIS *
                    ********************************

-----------------------
MULLIKEN ATOMIC CHARGES
-----------------------
   0 C :   -0.088948
   1 C :   -0.088944
   2 N :   -0.221985
   3 N :   -0.221986
   4 C :    0.194022
   5 C :    0.070382
   6 C :    0.070382
   7 H :    0.098460
   8 H :    0.098459
   9 H :    0.098460
  10 H :    0.098459
  11 H :    0.089485
  12 H :    0.089484
  13 H :    0.115853
  14 C :    0.075649
  15 C :    0.075649
  16 H :    0.079361
  17 H :    0.079340
  18 H :    0.079361
  19 H :    0.079340
  20 H :    0.064859
  21 H :    0.064859
Sum of atomic charges:    1.0000000

--------------------------------
MULLIKEN REDUCED ORBITAL CHARGES
--------------------------------
  0 C s       :     3.094324  s :     3.094324
      pz      :     0.884979  p :     2.937020
      px      :     1.042192
      py      :     1.009848
      dz2     :     0.018911  d :     0.057605
      dxz     :     0.009543
      dyz     :     0.013244
      dx2y2   :     0.005927
      dxy     :     0.009979
  1 C s       :     3.094321  s :     3.094321
      pz      :     0.884977  p :     2.937019
      px      :     1.042192
      py      :     1.009850
      dz2     :     0.018911  d :     0.057604
      dxz     :     0.009543
      dyz     :     0.013244
      dx2y2   :     0.005927
      dxy     :     0.009979
  2 N s       :     3.404295  s :     3.404295
      pz      :     1.157358  p :     3.784640
      px      :     1.472855
      py      :     1.154427
      dz2     :     0.006290  d :     0.033051
      dxz     :     0.006545
      dyz     :     0.010350
      dx2y2   :     0.004081
      dxy     :     0.005785
  3 N s       :     3.404296  s :     3.404296
      pz      :     1.157358  p :     3.784639
      px      :     1.472855
      py      :     1.154427
      dz2     :     0.006290  d :     0.033051
      dxz     :     0.006545
      dyz     :     0.010350
      dx2y2   :     0.004081
      dxy     :     0.005785
  4 C s       :     3.078951  s :     3.078951
      pz      :     0.909746  p :     2.659000
      px      :     0.962184
      py      :     0.787070
      dz2     :     0.012784  d :     0.068027
      dxz     :     0.006336
      dyz     :     0.022412
      dx2y2   :     0.009151
      dxy     :     0.017344
  5 C s       :     3.023339  s :     3.023339
      pz      :     1.038845  p :     2.869553
      px      :     1.077463
      py      :     0.753245
      dz2     :     0.007961  d :     0.036726
      dxz     :     0.003012
      dyz     :     0.006203
      dx2y2   :     0.010522
      dxy     :     0.009028
  6 C s       :     3.023340  s :     3.023340
      pz      :     1.038844  p :     2.869552
      px      :     1.077463
      py      :     0.753245
      dz2     :     0.007961  d :     0.036726
      dxz     :     0.003012
      dyz     :     0.006203
      dx2y2   :     0.010522
      dxy     :     0.009028
  7 H s       :     0.878147  s :     0.878147
      pz      :     0.005462  p :     0.023393
      px      :     0.012471
      py      :     0.005460
  8 H s       :     0.878148  s :     0.878148
      pz      :     0.005462  p :     0.023393
      px      :     0.012471
      py      :     0.005460
  9 H s       :     0.878147  s :     0.878147
      pz      :     0.005462  p :     0.023393
      px      :     0.012471
      py      :     0.005460
 10 H s       :     0.878149  s :     0.878149
      pz      :     0.005462  p :     0.023393
      px      :     0.012471
      py      :     0.005460
 11 H s       :     0.887047  s :     0.887047
      pz      :     0.016025  p :     0.023468
      px      :     0.004812
      py      :     0.002630
 12 H s       :     0.887048  s :     0.887048
      pz      :     0.016025  p :     0.023468
      px      :     0.004812
      py      :     0.002630
 13 H s       :     0.860277  s :     0.860277
      pz      :     0.017991  p :     0.023870
      px      :     0.004591
      py      :     0.001288
 14 C s       :     2.924622  s :     2.924622
      pz      :     0.958000  p :     2.973608
      px      :     1.043365
      py      :     0.972244
      dz2     :     0.005574  d :     0.026120
      dxz     :     0.001837
      dyz     :     0.008118
      dx2y2   :     0.002556
      dxy     :     0.008035
 15 C s       :     2.924622  s :     2.924622
      pz      :     0.957999  p :     2.973609
      px      :     1.043365
      py      :     0.972244
      dz2     :     0.005574  d :     0.026120
      dxz     :     0.001837
      dyz     :     0.008118
      dx2y2   :     0.002556
      dxy     :     0.008035
 16 H s       :     0.896270  s :     0.896270
      pz      :     0.004156  p :     0.024370
      px      :     0.011977
      py      :     0.008237
 17 H s       :     0.896287  s :     0.896287
      pz      :     0.004157  p :     0.024373
      px      :     0.011977
      py      :     0.008239
 18 H s       :     0.896270  s :     0.896270
      pz      :     0.004156  p :     0.024370
      px      :     0.011977
      py      :     0.008237
 19 H s       :     0.896287  s :     0.896287
      pz      :     0.004157  p :     0.024373
      px      :     0.011977
      py      :     0.008239
 20 H s       :     0.910652  s :     0.910652
      pz      :     0.013152  p :     0.024490
      px      :     0.004724
      py      :     0.006614
 21 H s       :     0.910651  s :     0.910651
      pz      :     0.013152  p :     0.024490
      px      :     0.004724
      py      :     0.006614


                     *******************************
                     * LOEWDIN POPULATION ANALYSIS *
                     *******************************

----------------------
LOEWDIN ATOMIC CHARGES
----------------------
   0 C :   -0.003474
   1 C :   -0.003474
   2 N :    0.087535
   3 N :    0.087535
   4 C :    0.102853
   5 C :    0.054012
   6 C :    0.054012
   7 H :    0.053512
   8 H :    0.053512
   9 H :    0.053512
  10 H :    0.053512
  11 H :    0.052889
  12 H :    0.052889
  13 H :    0.057933
  14 C :   -0.046902
  15 C :   -0.046902
  16 H :    0.055679
  17 H :    0.055659
  18 H :    0.055679
  19 H :    0.055659
  20 H :    0.057184
  21 H :    0.057184

-------------------------------
LOEWDIN REDUCED ORBITAL CHARGES
-------------------------------
  0 C s       :     2.842543  s :     2.842543
      pz      :     0.935740  p :     3.024058
      px      :     1.028955
      py      :     1.059363
      dz2     :     0.047666  d :     0.136873
      dxz     :     0.018258
      dyz     :     0.036149
      dx2y2   :     0.016016
      dxy     :     0.018784
  1 C s       :     2.842543  s :     2.842543
      pz      :     0.935740  p :     3.024058
      px      :     1.028955
      py      :     1.059362
      dz2     :     0.047666  d :     0.136873
      dxz     :     0.018258
      dyz     :     0.036149
      dx2y2   :     0.016016
      dxy     :     0.018784
  2 N s       :     3.046830  s :     3.046830
      pz      :     1.199371  p :     3.790062
      px      :     1.403836
      py      :     1.186855
      dz2     :     0.017068  d :     0.075573
      dxz     :     0.012633
      dyz     :     0.027194
      dx2y2   :     0.009351
      dxy     :     0.009327
  3 N s       :     3.046830  s :     3.046830
      pz      :     1.199371  p :     3.790063
      px      :     1.403836
      py      :     1.186855
      dz2     :     0.017068  d :     0.075573
      dxz     :     0.012633
      dyz     :     0.027194
      dx2y2   :     0.009351
      dxy     :     0.009327
  4 C s       :     2.835633  s :     2.835633
      pz      :     1.018759  p :     2.902695
      px      :     0.979525
      py      :     0.904411
      dz2     :     0.030199  d :     0.158819
      dxz     :     0.009982
      dyz     :     0.059628
      dx2y2   :     0.023111
      dxy     :     0.035898
  5 C s       :     2.831833  s :     2.831833
      pz      :     1.066968  p :     3.022625
      px      :     1.099336
      py      :     0.856321
      dz2     :     0.021542  d :     0.091530
      dxz     :     0.006657
      dyz     :     0.014728
      dx2y2   :     0.024636
      dxy     :     0.023967
  6 C s       :     2.831833  s :     2.831833
      pz      :     1.066968  p :     3.022625
      px      :     1.099336
      py      :     0.856321
      dz2     :     0.021542  d :     0.091530
      dxz     :     0.006657
      dyz     :     0.014728
      dx2y2   :     0.024636
      dxy     :     0.023967
  7 H s       :     0.880252  s :     0.880252
      pz      :     0.015337  p :     0.066236
      px      :     0.034403
      py      :     0.016496
  8 H s       :     0.880252  s :     0.880252
      pz      :     0.015337  p :     0.066236
      px      :     0.034403
      py      :     0.016496
  9 H s       :     0.880252  s :     0.880252
      pz      :     0.015337  p :     0.066236
      px      :     0.034403
      py      :     0.016496
 10 H s       :     0.880252  s :     0.880252
      pz      :     0.015337  p :     0.066236
      px      :     0.034403
      py      :     0.016496
 11 H s       :     0.880989  s :     0.880989
      pz      :     0.044759  p :     0.066122
      px      :     0.013012
      py      :     0.008351
 12 H s       :     0.880989  s :     0.880989
      pz      :     0.044759  p :     0.066122
      px      :     0.013012
      py      :     0.008351
 13 H s       :     0.869437  s :     0.869437
      pz      :     0.050935  p :     0.072630
      px      :     0.014861
      py      :     0.006834
 14 C s       :     2.821532  s :     2.821532
      pz      :     1.035116  p :     3.154823
      px      :     1.079330
      py      :     1.040377
      dz2     :     0.016044  d :     0.070548
      dxz     :     0.003623
      dyz     :     0.022740
      dx2y2   :     0.006362
      dxy     :     0.021779
 15 C s       :     2.821532  s :     2.821532
      pz      :     1.035116  p :     3.154823
      px      :     1.079330
      py      :     1.040377
      dz2     :     0.016044  d :     0.070548
      dxz     :     0.003623
      dyz     :     0.022740
      dx2y2   :     0.006362
      dxy     :     0.021779
 16 H s       :     0.878009  s :     0.878009
      pz      :     0.012003  p :     0.066312
      px      :     0.032120
      py      :     0.022188
 17 H s       :     0.878015  s :     0.878015
      pz      :     0.012007  p :     0.066325
      px      :     0.032124
      py      :     0.022194
 18 H s       :     0.878009  s :     0.878009
      pz      :     0.012003  p :     0.066312
      px      :     0.032120
      py      :     0.022188
 19 H s       :     0.878015  s :     0.878015
      pz      :     0.012007  p :     0.066325
      px      :     0.032124
      py      :     0.022194
 20 H s       :     0.876225  s :     0.876225
      pz      :     0.035642  p :     0.066591
      px      :     0.012596
      py      :     0.018353
 21 H s       :     0.876225  s :     0.876225
      pz      :     0.035642  p :     0.066591
      px      :     0.012596
      py      :     0.018353


                      *****************************
                      * MAYER POPULATION ANALYSIS *
                      *****************************

  NA   - Mulliken gross atomic population
  ZA   - Total nuclear charge
  QA   - Mulliken gross atomic charge
  VA   - Mayer's total valence
  BVA  - Mayer's bonded valence
  FA   - Mayer's free valence

  ATOM       NA         ZA         QA         VA         BVA        FA
  0 C      6.0889     6.0000    -0.0889     4.0394     4.0394    -0.0000
  1 C      6.0889     6.0000    -0.0889     4.0394     4.0394    -0.0000
  2 N      7.2220     7.0000    -0.2220     3.4972     3.4972    -0.0000
  3 N      7.2220     7.0000    -0.2220     3.4972     3.4972    -0.0000
  4 C      5.8060     6.0000     0.1940     3.8686     3.8686    -0.0000
  5 C      5.9296     6.0000     0.0704     3.8628     3.8628    -0.0000
  6 C      5.9296     6.0000     0.0704     3.8628     3.8628    -0.0000
  7 H      0.9015     1.0000     0.0985     0.9908     0.9908    -0.0000
  8 H      0.9015     1.0000     0.0985     0.9908     0.9908    -0.0000
  9 H      0.9015     1.0000     0.0985     0.9908     0.9908     0.0000
 10 H      0.9015     1.0000     0.0985     0.9908     0.9908     0.0000
 11 H      0.9105     1.0000     0.0895     0.9963     0.9963    -0.0000
 12 H      0.9105     1.0000     0.0895     0.9963     0.9963    -0.0000
 13 H      0.8841     1.0000     0.1159     0.9973     0.9973     0.0000
 14 C      5.9244     6.0000     0.0756     3.9514     3.9514     0.0000
 15 C      5.9244     6.0000     0.0756     3.9514     3.9514    -0.0000
 16 H      0.9206     1.0000     0.0794     0.9933     0.9933     0.0000
 17 H      0.9207     1.0000     0.0793     0.9933     0.9933    -0.0000
 18 H      0.9206     1.0000     0.0794     0.9933     0.9933    -0.0000
 19 H      0.9207     1.0000     0.0793     0.9933     0.9933    -0.0000
 20 H      0.9351     1.0000     0.0649     1.0048     1.0048     0.0000
 21 H      0.9351     1.0000     0.0649     1.0048     1.0048     0.0000

  Mayer bond orders larger than 0.100000
B(  0-C ,  1-C ) :   1.6262 B(  0-C ,  2-N ) :   1.1616 B(  0-C , 14-C ) :   1.0823 
B(  1-C ,  3-N ) :   1.1616 B(  1-C , 15-C ) :   1.0823 B(  2-N ,  4-C ) :   1.3525 
B(  2-N ,  5-C ) :   0.9046 B(  3-N ,  4-C ) :   1.3525 B(  3-N ,  6-C ) :   0.9046 
B(  4-C , 13-H ) :   0.9691 B(  5-C ,  7-H ) :   0.9711 B(  5-C , 10-H ) :   0.9711 
B(  5-C , 11-H ) :   0.9705 B(  6-C ,  8-H ) :   0.9711 B(  6-C ,  9-H ) :   0.9711 
B(  6-C , 12-H ) :   0.9705 B( 14-C , 16-H ) :   0.9491 B( 14-C , 19-H ) :   0.9491 
B( 14-C , 20-H ) :   0.9414 B( 15-C , 17-H ) :   0.9491 B( 15-C , 18-H ) :   0.9491 
B( 15-C , 21-H ) :   0.9414 

-------
TIMINGS
-------

Total SCF time: 0 days 0 hours 1 min 8 sec 

Total time                  ....      68.292 sec
Sum of individual times     ....      67.984 sec  ( 99.5%)

Fock matrix formation       ....      66.155 sec  ( 96.9%)
  Split-RI-J                ....       2.633 sec  (  4.0% of F)
  Chain of spheres X        ....      55.006 sec  ( 83.1% of F)
  XC integration            ....       8.379 sec  ( 12.7% of F)
    Basis function eval.    ....       1.930 sec  ( 23.0% of XC)
    Density eval.           ....       1.435 sec  ( 17.1% of XC)
    XC-Functional eval.     ....       0.798 sec  (  9.5% of XC)
    XC-Potential eval.      ....       1.128 sec  ( 13.5% of XC)
Diagonalization             ....       0.074 sec  (  0.1%)
Density matrix formation    ....       0.007 sec  (  0.0%)
Population analysis         ....       0.012 sec  (  0.0%)
Initial guess               ....       0.200 sec  (  0.3%)
Orbital Transformation      ....       0.000 sec  (  0.0%)
Orbital Orthonormalization  ....       0.000 sec  (  0.0%)
DIIS solution               ....       0.043 sec  (  0.1%)
SOSCF solution              ....       0.052 sec  (  0.1%)
Grid generation             ....       1.441 sec  (  2.1%)

Maximum memory used throughout the entire SCF-calculation: 56.8 MB


-------------------------------------------------------------------------------
                          DFT DISPERSION CORRECTION                            
                                                                               
                                 DFTD4 V2.5                                    
-------------------------------------------------------------------------------
The WB97X functional is recognized
Active option DFTDOPT                   ...         5   

Starting D4
-------------------------   ----------------
Dispersion correction           -0.002863952
-------------------------   ----------------


-------------------------   --------------------
FINAL SINGLE POINT ENERGY      -383.509121761703
-------------------------   --------------------


                            ***************************************
                            *     ORCA property calculations      *
                            ***************************************

                                    ---------------------
                                    Active property flags
                                    ---------------------
   (+) Dipole Moment


------------------------------------------------------------------------------
                       ORCA ELECTRIC PROPERTIES CALCULATION
------------------------------------------------------------------------------

Dipole Moment Calculation                       ... on
Quadrupole Moment Calculation                   ... off
Polarizability Calculation                      ... off
GBWName                                         ... DFT_water_outs/2+-gasSP.gbw
Electron density                                ... DFT_water_outs/2+-gasSP.scfp
The origin for moment calculation is the CENTER OF MASS  = ( 0.000000,  0.000000  0.036789)

-------------
DIPOLE MOMENT
-------------
                                X             Y             Z
Electronic contribution:     -0.00000      -0.00000       3.24842
Nuclear contribution   :      0.00000       0.00000      -2.45967
                        -----------------------------------------
Total Dipole Moment    :     -0.00000      -0.00000       0.78875
                        -----------------------------------------
Magnitude (a.u.)       :      0.78875
Magnitude (Debye)      :      2.00484



--------------------
Rotational spectrum 
--------------------
 
Rotational constants in cm-1:     0.081294     0.050365     0.031856 
Rotational constants in MHz :  2437.147006  1509.897264   955.032238 

 Dipole components along the rotational axes: 
x,y,z [a.u.] :     0.000000     0.788750    -0.000000 
x,y,z [Debye]:     0.000001     2.004843    -0.000000 

 

Timings for individual modules:

Sum of individual times         ...       69.239 sec (=   1.154 min)
GTO integral calculation        ...        0.588 sec (=   0.010 min)   0.8 %
SCF iterations                  ...       68.651 sec (=   1.144 min)  99.2 %
                             ****ORCA TERMINATED NORMALLY****
TOTAL RUN TIME: 0 days 0 hours 1 minutes 9 seconds 867 msec
