
                                 *****************
                                 * O   R   C   A *
                                 *****************

                                            #,                                       
                                            ###                                      
                                            ####                                     
                                            #####                                    
                                            ######                                   
                                           ########,                                 
                                     ,,################,,,,,                         
                               ,,#################################,,                 
                          ,,##########################################,,             
                       ,#########################################, ''#####,          
                    ,#############################################,,   '####,        
                  ,##################################################,,,,####,       
                ,###########''''           ''''###############################       
              ,#####''   ,,,,##########,,,,          '''####'''          '####       
            ,##' ,,,,###########################,,,                        '##       
           ' ,,###''''                  '''############,,,                           
         ,,##''                                '''############,,,,        ,,,,,,###''
      ,#''                                            '''#######################'''  
     '                                                          ''''####''''         
             ,#######,   #######,   ,#######,      ##                                
            ,#'     '#,  ##    ##  ,#'     '#,    #''#        ######   ,####,        
            ##       ##  ##   ,#'  ##            #'  '#       #        #'  '#        
            ##       ##  #######   ##           ,######,      #####,   #    #        
            '#,     ,#'  ##    ##  '#,     ,#' ,#      #,         ##   #,  ,#        
             '#######'   ##     ##  '#######'  #'      '#     #####' # '####'        



                  #######################################################
                  #                        -***-                        #
                  #          Department of theory and spectroscopy      #
                  #    Directorship and core code : Frank Neese         #
                  #        Max Planck Institute fuer Kohlenforschung    #
                  #                Kaiser Wilhelm Platz 1               #
                  #                 D-45470 Muelheim/Ruhr               #
                  #                      Germany                        #
                  #                                                     #
                  #                  All rights reserved                #
                  #                        -***-                        #
                  #######################################################


                         Program Version 5.0.4 -  RELEASE  -


 With contributions from (in alphabetic order):
   Daniel Aravena         : Magnetic Suceptibility
   Michael Atanasov       : Ab Initio Ligand Field Theory (pilot matlab implementation)
   Alexander A. Auer      : GIAO ZORA, VPT2 properties, NMR spectrum
   Ute Becker             : Parallelization
   Giovanni Bistoni       : ED, misc. LED, open-shell LED, HFLD
   Martin Brehm           : Molecular dynamics
   Dmytro Bykov           : SCF Hessian
   Vijay G. Chilkuri      : MRCI spin determinant printing, contributions to CSF-ICE
   Dipayan Datta          : RHF DLPNO-CCSD density
   Achintya Kumar Dutta   : EOM-CC, STEOM-CC
   Dmitry Ganyushin       : Spin-Orbit,Spin-Spin,Magnetic field MRCI
   Miquel Garcia          : C-PCM and meta-GGA Hessian, CC/C-PCM, Gaussian charge scheme
   Yang Guo               : DLPNO-NEVPT2, F12-NEVPT2, CIM, IAO-localization
   Andreas Hansen         : Spin unrestricted coupled pair/coupled cluster methods
   Benjamin Helmich-Paris : MC-RPA, TRAH-SCF, COSX integrals
   Lee Huntington         : MR-EOM, pCC
   Robert Izsak           : Overlap fitted RIJCOSX, COSX-SCS-MP3, EOM
   Marcus Kettner         : VPT2
   Christian Kollmar      : KDIIS, OOCD, Brueckner-CCSD(T), CCSD density, CASPT2, CASPT2-K
   Simone Kossmann        : Meta GGA functionals, TD-DFT gradient, OOMP2, MP2 Hessian
   Martin Krupicka        : Initial AUTO-CI
   Lucas Lang             : DCDCAS
   Marvin Lechner         : AUTO-CI (C++ implementation), FIC-MRCC
   Dagmar Lenk            : GEPOL surface, SMD
   Dimitrios Liakos       : Extrapolation schemes; Compound Job, initial MDCI parallelization
   Dimitrios Manganas     : Further ROCIS development; embedding schemes
   Dimitrios Pantazis     : SARC Basis sets
   Anastasios Papadopoulos: AUTO-CI, single reference methods and gradients
   Taras Petrenko         : DFT Hessian,TD-DFT gradient, ASA, ECA, R-Raman, ABS, FL, XAS/XES, NRVS
   Peter Pinski           : DLPNO-MP2, DLPNO-MP2 Gradient
   Christoph Reimann      : Effective Core Potentials
   Marius Retegan         : Local ZFS, SOC
   Christoph Riplinger    : Optimizer, TS searches, QM/MM, DLPNO-CCSD(T), (RO)-DLPNO pert. Triples
   Tobias Risthaus        : Range-separated hybrids, TD-DFT gradient, RPA, STAB
   Michael Roemelt        : Original ROCIS implementation
   Masaaki Saitow         : Open-shell DLPNO-CCSD energy and density
   Barbara Sandhoefer     : DKH picture change effects
   Avijit Sen             : IP-ROCIS
   Kantharuban Sivalingam : CASSCF convergence, NEVPT2, FIC-MRCI
   Bernardo de Souza      : ESD, SOC TD-DFT
   Georgi Stoychev        : AutoAux, RI-MP2 NMR, DLPNO-MP2 response
   Willem Van den Heuvel  : Paramagnetic NMR
   Boris Wezisla          : Elementary symmetry handling
   Frank Wennmohs         : Technical directorship


 We gratefully acknowledge several colleagues who have allowed us to
 interface, adapt or use parts of their codes:
   Stefan Grimme, W. Hujo, H. Kruse, P. Pracht,  : VdW corrections, initial TS optimization,
                  C. Bannwarth, S. Ehlert          DFT functionals, gCP, sTDA/sTD-DF
   Ed Valeev, F. Pavosevic, A. Kumar             : LibInt (2-el integral package), F12 methods
   Garnet Chan, S. Sharma, J. Yang, R. Olivares  : DMRG
   Ulf Ekstrom                                   : XCFun DFT Library
   Mihaly Kallay                                 : mrcc  (arbitrary order and MRCC methods)
   Jiri Pittner, Ondrej Demel                    : Mk-CCSD
   Frank Weinhold                                : gennbo (NPA and NBO analysis)
   Christopher J. Cramer and Donald G. Truhlar   : smd solvation model
   Lars Goerigk                                  : TD-DFT with DH, B97 family of functionals
   V. Asgeirsson, H. Jonsson                     : NEB implementation
   FAccTs GmbH                                   : IRC, NEB, NEB-TS, DLPNO-Multilevel, CI-OPT
                                                   MM, QMMM, 2- and 3-layer-ONIOM, Crystal-QMMM,
                                                   LR-CPCM, SF, NACMEs, symmetry and pop. for TD-DFT,
                                                   nearIR, NL-DFT gradient (VV10), updates on ESD,
                                                   ML-optimized integration grids
   S Lehtola, MJT Oliveira, MAL Marques          : LibXC Library
   Liviu Ungur et al                             : ANISO software


 Your calculation uses the libint2 library for the computation of 2-el integrals
 For citations please refer to: http://libint.valeyev.net

 Your ORCA version has been built with support for libXC version: 5.1.0
 For citations please refer to: https://tddft.org/programs/libxc/

 This ORCA versions uses:
   CBLAS   interface :  Fast vector & matrix operations
   LAPACKE interface :  Fast linear algebra routines
   SCALAPACK package :  Parallel linear algebra routines
   Shared memory     :  Shared parallel matrices
   BLAS/LAPACK       :  OpenBLAS 0.3.15  USE64BITINT DYNAMIC_ARCH NO_AFFINITY SkylakeX SINGLE_THREADED
        Core in use  :  SkylakeX
   Copyright (c) 2011-2014, The OpenBLAS Project




***************************************
The coordinates will be read from file: 2+.xyz
***************************************


Your calculation utilizes the atom-pairwise dispersion correction
based on tight binding partial charges (D4)
Cite in your paper:
E.Caldeweyher, C.Bannwarth, S.Grimme, J.Chem.Phys., (2017), 147, 034112.
E.Caldeweyher, S.Ehlert, A.Hansen, H.Neugebauer, S.Grimme, J.Chem.Phys., (2018), in progress.
   

XCFun DFT library Copyright 2009-2010 Ulf Ekstrom and contributors.
See http://admol.org/xcfun for more information.
This is free software; see the source code for copying conditions.
There is ABSOLUTELY NO WARRANTY; not even for MERCHANTABILITY or FITNESS FOR A PARTICULAR PURPOSE.
For details see the documentation.
Scientific users of this library should cite U. Ekstrom, L. Visscher, R. Bast, A. J. Thorvaldsen and K. Ruud;
J.Chem.Theor.Comp. 2010, DOI: 10.1021/ct100117s
XCFun Version 0.99 

================================================================================

----- Orbital basis set information -----
Your calculation utilizes the basis: def2-SVP
   F. Weigend and R. Ahlrichs, Phys. Chem. Chem. Phys. 7, 3297 (2005).

----- AuxJ basis set information -----
Your calculation utilizes the auxiliary basis: def2/J
   F. Weigend, Phys. Chem. Chem. Phys. 8, 1057 (2006).

================================================================================
                                        WARNINGS
                       Please study these warnings very carefully!
================================================================================


INFO   : the flag for use of the SHARK integral package has been found!

================================================================================
                                       INPUT FILE
================================================================================
NAME = 2+.inp
|  1> # ORCA 5.0.4 - 2+.inp # write input file
|  2> # Basic Mode
|  3> #
|  4> ! Freq wB97X Def2-SVP D4 SlowConv TightSCF DEFGRID2 Def2/J RIJCOSX 
|  5> 
|  6> 
|  7> 
|  8> %maxcore 4500
|  9> 
| 10> %geom
| 11> Maxiter 150
| 12> END
| 13> 
| 14> * xyzfile 1 1 2+.xyz
| 15> 
| 16>                          ****END OF INPUT****
================================================================================

                       ****************************
                       * Single Point Calculation *
                       ****************************

---------------------------------
CARTESIAN COORDINATES (ANGSTROEM)
---------------------------------
  C     -0.000000    0.684782   -0.659265
  C     -0.000000   -0.684782   -0.659265
  N     -0.000000    1.080134    0.669636
  N      0.000000   -1.080134    0.669637
  C     -0.000000    0.000000    1.443801
  C     -0.000000    2.459968    1.134552
  C      0.000001   -2.459968    1.134552
  H     -0.897604    2.972470    0.764011
  H     -0.897603   -2.972471    0.764012
  H      0.897605   -2.972470    0.764012
  H      0.897604    2.972470    0.764013
  H     -0.000001    2.465096    2.230640
  H      0.000000   -2.465097    2.230640
  H     -0.000000    0.000000    2.533890
  C      0.000000    1.668349   -1.776878
  C     -0.000001   -1.668349   -1.776877
  H      0.891150    2.313551   -1.737182
  H      0.891148   -2.313551   -1.737182
  H     -0.891150   -2.313551   -1.737181
  H     -0.891149    2.313551   -1.737182
  H      0.000000    1.141061   -2.739330
  H     -0.000001   -1.141061   -2.739329

----------------------------
CARTESIAN COORDINATES (A.U.)
----------------------------
  NO LB      ZA    FRAG     MASS         X           Y           Z
   0 C     6.0000    0    12.011   -0.000000    1.294050   -1.245830
   1 C     6.0000    0    12.011   -0.000000   -1.294050   -1.245830
   2 N     7.0000    0    14.007   -0.000000    2.041157    1.265429
   3 N     7.0000    0    14.007    0.000000   -2.041157    1.265431
   4 C     6.0000    0    12.011   -0.000000    0.000000    2.728388
   5 C     6.0000    0    12.011   -0.000000    4.648666    2.143993
   6 C     6.0000    0    12.011    0.000002   -4.648666    2.143993
   7 H     1.0000    0     1.008   -1.696226    5.617154    1.443772
   8 H     1.0000    0     1.008   -1.696224   -5.617156    1.443773
   9 H     1.0000    0     1.008    1.696228   -5.617154    1.443773
  10 H     1.0000    0     1.008    1.696226    5.617154    1.443775
  11 H     1.0000    0     1.008   -0.000002    4.658356    4.215299
  12 H     1.0000    0     1.008    0.000000   -4.658358    4.215299
  13 H     1.0000    0     1.008   -0.000000    0.000000    4.788358
  14 C     6.0000    0    12.011    0.000000    3.152723   -3.357813
  15 C     6.0000    0    12.011   -0.000002   -3.152723   -3.357811
  16 H     1.0000    0     1.008    1.684029    4.371978   -3.282798
  17 H     1.0000    0     1.008    1.684026   -4.371978   -3.282798
  18 H     1.0000    0     1.008   -1.684029   -4.371978   -3.282796
  19 H     1.0000    0     1.008   -1.684028    4.371978   -3.282798
  20 H     1.0000    0     1.008    0.000000    2.156293   -5.176583
  21 H     1.0000    0     1.008   -0.000002   -2.156293   -5.176582

--------------------------------
INTERNAL COORDINATES (ANGSTROEM)
--------------------------------
 C      0   0   0     0.000000000000     0.00000000     0.00000000
 C      1   0   0     1.369564000000     0.00000000     0.00000000
 N      1   2   0     1.386463512576   106.56789820     0.00000000
 N      2   1   3     1.386464471059   106.56788642     0.00000000
 C      4   2   1     1.328916610195   109.06240272     0.00000000
 C      3   1   2     1.456052455996   125.18843101   180.00000000
 C      4   2   1     1.456052136698   125.18838194   180.00004815
 H      6   3   1     1.098021800103   109.54617564    60.16524255
 H      7   4   2     1.098021929392   109.54622782   299.83468109
 H      7   4   2     1.098021462641   109.54625226    60.16526485
 H      6   3   1     1.098021125180   109.54622351   299.83466642
 H      6   3   1     1.096099995497   108.88858667   179.99994475
 H      7   4   2     1.096100000176   108.88860165   180.00004096
 H      5   4   2     1.090089000000   125.63028914   180.00000085
 C      1   2   3     1.488778983348   131.34972911   180.00000000
 C      2   1   3     1.488778232657   131.34975454   179.99994873
 H     15   1   2     1.100913128144   111.10726867   240.19001671
 H     16   2   1     1.100912282623   111.10730678   119.80999701
 H     16   2   1     1.100912318680   111.10733096   240.19002398
 H     15   1   2     1.100912318680   111.10728493   119.81001102
 H     15   1   2     1.097427212733   109.93374246     0.00000000
 H     16   2   1     1.097427212733   109.93371703     0.00000000

---------------------------
INTERNAL COORDINATES (A.U.)
---------------------------
 C      0   0   0     0.000000000000     0.00000000     0.00000000
 C      1   0   0     2.588100882878     0.00000000     0.00000000
 N      1   2   0     2.620036333443   106.56789820     0.00000000
 N      2   1   3     2.620038144713   106.56788642     0.00000000
 C      4   2   1     2.511288448087   109.06240272     0.00000000
 C      3   1   2     2.751540378456   125.18843101   180.00000000
 C      4   2   1     2.751539775070   125.18838194   180.00004815
 H      6   3   1     2.074960491270   109.54617564    60.16524255
 H      7   4   2     2.074960735590   109.54622782   299.83468109
 H      7   4   2     2.074959853559   109.54625226    60.16526485
 H      6   3   1     2.074959215850   109.54622351   299.83466642
 H      6   3   1     2.071328806882   108.88858667   179.99994475
 H      7   4   2     2.071328815724   108.88860165   180.00004096
 H      5   4   2     2.059969671600   125.63028914   180.00000085
 C      1   2   3     2.813384552465   131.34972911   180.00000000
 C      2   1   3     2.813383133865   131.34975454   179.99994873
 H     15   1   2     2.080424309431   111.10726867   240.19001671
 H     16   2   1     2.080422711627   111.10730678   119.80999701
 H     16   2   1     2.080422779765   111.10733096   240.19002398
 H     15   1   2     2.080422779765   111.10728493   119.81001102
 H     15   1   2     2.073836883979   109.93374246     0.00000000
 H     16   2   1     2.073836883979   109.93371703     0.00000000

---------------------
BASIS SET INFORMATION
---------------------
There are 3 groups of distinct atoms

 Group   1 Type C   : 7s4p1d contracted to 3s2p1d pattern {511/31/1}
 Group   2 Type N   : 7s4p1d contracted to 3s2p1d pattern {511/31/1}
 Group   3 Type H   : 4s1p contracted to 2s1p pattern {31/1}

Atom   0C    basis set group =>   1
Atom   1C    basis set group =>   1
Atom   2N    basis set group =>   2
Atom   3N    basis set group =>   2
Atom   4C    basis set group =>   1
Atom   5C    basis set group =>   1
Atom   6C    basis set group =>   1
Atom   7H    basis set group =>   3
Atom   8H    basis set group =>   3
Atom   9H    basis set group =>   3
Atom  10H    basis set group =>   3
Atom  11H    basis set group =>   3
Atom  12H    basis set group =>   3
Atom  13H    basis set group =>   3
Atom  14C    basis set group =>   1
Atom  15C    basis set group =>   1
Atom  16H    basis set group =>   3
Atom  17H    basis set group =>   3
Atom  18H    basis set group =>   3
Atom  19H    basis set group =>   3
Atom  20H    basis set group =>   3
Atom  21H    basis set group =>   3
---------------------------------
AUXILIARY/J BASIS SET INFORMATION
---------------------------------
There are 3 groups of distinct atoms

 Group   1 Type C   : 12s5p4d2f1g contracted to 6s4p3d1f1g pattern {711111/2111/211/2/1}
 Group   2 Type N   : 12s5p4d2f1g contracted to 6s4p3d1f1g pattern {711111/2111/211/2/1}
 Group   3 Type H   : 5s2p1d contracted to 3s1p1d pattern {311/2/1}

Atom   0C    basis set group =>   1
Atom   1C    basis set group =>   1
Atom   2N    basis set group =>   2
Atom   3N    basis set group =>   2
Atom   4C    basis set group =>   1
Atom   5C    basis set group =>   1
Atom   6C    basis set group =>   1
Atom   7H    basis set group =>   3
Atom   8H    basis set group =>   3
Atom   9H    basis set group =>   3
Atom  10H    basis set group =>   3
Atom  11H    basis set group =>   3
Atom  12H    basis set group =>   3
Atom  13H    basis set group =>   3
Atom  14C    basis set group =>   1
Atom  15C    basis set group =>   1
Atom  16H    basis set group =>   3
Atom  17H    basis set group =>   3
Atom  18H    basis set group =>   3
Atom  19H    basis set group =>   3
Atom  20H    basis set group =>   3
Atom  21H    basis set group =>   3
------------------------------------------------------------------------------
                           ORCA GTO INTEGRAL CALCULATION
                           -- RI-GTO INTEGRALS CHOSEN --
------------------------------------------------------------------------------
------------------------------------------------------------------------------
                   ___                                                        
                  /   \      - P O W E R E D   B Y -                         
                 /     \                                                     
                 |  |  |   _    _      __       _____    __    __             
                 |  |  |  | |  | |    /  \     |  _  \  |  |  /  |          
                  \  \/   | |  | |   /    \    | | | |  |  | /  /          
                 / \  \   | |__| |  /  /\  \   | |_| |  |  |/  /          
                |  |  |   |  __  | /  /__\  \  |    /   |      \           
                |  |  |   | |  | | |   __   |  |    \   |  |\   \          
                \     /   | |  | | |  |  |  |  | |\  \  |  | \   \       
                 \___/    |_|  |_| |__|  |__|  |_| \__\ |__|  \__/        
                                                                              
                      - O R C A' S   B I G   F R I E N D -                    
                                      &                                       
                       - I N T E G R A L  F E E D E R -                       
                                                                              
 v1 FN, 2020, v2 2021                                                         
------------------------------------------------------------------------------


Reading SHARK input file 2+.SHARKINP.tmp ... ok
----------------------
SHARK INTEGRAL PACKAGE
----------------------

Number of atoms                             ...     22
Number of basis functions                   ...    191
Number of shells                            ...     93
Maximum angular momentum                    ...      2
Integral batch strategy                     ... SHARK/LIBINT Hybrid
RI-J (if used) integral strategy            ... SPLIT-RIJ (Revised 2003 algorithm where possible)
Printlevel                                  ...      1
Contraction scheme used                     ... SEGMENTED contraction
Coulomb Range Separation                    ... NOT USED
Exchange Range Separation                   ... Long Range
   Mu parameter                             ...  0.300000
   Scaling (regular/separated)              ...  0.157706  0.842294
Finite Nucleus Model                        ... NOT USED
Auxiliary Coulomb fitting basis             ... AVAILABLE
   # of basis functions in Aux-J            ...    584
   # of shells in Aux-J                     ...    200
   Maximum angular momentum in Aux-J        ...      4
Auxiliary J/K fitting basis                 ... NOT available
Auxiliary Correlation fitting basis         ... NOT available
Auxiliary 'external' fitting basis          ... NOT available
Integral threshold                          ...     2.500000e-11
Primitive cut-off                           ...     2.500000e-12
Primitive pair pre-selection threshold      ...     2.500000e-12

Calculating pre-screening integrals         ... done (  0.0 sec) Dimension = 93
Organizing shell pair data                  ... done (  0.0 sec)
Shell pair information
Total number of shell pairs                 ...      4371
Shell pairs after pre-screening             ...      4050
Total number of primitive shell pairs       ...     15207
Primitive shell pairs kept                  ...     10320
          la=0 lb=0:   1352 shell pairs
          la=1 lb=0:   1511 shell pairs
          la=1 lb=1:    443 shell pairs
          la=2 lb=0:    441 shell pairs
          la=2 lb=1:    261 shell pairs
          la=2 lb=2:     42 shell pairs

Calculating one electron integrals          ... done (  0.0 sec)
Calculating RI/J V-Matrix + Cholesky decomp.... done (  0.0 sec)
Calculating Nuclear repulsion               ... done (  0.0 sec) ENN=    474.316303278091 Eh

SHARK setup successfully completed in   0.3 seconds

Maximum memory used throughout the entire GTOINT-calculation: 27.3 MB
-------------------------------------------------------------------------------
                                 ORCA SCF
-------------------------------------------------------------------------------

------------
SCF SETTINGS
------------
Hamiltonian:
 Density Functional     Method          .... DFT(GTOs)
 Exchange Functional    Exchange        .... WB97X
 Correlation Functional Correlation     .... WB97X
 Gradients option       PostSCFGGA      .... off
 Hybrid DFT is turned on
   Fraction HF Exchange ScalHFX         ....  0.157706
   Scaling of DF-GGA-X  ScalDFX         ....  0.000000
   Scaling of DF-GGA-C  ScalDFC         ....  1.000000
   Scaling of DF-LDA-C  ScalLDAC        ....  1.000000
   Perturbative correction              ....  0.000000
   Density functional embedding theory  .... OFF
 Long-range corrected/Screened/Range-Separated Hybrid DFT is turned on
   Amount of maximum screened exact exchange              ....  0.842294
   Range separation parameter mu (erf(mu*r12)/r12)        ....  0.300000
 RI-approximation to the Coulomb term is turned on
   Number of AuxJ basis functions       .... 584
   RIJ-COSX (HFX calculated with COS-X)).... on


General Settings:
 Integral files         IntName         .... 2+
 Hartree-Fock type      HFTyp           .... RHF
 Total Charge           Charge          ....    1
 Multiplicity           Mult            ....    1
 Number of Electrons    NEL             ....   68
 Basis Dimension        Dim             ....  191
 Nuclear Repulsion      ENuc            ....    474.3163032781 Eh

Convergence Acceleration:
 DIIS                   CNVDIIS         .... on
   Start iteration      DIISMaxIt       ....     0
   Startup error        DIISStart       ....  0.200000
   # of expansion vecs  DIISMaxEq       ....     5
   Bias factor          DIISBfac        ....   1.050
   Max. coefficient     DIISMaxC        ....  10.000
 Trust-Rad. Augm. Hess. CNVTRAH         .... auto
   Auto Start mean grad. ratio tolernc. ....  1.125000
   Auto Start start iteration           ....    20
   Auto Start num. interpolation iter.  ....    10
   Max. Number of Micro iterations      ....    16
   Max. Number of Macro iterations      .... Maxiter - #DIIS iter
   Number of Davidson start vectors     ....     2
   Converg. threshold I  (grad. norm)   ....   1.000e-05
   Converg. threshold II (energy diff.) ....   1.000e-08
   Grad. Scal. Fac. for Micro threshold ....   0.100
   Minimum threshold for Micro iter.    ....   0.010
   NR start threshold (gradient norm)   ....   0.001
   Initial trust radius                 ....   0.400
   Minimum AH scaling param. (alpha)    ....   1.000
   Maximum AH scaling param. (alpha)    .... 1000.000
   Orbital update algorithm             .... Taylor
   White noise on init. David. guess    .... on
   Maximum white noise                  ....   0.010
   Quad. conv. algorithm                .... NR
 SOSCF                  CNVSOSCF        .... on
   Start iteration      SOSCFMaxIt      ....   150
   Startup grad/error   SOSCFStart      ....  0.001000
 Level Shifting         CNVShift        .... on
   Level shift para.    LevelShift      ....    0.2500
   Turn off err/grad.   ShiftErr        ....    0.0000
 Zerner damping         CNVZerner       .... off
 Static damping         CNVDamp         .... on
   Fraction old density DampFac         ....    0.8500
   Max. Damping (<1)    DampMax         ....    0.9800
   Min. Damping (>=0)   DampMin         ....    0.0000
   Turn off err/grad.   DampErr         ....    0.0300
 Fernandez-Rico         CNVRico         .... off

SCF Procedure:
 Maximum # iterations   MaxIter         ....   125
 SCF integral mode      SCFMode         .... Direct
   Integral package                     .... SHARK and LIBINT hybrid scheme
 Reset frequency        DirectResetFreq ....    20
 Integral Threshold     Thresh          ....  2.500e-11 Eh
 Primitive CutOff       TCut            ....  2.500e-12 Eh

Convergence Tolerance:
 Convergence Check Mode ConvCheckMode   .... Total+1el-Energy
 Convergence forced     ConvForced      .... 0
 Energy Change          TolE            ....  1.000e-08 Eh
 1-El. energy change                    ....  1.000e-05 Eh
 Orbital Gradient       TolG            ....  1.000e-05
 Orbital Rotation angle TolX            ....  1.000e-05
 DIIS Error             TolErr          ....  5.000e-07


Diagonalization of the overlap matrix:
Smallest eigenvalue                        ... 9.147e-04
Time for diagonalization                   ...    0.006 sec
Threshold for overlap eigenvalues          ... 1.000e-08
Number of eigenvalues below threshold      ... 0
Time for construction of square roots      ...    0.003 sec
Total time needed                          ...    0.010 sec

Time for model grid setup =    0.334 sec

------------------------------
INITIAL GUESS: MODEL POTENTIAL
------------------------------
Loading Hartree-Fock densities                     ... done
Calculating cut-offs                               ... done
Initializing the effective Hamiltonian             ... done
Setting up the integral package (SHARK)            ... done
Starting the Coulomb interaction                   ... done (   0.3 sec)
Reading the grid                                   ... done
Mapping shells                                     ... done
Starting the XC term evaluation                    ... done (   0.4 sec)
  promolecular density results
     # of electrons  =     68.999544653
     EX              =    -52.799053433
     EC              =     -2.286878979
     EX+EC           =    -55.085932412
Transforming the Hamiltonian                       ... done (   0.0 sec)
Diagonalizing the Hamiltonian                      ... done (   0.0 sec)
Back transforming the eigenvectors                 ... done (   0.0 sec)
Now organizing SCF variables                       ... done
                      ------------------
                      INITIAL GUESS DONE (   1.0 sec)
                      ------------------
-------------------
DFT GRID GENERATION
-------------------

General Integration Accuracy     IntAcc      ... 4.388
Radial Grid Type                 RadialGrid  ... OptM3 with GC (2021)
Angular Grid (max. ang.)         AngularGrid ... 4 (Lebedev-302)
Angular grid pruning method      GridPruning ... 4 (adaptive)
Weight generation scheme         WeightScheme... Becke
Basis function cutoff            BFCut       ... 1.0000e-11
Integration weight cutoff        WCut        ... 1.0000e-14
Angular grids for H and He will be reduced by one unit
Partially contracted basis set               ... off
Rotationally invariant grid construction     ... off

Total number of grid points                  ...    95669
Total number of batches                      ...     1505
Average number of points per batch           ...       63
Average number of grid points per atom       ...     4349
Time for grid setup =    1.284 sec

--------------------
COSX GRID GENERATION
--------------------

GRIDX 1
-------
General Integration Accuracy     IntAcc      ... 3.816
Radial Grid Type                 RadialGrid  ... OptM3 with GC (2021)
Angular Grid (max. ang.)         AngularGrid ... 1 (Lebedev-50)
Angular grid pruning method      GridPruning ... 4 (adaptive)
Weight generation scheme         WeightScheme... Becke
Basis function cutoff            BFCut       ... 1.0000e-11
Integration weight cutoff        WCut        ... 1.0000e-14
Angular grids for H and He will be reduced by one unit
Partially contracted basis set               ... on
Rotationally invariant grid construction     ... off

Total number of grid points                  ...    12230
Total number of batches                      ...      205
Average number of points per batch           ...       59
Average number of grid points per atom       ...      556
UseSFitting                                  ... on

GRIDX 2
-------
General Integration Accuracy     IntAcc      ... 4.020
Radial Grid Type                 RadialGrid  ... OptM3 with GC (2021)
Angular Grid (max. ang.)         AngularGrid ... 2 (Lebedev-110)
Angular grid pruning method      GridPruning ... 4 (adaptive)
Weight generation scheme         WeightScheme... Becke
Basis function cutoff            BFCut       ... 1.0000e-11
Integration weight cutoff        WCut        ... 1.0000e-14
Angular grids for H and He will be reduced by one unit
Partially contracted basis set               ... on
Rotationally invariant grid construction     ... off

Total number of grid points                  ...    25755
Total number of batches                      ...      415
Average number of points per batch           ...       62
Average number of grid points per atom       ...     1171
UseSFitting                                  ... on

GRIDX 3
-------
General Integration Accuracy     IntAcc      ... 4.338
Radial Grid Type                 RadialGrid  ... OptM3 with GC (2021)
Angular Grid (max. ang.)         AngularGrid ... 3 (Lebedev-194)
Angular grid pruning method      GridPruning ... 4 (adaptive)
Weight generation scheme         WeightScheme... Becke
Basis function cutoff            BFCut       ... 1.0000e-11
Integration weight cutoff        WCut        ... 1.0000e-14
Angular grids for H and He will be reduced by one unit
Partially contracted basis set               ... on
Rotationally invariant grid construction     ... off

Total number of grid points                  ...    56319
Total number of batches                      ...      890
Average number of points per batch           ...       63
Average number of grid points per atom       ...     2560
UseSFitting                                  ... on

Time for X-Grid setup             =    1.599 sec

--------------
SCF ITERATIONS
--------------
ITER       Energy         Delta-E        Max-DP      RMS-DP      [F,P]     Damp
               ***  Starting incremental Fock matrix formation  ***
  0   -383.3706272810   0.000000000000 0.03069277  0.00071593  0.1436781 0.8500
  1   -383.3983771295  -0.027749848549 0.02769681  0.00066589  0.1155541 0.8500
                               ***Turning on DIIS***
  2   -383.4195341161  -0.021156986547 0.02175382  0.00054659  0.0885228 0.8500
  3   -383.4353196835  -0.015785567440 0.01377778  0.00040463  0.0669590 0.8500
  4   -383.4475389758  -0.012219292256 0.00935498  0.00032003  0.0532771 0.8500
  5   -383.4571831788  -0.009644203009 0.00719572  0.00026683  0.0441112 0.8500
  6   -383.4650319275  -0.007848748658 0.00589838  0.00022657  0.0371666 0.8500
  7   -383.4715319390  -0.006500011497 0.00509218  0.00019493  0.0315188 0.8500
  8   -383.4769711988  -0.005439259858 0.02913139  0.00111547  0.0266536 0.0000
  9   -383.5061989777  -0.029227778864 0.00118078  0.00003273  0.0011978 0.0000
                      *** Initiating the SOSCF procedure ***
                           *** Shutting down DIIS ***
                      *** Re-Reading the Fockian *** 
                      *** Removing any level shift *** 
ITER      Energy       Delta-E        Grad      Rot      Max-DP    RMS-DP
 10   -383.50621079  -0.0000118172  0.000203  0.000203  0.000441  0.000013
               *** Restarting incremental Fock matrix formation ***
 11   -383.50628380  -0.0000730024  0.000092  0.000147  0.000359  0.000013
 12   -383.50628414  -0.0000003468  0.000075  0.000223  0.000210  0.000007
 13   -383.50628419  -0.0000000440  0.000025  0.000042  0.000064  0.000002
 14   -383.50628421  -0.0000000261  0.000005  0.000010  0.000010  0.000000
                  ***Gradient check signals convergence***
              ***Rediagonalizing the Fockian in SOSCF/NRSCF***

               *****************************************************
               *                     SUCCESS                       *
               *           SCF CONVERGED AFTER  15 CYCLES          *
               *****************************************************

Old exchange energy                            =    -17.444475809 Eh
New exchange energy                            =    -17.444449240 Eh
Exchange energy change after final integration =      0.000026569 Eh
Total energy after final integration           =   -383.506257650 Eh
Final COS-X integration done in                =    35.556 sec

----------------
TOTAL SCF ENERGY
----------------

Total Energy       :         -383.50625765 Eh          -10435.73581 eV

Components:
Nuclear Repulsion  :          474.31630328 Eh           12906.80278 eV
Electronic Energy  :         -857.82256093 Eh          -23342.53859 eV
One Electron Energy:        -1444.01327456 Eh          -39293.59885 eV
Two Electron Energy:          586.19071363 Eh           15951.06025 eV
Max COSX asymmetry :            0.00000150 Eh               0.00004 eV

Virial components:
Potential Energy   :         -762.43522028 Eh          -20746.91710 eV
Kinetic Energy     :          378.92896263 Eh           10311.18128 eV
Virial Ratio       :            2.01207956


DFT components:
N(Alpha)           :       34.000110296741 electrons
N(Beta)            :       34.000110296741 electrons
N(Total)           :       68.000220593483 electrons
E(XC)              :      -38.820018474246 Eh       
DFET-embed. en.    :        0.000000000000 Eh       

---------------
SCF CONVERGENCE
---------------

  Last Energy change         ...   -4.1835e-09  Tolerance :   1.0000e-08
  Last MAX-Density change    ...    2.0273e-15  Tolerance :   1.0000e-07
  Last RMS-Density change    ...    3.8237e-17  Tolerance :   5.0000e-09
  Last Orbital Gradient      ...    2.4363e-06  Tolerance :   1.0000e-05
  Last Orbital Rotation      ...    8.3904e-06  Tolerance :   1.0000e-05

             **** THE GBW FILE WAS UPDATED (2+.gbw) ****
             **** DENSITY 2+.scfp WAS UPDATED ****
             **** ENERGY FILE WAS UPDATED (2+.en.tmp) ****
             **** THE GBW FILE WAS UPDATED (2+.gbw) ****
             **** DENSITY 2+.scfp WAS UPDATED ****
----------------
ORBITAL ENERGIES
----------------

  NO   OCC          E(Eh)            E(eV) 
   0   2.0000     -14.657086      -398.8396 
   1   2.0000     -14.657068      -398.8391 
   2   2.0000     -10.530895      -286.5602 
   3   2.0000     -10.478563      -285.1362 
   4   2.0000     -10.478065      -285.1226 
   5   2.0000     -10.476806      -285.0884 
   6   2.0000     -10.476786      -285.0878 
   7   2.0000     -10.427628      -283.7502 
   8   2.0000     -10.427575      -283.7488 
   9   2.0000      -1.361043       -37.0359 
  10   2.0000      -1.241181       -33.7742 
  11   2.0000      -1.101056       -29.9612 
  12   2.0000      -1.061041       -28.8724 
  13   2.0000      -1.020439       -27.7676 
  14   2.0000      -0.973028       -26.4774 
  15   2.0000      -0.971119       -26.4255 
  16   2.0000      -0.880553       -23.9611 
  17   2.0000      -0.871612       -23.7178 
  18   2.0000      -0.811846       -22.0914 
  19   2.0000      -0.791928       -21.5494 
  20   2.0000      -0.754622       -20.5343 
  21   2.0000      -0.741635       -20.1809 
  22   2.0000      -0.731802       -19.9133 
  23   2.0000      -0.699179       -19.0256 
  24   2.0000      -0.683738       -18.6055 
  25   2.0000      -0.682364       -18.5681 
  26   2.0000      -0.679140       -18.4803 
  27   2.0000      -0.664432       -18.0801 
  28   2.0000      -0.657115       -17.8810 
  29   2.0000      -0.655176       -17.8282 
  30   2.0000      -0.645036       -17.5523 
  31   2.0000      -0.640576       -17.4310 
  32   2.0000      -0.558708       -15.2032 
  33   2.0000      -0.495198       -13.4750 
  34   0.0000      -0.084889        -2.3099 
  35   0.0000      -0.037217        -1.0127 
  36   0.0000      -0.003363        -0.0915 
  37   0.0000       0.008729         0.2375 
  38   0.0000       0.012263         0.3337 
  39   0.0000       0.042954         1.1688 
  40   0.0000       0.045813         1.2466 
  41   0.0000       0.052657         1.4329 
  42   0.0000       0.058689         1.5970 
  43   0.0000       0.068133         1.8540 
  44   0.0000       0.085505         2.3267 
  45   0.0000       0.096502         2.6260 
  46   0.0000       0.104812         2.8521 
  47   0.0000       0.107830         2.9342 
  48   0.0000       0.130533         3.5520 
  49   0.0000       0.133331         3.6281 
  50   0.0000       0.149350         4.0640 
  51   0.0000       0.166444         4.5292 
  52   0.0000       0.174571         4.7503 
  53   0.0000       0.176302         4.7974 
  54   0.0000       0.209102         5.6900 
  55   0.0000       0.212252         5.7757 
  56   0.0000       0.304265         8.2795 
  57   0.0000       0.312682         8.5085 
  58   0.0000       0.312858         8.5133 
  59   0.0000       0.321295         8.7429 
  60   0.0000       0.328826         8.9478 
  61   0.0000       0.344183         9.3657 
  62   0.0000       0.374618        10.1939 
  63   0.0000       0.388672        10.5763 
  64   0.0000       0.394120        10.7245 
  65   0.0000       0.408683        11.1208 
  66   0.0000       0.439346        11.9552 
  67   0.0000       0.471005        12.8167 
  68   0.0000       0.475237        12.9319 
  69   0.0000       0.485816        13.2197 
  70   0.0000       0.492082        13.3902 
  71   0.0000       0.544434        14.8148 
  72   0.0000       0.550213        14.9721 
  73   0.0000       0.567964        15.4551 
  74   0.0000       0.585482        15.9318 
  75   0.0000       0.586115        15.9490 
  76   0.0000       0.586563        15.9612 
  77   0.0000       0.596181        16.2229 
  78   0.0000       0.604290        16.4436 
  79   0.0000       0.613222        16.6866 
  80   0.0000       0.616602        16.7786 
  81   0.0000       0.617788        16.8109 
  82   0.0000       0.625566        17.0225 
  83   0.0000       0.646346        17.5880 
  84   0.0000       0.653779        17.7902 
  85   0.0000       0.655138        17.8272 
  86   0.0000       0.660793        17.9811 
  87   0.0000       0.665697        18.1145 
  88   0.0000       0.665819        18.1179 
  89   0.0000       0.681100        18.5337 
  90   0.0000       0.682839        18.5810 
  91   0.0000       0.712574        19.3901 
  92   0.0000       0.746162        20.3041 
  93   0.0000       0.790739        21.5171 
  94   0.0000       0.804408        21.8891 
  95   0.0000       0.835164        22.7260 
  96   0.0000       0.859973        23.4010 
  97   0.0000       0.870206        23.6795 
  98   0.0000       0.907861        24.7042 
  99   0.0000       1.001969        27.2650 
 100   0.0000       1.038284        28.2531 
 101   0.0000       1.060612        28.8607 
 102   0.0000       1.093694        29.7609 
 103   0.0000       1.118280        30.4299 
 104   0.0000       1.121908        30.5287 
 105   0.0000       1.127565        30.6826 
 106   0.0000       1.146687        31.2029 
 107   0.0000       1.162267        31.6269 
 108   0.0000       1.217288        33.1241 
 109   0.0000       1.243176        33.8285 
 110   0.0000       1.265819        34.4447 
 111   0.0000       1.362214        37.0677 
 112   0.0000       1.374629        37.4056 
 113   0.0000       1.459112        39.7045 
 114   0.0000       1.461743        39.7760 
 115   0.0000       1.467694        39.9380 
 116   0.0000       1.467921        39.9442 
 117   0.0000       1.486668        40.4543 
 118   0.0000       1.498156        40.7669 
 119   0.0000       1.501866        40.8679 
 120   0.0000       1.504058        40.9275 
 121   0.0000       1.509713        41.0814 
 122   0.0000       1.560221        42.4558 
 123   0.0000       1.584224        43.1089 
 124   0.0000       1.660476        45.1839 
 125   0.0000       1.673960        45.5508 
 126   0.0000       1.678734        45.6807 
 127   0.0000       1.702591        46.3299 
 128   0.0000       1.714053        46.6418 
 129   0.0000       1.726010        46.9671 
 130   0.0000       1.737057        47.2677 
 131   0.0000       1.741715        47.3945 
 132   0.0000       1.749359        47.6025 
 133   0.0000       1.756167        47.7877 
 134   0.0000       1.759885        47.8889 
 135   0.0000       1.787538        48.6414 
 136   0.0000       1.805986        49.1434 
 137   0.0000       1.820042        49.5259 
 138   0.0000       1.830368        49.8068 
 139   0.0000       1.850765        50.3619 
 140   0.0000       1.858167        50.5633 
 141   0.0000       1.867515        50.8177 
 142   0.0000       1.902134        51.7597 
 143   0.0000       1.924631        52.3719 
 144   0.0000       1.971224        53.6397 
 145   0.0000       1.981852        53.9289 
 146   0.0000       2.023228        55.0548 
 147   0.0000       2.026063        55.1320 
 148   0.0000       2.034447        55.3601 
 149   0.0000       2.042005        55.5658 
 150   0.0000       2.063363        56.1470 
 151   0.0000       2.128904        57.9304 
 152   0.0000       2.133108        58.0448 
 153   0.0000       2.158462        58.7347 
 154   0.0000       2.179200        59.2990 
 155   0.0000       2.187454        59.5236 
 156   0.0000       2.253586        61.3232 
 157   0.0000       2.273688        61.8702 
 158   0.0000       2.338543        63.6350 
 159   0.0000       2.363662        64.3185 
 160   0.0000       2.371488        64.5315 
 161   0.0000       2.386721        64.9460 
 162   0.0000       2.387856        64.9769 
 163   0.0000       2.428696        66.0882 
 164   0.0000       2.439481        66.3816 
 165   0.0000       2.443267        66.4847 
 166   0.0000       2.488226        67.7081 
 167   0.0000       2.532960        68.9253 
 168   0.0000       2.540844        69.1399 
 169   0.0000       2.615452        71.1701 
 170   0.0000       2.623899        71.3999 
 171   0.0000       2.680608        72.9431 
 172   0.0000       2.715976        73.9055 
 173   0.0000       2.719397        73.9985 
 174   0.0000       2.719981        74.0144 
 175   0.0000       2.725540        74.1657 
 176   0.0000       2.752888        74.9099 
 177   0.0000       2.778739        75.6133 
 178   0.0000       2.818678        76.7001 
 179   0.0000       2.846430        77.4553 
 180   0.0000       2.853095        77.6367 
 181   0.0000       2.881930        78.4213 
 182   0.0000       2.899097        78.8884 
 183   0.0000       2.927048        79.6490 
 184   0.0000       2.939001        79.9743 
 185   0.0000       2.982144        81.1483 
 186   0.0000       2.992186        81.4215 
 187   0.0000       3.131445        85.2110 
 188   0.0000       3.261860        88.7597 
 189   0.0000       3.341720        90.9328 
 190   0.0000       3.416955        92.9801 

                    ********************************
                    * MULLIKEN POPULATION ANALYSIS *
                    ********************************

-----------------------
MULLIKEN ATOMIC CHARGES
-----------------------
   0 C :   -0.088983
   1 C :   -0.088978
   2 N :   -0.221958
   3 N :   -0.221958
   4 C :    0.194041
   5 C :    0.070344
   6 C :    0.070343
   7 H :    0.098453
   8 H :    0.098453
   9 H :    0.098453
  10 H :    0.098452
  11 H :    0.089504
  12 H :    0.089504
  13 H :    0.115832
  14 C :    0.075707
  15 C :    0.075707
  16 H :    0.079335
  17 H :    0.079334
  18 H :    0.079335
  19 H :    0.079334
  20 H :    0.064874
  21 H :    0.064873
Sum of atomic charges:    1.0000000

--------------------------------
MULLIKEN REDUCED ORBITAL CHARGES
--------------------------------
  0 C s       :     3.094321  s :     3.094321
      pz      :     0.884983  p :     2.937059
      px      :     1.042186
      py      :     1.009890
      dz2     :     0.018911  d :     0.057604
      dxz     :     0.009542
      dyz     :     0.013244
      dx2y2   :     0.005927
      dxy     :     0.009979
  1 C s       :     3.094318  s :     3.094318
      pz      :     0.884982  p :     2.937056
      px      :     1.042187
      py      :     1.009888
      dz2     :     0.018911  d :     0.057604
      dxz     :     0.009542
      dyz     :     0.013244
      dx2y2   :     0.005927
      dxy     :     0.009979
  2 N s       :     3.404281  s :     3.404281
      pz      :     1.157375  p :     3.784625
      px      :     1.472861
      py      :     1.154388
      dz2     :     0.006290  d :     0.033052
      dxz     :     0.006544
      dyz     :     0.010351
      dx2y2   :     0.004081
      dxy     :     0.005786
  3 N s       :     3.404281  s :     3.404281
      pz      :     1.157376  p :     3.784625
      px      :     1.472860
      py      :     1.154389
      dz2     :     0.006290  d :     0.033052
      dxz     :     0.006544
      dyz     :     0.010351
      dx2y2   :     0.004081
      dxy     :     0.005786
  4 C s       :     3.078945  s :     3.078945
      pz      :     0.909739  p :     2.658987
      px      :     0.962179
      py      :     0.787069
      dz2     :     0.012784  d :     0.068027
      dxz     :     0.006335
      dyz     :     0.022411
      dx2y2   :     0.009152
      dxy     :     0.017345
  5 C s       :     3.023341  s :     3.023341
      pz      :     1.038861  p :     2.869585
      px      :     1.077450
      py      :     0.753273
      dz2     :     0.007961  d :     0.036730
      dxz     :     0.003012
      dyz     :     0.006203
      dx2y2   :     0.010524
      dxy     :     0.009031
  6 C s       :     3.023341  s :     3.023341
      pz      :     1.038862  p :     2.869586
      px      :     1.077450
      py      :     0.753273
      dz2     :     0.007961  d :     0.036730
      dxz     :     0.003012
      dyz     :     0.006203
      dx2y2   :     0.010524
      dxy     :     0.009031
  7 H s       :     0.878154  s :     0.878154
      pz      :     0.005461  p :     0.023393
      px      :     0.012471
      py      :     0.005460
  8 H s       :     0.878154  s :     0.878154
      pz      :     0.005461  p :     0.023393
      px      :     0.012471
      py      :     0.005460
  9 H s       :     0.878154  s :     0.878154
      pz      :     0.005461  p :     0.023393
      px      :     0.012471
      py      :     0.005460
 10 H s       :     0.878155  s :     0.878155
      pz      :     0.005461  p :     0.023393
      px      :     0.012471
      py      :     0.005460
 11 H s       :     0.887031  s :     0.887031
      pz      :     0.016024  p :     0.023465
      px      :     0.004811
      py      :     0.002630
 12 H s       :     0.887031  s :     0.887031
      pz      :     0.016024  p :     0.023465
      px      :     0.004811
      py      :     0.002630
 13 H s       :     0.860298  s :     0.860298
      pz      :     0.017991  p :     0.023870
      px      :     0.004591
      py      :     0.001288
 14 C s       :     2.924614  s :     2.924614
      pz      :     0.957973  p :     2.973560
      px      :     1.043350
      py      :     0.972238
      dz2     :     0.005573  d :     0.026119
      dxz     :     0.001837
      dyz     :     0.008117
      dx2y2   :     0.002557
      dxy     :     0.008035
 15 C s       :     2.924613  s :     2.924613
      pz      :     0.957972  p :     2.973561
      px      :     1.043351
      py      :     0.972239
      dz2     :     0.005573  d :     0.026119
      dxz     :     0.001837
      dyz     :     0.008117
      dx2y2   :     0.002557
      dxy     :     0.008035
 16 H s       :     0.896291  s :     0.896291
      pz      :     0.004157  p :     0.024374
      px      :     0.011979
      py      :     0.008238
 17 H s       :     0.896292  s :     0.896292
      pz      :     0.004157  p :     0.024374
      px      :     0.011979
      py      :     0.008238
 18 H s       :     0.896292  s :     0.896292
      pz      :     0.004157  p :     0.024374
      px      :     0.011979
      py      :     0.008238
 19 H s       :     0.896292  s :     0.896292
      pz      :     0.004157  p :     0.024374
      px      :     0.011979
      py      :     0.008238
 20 H s       :     0.910640  s :     0.910640
      pz      :     0.013150  p :     0.024486
      px      :     0.004723
      py      :     0.006614
 21 H s       :     0.910640  s :     0.910640
      pz      :     0.013150  p :     0.024486
      px      :     0.004723
      py      :     0.006614


                     *******************************
                     * LOEWDIN POPULATION ANALYSIS *
                     *******************************

----------------------
LOEWDIN ATOMIC CHARGES
----------------------
   0 C :   -0.003472
   1 C :   -0.003472
   2 N :    0.087548
   3 N :    0.087548
   4 C :    0.102868
   5 C :    0.053980
   6 C :    0.053980
   7 H :    0.053505
   8 H :    0.053505
   9 H :    0.053505
  10 H :    0.053505
  11 H :    0.052911
  12 H :    0.052911
  13 H :    0.057923
  14 C :   -0.046871
  15 C :   -0.046871
  16 H :    0.055650
  17 H :    0.055650
  18 H :    0.055650
  19 H :    0.055650
  20 H :    0.057198
  21 H :    0.057198

-------------------------------
LOEWDIN REDUCED ORBITAL CHARGES
-------------------------------
  0 C s       :     2.842552  s :     2.842552
      pz      :     0.935732  p :     3.024052
      px      :     1.028948
      py      :     1.059372
      dz2     :     0.047662  d :     0.136869
      dxz     :     0.018256
      dyz     :     0.036150
      dx2y2   :     0.016016
      dxy     :     0.018785
  1 C s       :     2.842552  s :     2.842552
      pz      :     0.935732  p :     3.024052
      px      :     1.028949
      py      :     1.059371
      dz2     :     0.047662  d :     0.136868
      dxz     :     0.018256
      dyz     :     0.036150
      dx2y2   :     0.016016
      dxy     :     0.018785
  2 N s       :     3.046813  s :     3.046813
      pz      :     1.199378  p :     3.790063
      px      :     1.403835
      py      :     1.186851
      dz2     :     0.017069  d :     0.075576
      dxz     :     0.012631
      dyz     :     0.027195
      dx2y2   :     0.009352
      dxy     :     0.009329
  3 N s       :     3.046813  s :     3.046813
      pz      :     1.199378  p :     3.790063
      px      :     1.403835
      py      :     1.186851
      dz2     :     0.017069  d :     0.075576
      dxz     :     0.012631
      dyz     :     0.027195
      dx2y2   :     0.009352
      dxy     :     0.009329
  4 C s       :     2.835629  s :     2.835629
      pz      :     1.018755  p :     2.902684
      px      :     0.979522
      py      :     0.904406
      dz2     :     0.030200  d :     0.158819
      dxz     :     0.009981
      dyz     :     0.059625
      dx2y2   :     0.023112
      dxy     :     0.035900
  5 C s       :     2.831824  s :     2.831824
      pz      :     1.066966  p :     3.022653
      px      :     1.099330
      py      :     0.856357
      dz2     :     0.021543  d :     0.091543
      dxz     :     0.006655
      dyz     :     0.014729
      dx2y2   :     0.024641
      dxy     :     0.023974
  6 C s       :     2.831824  s :     2.831824
      pz      :     1.066966  p :     3.022654
      px      :     1.099330
      py      :     0.856357
      dz2     :     0.021543  d :     0.091543
      dxz     :     0.006655
      dyz     :     0.014729
      dx2y2   :     0.024641
      dxy     :     0.023975
  7 H s       :     0.880256  s :     0.880256
      pz      :     0.015338  p :     0.066238
      px      :     0.034404
      py      :     0.016496
  8 H s       :     0.880256  s :     0.880256
      pz      :     0.015338  p :     0.066238
      px      :     0.034404
      py      :     0.016496
  9 H s       :     0.880256  s :     0.880256
      pz      :     0.015338  p :     0.066238
      px      :     0.034404
      py      :     0.016496
 10 H s       :     0.880256  s :     0.880256
      pz      :     0.015338  p :     0.066238
      px      :     0.034404
      py      :     0.016497
 11 H s       :     0.880982  s :     0.880982
      pz      :     0.044753  p :     0.066107
      px      :     0.013007
      py      :     0.008348
 12 H s       :     0.880982  s :     0.880982
      pz      :     0.044753  p :     0.066107
      px      :     0.013007
      py      :     0.008348
 13 H s       :     0.869446  s :     0.869446
      pz      :     0.050935  p :     0.072631
      px      :     0.014862
      py      :     0.006834
 14 C s       :     2.821533  s :     2.821533
      pz      :     1.035090  p :     3.154794
      px      :     1.079333
      py      :     1.040371
      dz2     :     0.016041  d :     0.070544
      dxz     :     0.003622
      dyz     :     0.022739
      dx2y2   :     0.006364
      dxy     :     0.021779
 15 C s       :     2.821532  s :     2.821532
      pz      :     1.035090  p :     3.154794
      px      :     1.079333
      py      :     1.040371
      dz2     :     0.016041  d :     0.070544
      dxz     :     0.003622
      dyz     :     0.022739
      dx2y2   :     0.006364
      dxy     :     0.021779
 16 H s       :     0.878022  s :     0.878022
      pz      :     0.012009  p :     0.066327
      px      :     0.032127
      py      :     0.022192
 17 H s       :     0.878022  s :     0.878022
      pz      :     0.012009  p :     0.066328
      px      :     0.032127
      py      :     0.022192
 18 H s       :     0.878022  s :     0.878022
      pz      :     0.012009  p :     0.066328
      px      :     0.032127
      py      :     0.022192
 19 H s       :     0.878022  s :     0.878022
      pz      :     0.012009  p :     0.066328
      px      :     0.032127
      py      :     0.022192
 20 H s       :     0.876227  s :     0.876227
      pz      :     0.035634  p :     0.066575
      px      :     0.012591
      py      :     0.018350
 21 H s       :     0.876227  s :     0.876227
      pz      :     0.035634  p :     0.066575
      px      :     0.012591
      py      :     0.018350


                      *****************************
                      * MAYER POPULATION ANALYSIS *
                      *****************************

  NA   - Mulliken gross atomic population
  ZA   - Total nuclear charge
  QA   - Mulliken gross atomic charge
  VA   - Mayer's total valence
  BVA  - Mayer's bonded valence
  FA   - Mayer's free valence

  ATOM       NA         ZA         QA         VA         BVA        FA
  0 C      6.0890     6.0000    -0.0890     4.0394     4.0394     0.0000
  1 C      6.0890     6.0000    -0.0890     4.0394     4.0394    -0.0000
  2 N      7.2220     7.0000    -0.2220     3.4972     3.4972     0.0000
  3 N      7.2220     7.0000    -0.2220     3.4972     3.4972     0.0000
  4 C      5.8060     6.0000     0.1940     3.8686     3.8686     0.0000
  5 C      5.9297     6.0000     0.0703     3.8628     3.8628     0.0000
  6 C      5.9297     6.0000     0.0703     3.8628     3.8628    -0.0000
  7 H      0.9015     1.0000     0.0985     0.9908     0.9908    -0.0000
  8 H      0.9015     1.0000     0.0985     0.9908     0.9908    -0.0000
  9 H      0.9015     1.0000     0.0985     0.9908     0.9908    -0.0000
 10 H      0.9015     1.0000     0.0985     0.9908     0.9908    -0.0000
 11 H      0.9105     1.0000     0.0895     0.9963     0.9963    -0.0000
 12 H      0.9105     1.0000     0.0895     0.9963     0.9963    -0.0000
 13 H      0.8842     1.0000     0.1158     0.9973     0.9973     0.0000
 14 C      5.9243     6.0000     0.0757     3.9514     3.9514     0.0000
 15 C      5.9243     6.0000     0.0757     3.9514     3.9514     0.0000
 16 H      0.9207     1.0000     0.0793     0.9933     0.9933    -0.0000
 17 H      0.9207     1.0000     0.0793     0.9933     0.9933    -0.0000
 18 H      0.9207     1.0000     0.0793     0.9933     0.9933    -0.0000
 19 H      0.9207     1.0000     0.0793     0.9933     0.9933    -0.0000
 20 H      0.9351     1.0000     0.0649     1.0047     1.0047     0.0000
 21 H      0.9351     1.0000     0.0649     1.0047     1.0047    -0.0000

  Mayer bond orders larger than 0.100000
B(  0-C ,  1-C ) :   1.6263 B(  0-C ,  2-N ) :   1.1616 B(  0-C , 14-C ) :   1.0822 
B(  1-C ,  3-N ) :   1.1616 B(  1-C , 15-C ) :   1.0822 B(  2-N ,  4-C ) :   1.3525 
B(  2-N ,  5-C ) :   0.9047 B(  3-N ,  4-C ) :   1.3525 B(  3-N ,  6-C ) :   0.9047 
B(  4-C , 13-H ) :   0.9691 B(  5-C ,  7-H ) :   0.9710 B(  5-C , 10-H ) :   0.9710 
B(  5-C , 11-H ) :   0.9705 B(  6-C ,  8-H ) :   0.9710 B(  6-C ,  9-H ) :   0.9710 
B(  6-C , 12-H ) :   0.9705 B( 14-C , 16-H ) :   0.9491 B( 14-C , 19-H ) :   0.9491 
B( 14-C , 20-H ) :   0.9414 B( 15-C , 17-H ) :   0.9491 B( 15-C , 18-H ) :   0.9491 
B( 15-C , 21-H ) :   0.9414 

-------
TIMINGS
-------

Total SCF time: 0 days 0 hours 3 min 48 sec 

Total time                  ....     228.715 sec
Sum of individual times     ....     228.492 sec  ( 99.9%)

Fock matrix formation       ....     224.441 sec  ( 98.1%)
  Split-RI-J                ....       9.204 sec  (  4.1% of F)
  Chain of spheres X        ....     190.949 sec  ( 85.1% of F)
  XC integration            ....      24.139 sec  ( 10.8% of F)
    Basis function eval.    ....       8.963 sec  ( 37.1% of XC)
    Density eval.           ....       5.455 sec  ( 22.6% of XC)
    XC-Functional eval.     ....       3.443 sec  ( 14.3% of XC)
    XC-Potential eval.      ....       5.684 sec  ( 23.5% of XC)
Diagonalization             ....       0.079 sec  (  0.0%)
Density matrix formation    ....       0.011 sec  (  0.0%)
Population analysis         ....       0.010 sec  (  0.0%)
Initial guess               ....       0.682 sec  (  0.3%)
Orbital Transformation      ....       0.000 sec  (  0.0%)
Orbital Orthonormalization  ....       0.000 sec  (  0.0%)
DIIS solution               ....       0.027 sec  (  0.0%)
SOSCF solution              ....       0.027 sec  (  0.0%)
Grid generation             ....       3.217 sec  (  1.4%)

Maximum memory used throughout the entire SCF-calculation: 78.4 MB


-------------------------------------------------------------------------------
                          DFT DISPERSION CORRECTION                            
                                                                               
                                 DFTD4 V2.5                                    
-------------------------------------------------------------------------------
The WB97X functional is recognized
Active option DFTDOPT                   ...         5   

Starting D4
-------------------------   ----------------
Dispersion correction           -0.002863960
-------------------------   ----------------


-------------------------   --------------------
FINAL SINGLE POINT ENERGY      -383.509121609371
-------------------------   --------------------


                            ***************************************
                            *     ORCA property calculations      *
                            ***************************************

                                    ---------------------
                                    Active property flags
                                    ---------------------
   (+) Dipole Moment


------------------------------------------------------------------------------
                       ORCA ELECTRIC PROPERTIES CALCULATION
------------------------------------------------------------------------------

Dipole Moment Calculation                       ... on
Quadrupole Moment Calculation                   ... off
Polarizability Calculation                      ... off
GBWName                                         ... 2+.gbw
Electron density                                ... 2+.scfp
The origin for moment calculation is the CENTER OF MASS  = (-0.000000, -0.000000  0.036810)

-------------
DIPOLE MOMENT
-------------
                                X             Y             Z
Electronic contribution:      0.00000       0.00000       3.24836
Nuclear contribution   :     -0.00000      -0.00000      -2.45968
                        -----------------------------------------
Total Dipole Moment    :      0.00000       0.00000       0.78868
                        -----------------------------------------
Magnitude (a.u.)       :      0.78868
Magnitude (Debye)      :      2.00467



--------------------
Rotational spectrum 
--------------------
 
Rotational constants in cm-1:     0.081296     0.050365     0.031857 
Rotational constants in MHz :  2437.191902  1509.898198   955.039590 

 Dipole components along the rotational axes: 
x,y,z [a.u.] :     0.000001     0.788684    -0.000000 
x,y,z [Debye]:     0.000002     2.004675    -0.000000 

 

-------------------------------------------------------------------------------
                               ORCA SCF HESSIAN
-------------------------------------------------------------------------------

                   --------- SHARK INITIALIZATION DONE ---------

Hessian of the Kohn-Sham DFT energy:
Kohn-Sham wavefunction type                      ... RKS
Hartree-Fock exchange scaling                    ...    0.158
Number of operators                              ...    1
Number of atoms                                  ...   22
Basis set dimensions                             ...  191
Integral neglect threshold                       ... 2.5e-11
Integral primitive cutoff                        ... 2.5e-12

Setting up DFT Hessian calculations              ... 

HESS GRID
---------

General Integration Accuracy     IntAcc      ... 4.629
Radial Grid Type                 RadialGrid  ... OptM3 with GC (2021)
Angular Grid (max. ang.)         AngularGrid ... 5 (Lebedev-434)
Angular grid pruning method      GridPruning ... 4 (adaptive)
Weight generation scheme         WeightScheme... Becke
Basis function cutoff            BFCut       ... 1.0000e-11
Integration weight cutoff        WCut        ... 1.0000e-14
Angular grids for H and He will be reduced by one unit
Partially contracted basis set               ... off
Rotationally invariant grid construction     ... off

Total number of grid points                  ...   148031
Total number of batches                      ...     2325
Average number of points per batch           ...       63
Average number of grid points per atom       ...     6729

Building densities                               ... done   (      0.0 sec)
Calculating rho(r) on the grid                   ... done   (      1.5 sec)
Building xc-kernel on the grid                   ... done   (      1.3 sec)
                                                     done   (      4.9 sec)

Nuclear repulsion Hessian  (SHARK)               ... done   (      0.0 sec)

----------------------------------------------
Forming right-hand sides of CP-SCF equations     ...
----------------------------------------------
One electron integral derivatives  (SHARK)       ... done   (      0.4 sec)
Transforming the overlap derivative matrices     ... done   (      0.1 sec)
Making the Q(x) pseudodensities                  ... done   (      0.1 sec)
Adding the E*S(x)*S(y) terms to the Hessian      ... done   (      0.1 sec)
Calculating energy weighted overlap derivatives  ... done   (      0.0 sec)
Two electron integral derivatives (SHARK-RI)     ... done   (     49.2 sec)
Exchange-correlation integral derivatives        ... done   (    149.0 sec)
tr(F(y)Q(x)) contribution to the Hessian         ... done   (      0.0 sec)
Response fock operator R(S(x)) (SHARK-RIJCOSX)   ... done   (     46.7 sec)
XC Response fock operator R(S(x))                ... done   (     61.2 sec)
tr(F(y)S(x)) contribution to the Hessian         ... done   (      0.0 sec)
Transforming and finalizing RHSs                 ... done   (      0.1 sec)

----------------------------------------------
Solving the CP-SCF equations (RIJCOSX)           ...
----------------------------------------------
     CP-SCF ITERATION   0:   1.4778e-01 (  23.9 sec   0/ 66 done)
     CP-SCF ITERATION   1:   1.0006e-01 (  24.0 sec   0/ 66 done)
     CP-SCF ITERATION   2:   2.1584e-02 (  23.9 sec   0/ 66 done)
     CP-SCF ITERATION   3:   9.3766e-03 (  23.9 sec   0/ 66 done)
     CP-SCF ITERATION   4:   5.2960e-03 (  24.0 sec   4/ 66 done)
     CP-SCF ITERATION   5:   1.7290e-03 (  22.9 sec   9/ 66 done)
     CP-SCF ITERATION   6:   5.9686e-04 (  21.5 sec  51/ 66 done)
     CP-SCF ITERATION   7:   1.9071e-04 (  10.7 sec  57/ 66 done)
     CP-SCF ITERATION   8:   6.6990e-05 (   8.3 sec  66/ 66 done)
                    *** THE CP-SCF HAS CONVERGED ***

                                                 ... done   (    183.9 sec)
Forming perturbed density Hessian contributions  ... done   (      0.0 sec)
2nd integral derivative contribs (SHARK-RI)      ... done   (    206.5 sec)
Exchange-correlation Hessian                     ... done   (    115.0 sec)
Dispersion correction in the Hessian             ... Starting D4


------------------- 
Dispersion Gradient 
------------------- 
   1  :    0.000000002    0.000005426    0.000001529
   2  :    0.000000001   -0.000005425    0.000001530
   3  :   -0.000000003    0.000012896    0.000008001
   4  :    0.000000005   -0.000012896    0.000008001
   5  :    0.000000010   -0.000000000    0.000013717
   6  :    0.000000001    0.000043042    0.000018299
   7  :   -0.000000003   -0.000043042    0.000018299
   8  :    0.000000011    0.000008450    0.000005303
   9  :    0.000000010   -0.000008449    0.000005303
  10  :   -0.000000014   -0.000008449    0.000005303
  11  :   -0.000000013    0.000008449    0.000005303
  12  :   -0.000000001    0.000009472    0.000005410
  13  :   -0.000000002   -0.000009472    0.000005410
  14  :   -0.000000001   -0.000000000    0.000008320
  15  :    0.000000003    0.000029555   -0.000030617
  16  :   -0.000000000   -0.000029555   -0.000030617
  17  :    0.000001396    0.000008145   -0.000006972
  18  :    0.000001395   -0.000008144   -0.000006971
  19  :   -0.000001398   -0.000008145   -0.000006971
  20  :   -0.000001397    0.000008144   -0.000006971
  21  :   -0.000000001    0.000006588   -0.000010304
  22  :   -0.000000001   -0.000006588   -0.000010304

  |G| =    0.000081662

Starting D4


------------------- 
Dispersion Gradient 
------------------- 
   1  :   -0.000000002    0.000005426    0.000001529
   2  :   -0.000000001   -0.000005425    0.000001530
   3  :    0.000000003    0.000012896    0.000008001
   4  :   -0.000000005   -0.000012896    0.000008001
   5  :   -0.000000010   -0.000000000    0.000013717
   6  :   -0.000000001    0.000043042    0.000018299
   7  :    0.000000003   -0.000043042    0.000018299
   8  :    0.000000013    0.000008449    0.000005303
   9  :    0.000000014   -0.000008449    0.000005303
  10  :   -0.000000010   -0.000008449    0.000005303
  11  :   -0.000000011    0.000008450    0.000005303
  12  :    0.000000001    0.000009472    0.000005410
  13  :    0.000000002   -0.000009472    0.000005410
  14  :    0.000000001   -0.000000000    0.000008320
  15  :   -0.000000003    0.000029555   -0.000030617
  16  :    0.000000000   -0.000029555   -0.000030617
  17  :    0.000001397    0.000008144   -0.000006971
  18  :    0.000001398   -0.000008145   -0.000006971
  19  :   -0.000001395   -0.000008144   -0.000006971
  20  :   -0.000001396    0.000008145   -0.000006971
  21  :    0.000000001    0.000006588   -0.000010304
  22  :    0.000000001   -0.000006588   -0.000010304

  |G| =    0.000081662

Starting D4


------------------- 
Dispersion Gradient 
------------------- 
   1  :   -0.000000000    0.000005697    0.000001186
   2  :   -0.000000000   -0.000005435    0.000001492
   3  :   -0.000000000    0.000012891    0.000008006
   4  :   -0.000000000   -0.000013055    0.000008129
   5  :    0.000000000   -0.000000058    0.000013992
   6  :   -0.000000000    0.000043035    0.000018289
   7  :   -0.000000000   -0.000043054    0.000018302
   8  :    0.000000011    0.000008448    0.000005302
   9  :    0.000000012   -0.000008452    0.000005303
  10  :   -0.000000012   -0.000008452    0.000005303
  11  :   -0.000000011    0.000008448    0.000005302
  12  :   -0.000000000    0.000009470    0.000005410
  13  :    0.000000000   -0.000009473    0.000005409
  14  :    0.000000000   -0.000000002    0.000008324
  15  :    0.000000000    0.000029571   -0.000030632
  16  :   -0.000000000   -0.000029567   -0.000030622
  17  :    0.000001397    0.000008144   -0.000006971
  18  :    0.000001397   -0.000008149   -0.000006972
  19  :   -0.000001397   -0.000008149   -0.000006972
  20  :   -0.000001397    0.000008144   -0.000006971
  21  :    0.000000000    0.000006586   -0.000010304
  22  :   -0.000000000   -0.000006589   -0.000010305

  |G| =    0.000081719

Starting D4


------------------- 
Dispersion Gradient 
------------------- 
   1  :   -0.000000000    0.000005145    0.000001889
   2  :   -0.000000000   -0.000005415    0.000001568
   3  :   -0.000000000    0.000012900    0.000007995
   4  :   -0.000000000   -0.000012730    0.000007867
   5  :    0.000000000    0.000000060    0.000013431
   6  :   -0.000000000    0.000043049    0.000018309
   7  :   -0.000000000   -0.000043030    0.000018296
   8  :    0.000000013    0.000008451    0.000005304
   9  :    0.000000012   -0.000008447    0.000005303
  10  :   -0.000000012   -0.000008447    0.000005303
  11  :   -0.000000013    0.000008451    0.000005304
  12  :   -0.000000000    0.000009474    0.000005409
  13  :    0.000000000   -0.000009471    0.000005410
  14  :    0.000000000    0.000000002    0.000008316
  15  :    0.000000000    0.000029539   -0.000030601
  16  :   -0.000000000   -0.000029543   -0.000030612
  17  :    0.000001395    0.000008145   -0.000006971
  18  :    0.000001396   -0.000008141   -0.000006970
  19  :   -0.000001396   -0.000008141   -0.000006970
  20  :   -0.000001395    0.000008145   -0.000006971
  21  :    0.000000000    0.000006590   -0.000010304
  22  :   -0.000000000   -0.000006587   -0.000010303

  |G| =    0.000081604

Starting D4


------------------- 
Dispersion Gradient 
------------------- 
   1  :   -0.000000000    0.000005062    0.000002238
   2  :   -0.000000000   -0.000005386    0.000001638
   3  :   -0.000000000    0.000012898    0.000008009
   4  :   -0.000000000   -0.000012671    0.000007835
   5  :    0.000000000    0.000000137    0.000013096
   6  :   -0.000000000    0.000043012    0.000018274
   7  :   -0.000000000   -0.000043030    0.000018295
   8  :    0.000000011    0.000008450    0.000005302
   9  :    0.000000012   -0.000008449    0.000005301
  10  :   -0.000000012   -0.000008449    0.000005301
  11  :   -0.000000011    0.000008450    0.000005302
  12  :   -0.000000000    0.000009471    0.000005407
  13  :    0.000000000   -0.000009472    0.000005408
  14  :    0.000000000    0.000000001    0.000008306
  15  :    0.000000000    0.000029535   -0.000030592
  16  :   -0.000000000   -0.000029555   -0.000030619
  17  :    0.000001396    0.000008145   -0.000006973
  18  :    0.000001396   -0.000008146   -0.000006973
  19  :   -0.000001396   -0.000008146   -0.000006973
  20  :   -0.000001396    0.000008145   -0.000006973
  21  :    0.000000000    0.000006589   -0.000010305
  22  :   -0.000000000   -0.000006590   -0.000010306

  |G| =    0.000081573

Starting D4


------------------- 
Dispersion Gradient 
------------------- 
   1  :   -0.000000000    0.000005765    0.000000867
   2  :   -0.000000000   -0.000005462    0.000001427
   3  :   -0.000000000    0.000012894    0.000007992
   4  :   -0.000000000   -0.000013106    0.000008156
   5  :    0.000000000   -0.000000127    0.000014297
   6  :   -0.000000000    0.000043070    0.000018323
   7  :   -0.000000000   -0.000043053    0.000018303
   8  :    0.000000013    0.000008449    0.000005304
   9  :    0.000000012   -0.000008450    0.000005305
  10  :   -0.000000012   -0.000008450    0.000005305
  11  :   -0.000000013    0.000008449    0.000005304
  12  :   -0.000000000    0.000009473    0.000005412
  13  :    0.000000000   -0.000009472    0.000005411
  14  :    0.000000000   -0.000000001    0.000008334
  15  :    0.000000000    0.000029574   -0.000030641
  16  :   -0.000000000   -0.000029555   -0.000030616
  17  :    0.000001397    0.000008144   -0.000006970
  18  :    0.000001397   -0.000008144   -0.000006970
  19  :   -0.000001397   -0.000008144   -0.000006970
  20  :   -0.000001397    0.000008144   -0.000006970
  21  :    0.000000000    0.000006587   -0.000010303
  22  :   -0.000000000   -0.000006586   -0.000010302

  |G| =    0.000081748

Starting D4


------------------- 
Dispersion Gradient 
------------------- 
   1  :    0.000000001    0.000005425    0.000001530
   2  :    0.000000002   -0.000005426    0.000001529
   3  :    0.000000005    0.000012896    0.000008001
   4  :   -0.000000003   -0.000012896    0.000008001
   5  :    0.000000010    0.000000000    0.000013717
   6  :   -0.000000003    0.000043042    0.000018299
   7  :    0.000000001   -0.000043042    0.000018299
   8  :    0.000000010    0.000008449    0.000005303
   9  :    0.000000011   -0.000008450    0.000005303
  10  :   -0.000000013   -0.000008449    0.000005303
  11  :   -0.000000014    0.000008449    0.000005303
  12  :   -0.000000002    0.000009472    0.000005410
  13  :   -0.000000001   -0.000009472    0.000005410
  14  :   -0.000000001   -0.000000000    0.000008320
  15  :   -0.000000000    0.000029555   -0.000030617
  16  :    0.000000003   -0.000029555   -0.000030617
  17  :    0.000001395    0.000008144   -0.000006971
  18  :    0.000001396   -0.000008145   -0.000006971
  19  :   -0.000001397   -0.000008144   -0.000006971
  20  :   -0.000001398    0.000008145   -0.000006971
  21  :   -0.000000001    0.000006588   -0.000010304
  22  :   -0.000000001   -0.000006588   -0.000010304

  |G| =    0.000081662

Starting D4


------------------- 
Dispersion Gradient 
------------------- 
   1  :   -0.000000001    0.000005425    0.000001530
   2  :   -0.000000002   -0.000005426    0.000001529
   3  :   -0.000000005    0.000012896    0.000008001
   4  :    0.000000003   -0.000012896    0.000008001
   5  :   -0.000000010    0.000000000    0.000013717
   6  :    0.000000003    0.000043042    0.000018299
   7  :   -0.000000001   -0.000043042    0.000018299
   8  :    0.000000014    0.000008449    0.000005303
   9  :    0.000000013   -0.000008449    0.000005303
  10  :   -0.000000011   -0.000008450    0.000005303
  11  :   -0.000000010    0.000008450    0.000005303
  12  :    0.000000002    0.000009472    0.000005410
  13  :    0.000000001   -0.000009472    0.000005410
  14  :    0.000000001   -0.000000000    0.000008320
  15  :    0.000000000    0.000029555   -0.000030617
  16  :   -0.000000003   -0.000029555   -0.000030617
  17  :    0.000001398    0.000008145   -0.000006971
  18  :    0.000001397   -0.000008144   -0.000006971
  19  :   -0.000001396   -0.000008145   -0.000006971
  20  :   -0.000001395    0.000008144   -0.000006971
  21  :    0.000000001    0.000006588   -0.000010304
  22  :    0.000000001   -0.000006588   -0.000010304

  |G| =    0.000081662

Starting D4


------------------- 
Dispersion Gradient 
------------------- 
   1  :   -0.000000000    0.000005415    0.000001568
   2  :   -0.000000000   -0.000005145    0.000001889
   3  :   -0.000000000    0.000012730    0.000007867
   4  :   -0.000000000   -0.000012900    0.000007995
   5  :    0.000000000   -0.000000060    0.000013431
   6  :   -0.000000000    0.000043030    0.000018296
   7  :   -0.000000000   -0.000043049    0.000018309
   8  :    0.000000012    0.000008447    0.000005303
   9  :    0.000000013   -0.000008451    0.000005304
  10  :   -0.000000013   -0.000008451    0.000005304
  11  :   -0.000000012    0.000008447    0.000005303
  12  :   -0.000000000    0.000009471    0.000005410
  13  :    0.000000000   -0.000009474    0.000005409
  14  :    0.000000000   -0.000000002    0.000008316
  15  :    0.000000000    0.000029543   -0.000030612
  16  :   -0.000000000   -0.000029539   -0.000030601
  17  :    0.000001396    0.000008141   -0.000006970
  18  :    0.000001395   -0.000008145   -0.000006971
  19  :   -0.000001395   -0.000008145   -0.000006971
  20  :   -0.000001396    0.000008141   -0.000006970
  21  :    0.000000000    0.000006587   -0.000010303
  22  :   -0.000000000   -0.000006590   -0.000010304

  |G| =    0.000081604

Starting D4


------------------- 
Dispersion Gradient 
------------------- 
   1  :   -0.000000000    0.000005435    0.000001492
   2  :   -0.000000000   -0.000005697    0.000001186
   3  :   -0.000000000    0.000013054    0.000008129
   4  :   -0.000000000   -0.000012891    0.000008006
   5  :    0.000000000    0.000000058    0.000013992
   6  :   -0.000000000    0.000043054    0.000018302
   7  :   -0.000000000   -0.000043035    0.000018289
   8  :    0.000000012    0.000008452    0.000005303
   9  :    0.000000011   -0.000008448    0.000005302
  10  :   -0.000000011   -0.000008448    0.000005302
  11  :   -0.000000012    0.000008452    0.000005303
[...]
     47      -0.020602   0.000098  -0.000111   0.000000   0.000000  -0.047941
     48      -0.363975   0.000158  -0.000859   0.415708  -0.384356  -0.179462
     49      -0.257567   0.000910   0.000082   0.306324  -0.283044  -0.123376
     50      -0.018596   0.000590   0.000683   0.021667  -0.020250  -0.004025
     51      -0.367956  -0.000137  -0.000862   0.384296   0.415783   0.179402
     52       0.260381   0.000912  -0.000060  -0.283192  -0.306203  -0.123336
     53      -0.018801  -0.000606   0.000668   0.020013   0.021887   0.004024
     54       0.367959   0.000137   0.000863   0.384295   0.415780  -0.179402
     55       0.260382   0.000912  -0.000059   0.283192   0.306201  -0.123336
     56      -0.018802  -0.000606   0.000668  -0.020013  -0.021887   0.004024
     57       0.363948  -0.000158   0.000859   0.415718  -0.384366   0.179499
     58      -0.257546   0.000910   0.000082  -0.306333   0.283052  -0.123403
     59      -0.018595   0.000590   0.000683  -0.021668   0.020251  -0.004026
     60       0.000000   0.000000   0.000000  -0.008526   0.007721  -0.000000
     61       0.151455  -0.000384  -0.000465   0.000020  -0.000019  -0.304998
     62       0.268071   0.000685   0.000734   0.000036  -0.000034  -0.554852
     63       0.000000  -0.000000   0.000000  -0.007895  -0.008366   0.000000
     64      -0.153155  -0.000395   0.000456   0.000001   0.000000  -0.304852
     65       0.271092  -0.000703   0.000717  -0.000001  -0.000001   0.554587
                 60         61         62         63         64         65    
      0       0.000000   0.000084  -0.000036  -0.000000  -0.000000   0.000000
      1       0.000660   0.000000  -0.000000   0.000452   0.000433   0.001090
      2       0.000009   0.000000  -0.000000   0.000067  -0.000069   0.002178
      3      -0.000000  -0.000092  -0.000001  -0.000000   0.000000  -0.000000
      4      -0.000660   0.000000   0.000000  -0.000461   0.000423  -0.001090
      5       0.000008  -0.000000  -0.000000   0.000065   0.000070   0.002178
      6       0.000000   0.000459  -0.000566  -0.000000  -0.000000  -0.000000
      7       0.000292   0.000000  -0.000000   0.000505   0.000332  -0.003781
      8      -0.000279   0.000000  -0.000000   0.000359   0.000312   0.002593
      9      -0.000000  -0.000641  -0.000347  -0.000000   0.000000  -0.000000
     10      -0.000292   0.000000   0.000000  -0.000512   0.000321   0.003781
     11      -0.000279  -0.000000  -0.000000   0.000366  -0.000304   0.002593
     12      -0.000000   0.000050   0.000249   0.000000   0.000000  -0.000000
     13       0.000000  -0.000000   0.000000   0.000004  -0.000391  -0.000000
     14      -0.000175  -0.000000  -0.000000   0.000823   0.000009  -0.093540
     15      -0.000000  -0.053393   0.079975   0.000006   0.000006   0.000000
     16      -0.000138   0.000001  -0.000001   0.018547   0.019007   0.000087
     17       0.000361  -0.000005   0.000007  -0.064500  -0.065939  -0.000696
     18       0.000000   0.079938   0.053445   0.000005  -0.000005   0.000000
     19       0.000138   0.000001   0.000001  -0.018969   0.018586  -0.000087
     20       0.000362   0.000005   0.000004  -0.065965   0.064474  -0.000696
     21      -0.000642   0.318712  -0.477069   0.206944   0.211844  -0.000384
     22       0.000480  -0.180716   0.270378  -0.112402  -0.115125   0.001550
     23      -0.000825   0.136375  -0.204222   0.080163   0.082090   0.000315
     24      -0.000646  -0.477041  -0.318731   0.211653  -0.207148  -0.000384
     25      -0.000483  -0.270442  -0.180607   0.114961  -0.112574  -0.001550
     26      -0.000827  -0.204156  -0.136463   0.081988  -0.080271   0.000315
     27       0.000643  -0.477021  -0.318717  -0.211710   0.207204   0.000384
     28      -0.000481   0.270431   0.180599   0.114993  -0.112606  -0.001550
     29      -0.000826   0.204148   0.136458   0.082012  -0.080295   0.000315
     30       0.000645   0.318698  -0.477047  -0.207013  -0.211915   0.000384
     31       0.000482   0.180708  -0.270366  -0.112441  -0.115165   0.001550
     32      -0.000826  -0.136369   0.204213   0.080192   0.082120   0.000315
     33      -0.000000  -0.005184   0.007778  -0.000000  -0.000000  -0.000000
     34      -0.000228  -0.000000   0.000000  -0.001568  -0.001604   0.001309
     35      -0.002888   0.000048  -0.000072   0.600347   0.613744   0.006037
     36       0.000000   0.007766   0.005201  -0.000000   0.000000  -0.000000
     37       0.000229  -0.000000  -0.000000   0.001604  -0.001567  -0.001309
     38      -0.002893  -0.000056  -0.000038   0.613980  -0.600112   0.006036
     39       0.000000  -0.000068  -0.000342  -0.000000  -0.000000   0.000000
     40      -0.000000  -0.000000   0.000000   0.000017  -0.001498   0.000000
     41       0.001006   0.000000   0.000001  -0.006619  -0.000074   0.995543
     42      -0.000003   0.000928  -0.001235  -0.000000  -0.000000  -0.000000
     43       0.045185  -0.000000   0.000000   0.000119   0.000329  -0.000054
     44       0.047830  -0.000000   0.000000   0.000146   0.000400  -0.000167
     45       0.000000  -0.001331  -0.000786  -0.000000   0.000000   0.000000
     46      -0.045207   0.000000   0.000000  -0.000126   0.000327   0.000054
     47       0.047852  -0.000000  -0.000000   0.000155  -0.000397  -0.000167
     48      -0.175895  -0.005359   0.007346  -0.001456  -0.002167  -0.000156
     49      -0.120761  -0.003749   0.005108  -0.000581  -0.001062  -0.000216
     50      -0.003951  -0.000823   0.001108   0.000518   0.000480   0.000291
     51      -0.176002   0.007766   0.004736  -0.001505   0.002134  -0.000156
     52       0.120835  -0.005420  -0.003286   0.000605  -0.001049   0.000216
     53      -0.003954   0.001185   0.000708   0.000528  -0.000468   0.000291
     54       0.176001   0.007764   0.004736   0.001506  -0.002135   0.000156
     55       0.120835   0.005419   0.003285   0.000605  -0.001049   0.000216
     56      -0.003954  -0.001185  -0.000708   0.000528  -0.000468   0.000291
     57       0.175931  -0.005360   0.007347   0.001457   0.002168   0.000156
     58      -0.120787   0.003749  -0.005109  -0.000581  -0.001062  -0.000216
     59      -0.003953   0.000824  -0.001108   0.000517   0.000480   0.000291
     60      -0.000000   0.000346  -0.000473  -0.000000  -0.000000   0.000000
     61      -0.305862   0.000001  -0.000001  -0.001542  -0.003018   0.000705
     62      -0.557475   0.000001  -0.000001  -0.002248  -0.005044   0.000586
     63      -0.000000  -0.000501  -0.000304  -0.000000   0.000000   0.000000
     64       0.306002  -0.000002  -0.000001   0.001611  -0.002984  -0.000705
     65      -0.557731   0.000003   0.000001  -0.002363   0.004994   0.000586


-----------
IR SPECTRUM
-----------

 Mode   freq       eps      Int      T**2         TX        TY        TZ
       cm**-1   L/(mol*cm) km/mol    a.u.
----------------------------------------------------------------------------
  6:    101.88   0.000101    0.51  0.000310  ( 0.017610 -0.000000  0.000000)
  7:    106.07   0.000000    0.00  0.000000  ( 0.000011  0.000000  0.000000)
  8:    141.73   0.000000    0.00  0.000000  ( 0.000000 -0.000000 -0.000000)
  9:    166.83   0.000846    4.27  0.001582  (-0.039775 -0.000000 -0.000000)
 10:    180.26   0.000491    2.48  0.000850  ( 0.029154 -0.000000 -0.000000)
 11:    182.73   0.000000    0.00  0.000000  (-0.000015  0.000000  0.000000)
 12:    275.91   0.000086    0.43  0.000097  (-0.000000  0.000000  0.009856)
 13:    278.78   0.000035    0.18  0.000039  ( 0.000000 -0.006264  0.000000)
 14:    289.92   0.000129    0.65  0.000139  ( 0.000000  0.000000  0.011804)
 15:    303.82   0.001026    5.19  0.001054  ( 0.032465 -0.000000 -0.000000)
 16:    324.81   0.000000    0.00  0.000000  (-0.000001  0.000000 -0.000000)
 17:    541.20   0.000201    1.02  0.000116  ( 0.000000  0.010763 -0.000000)
 18:    577.26   0.000317    1.60  0.000171  (-0.000000  0.013085  0.000000)
 19:    624.25   0.000450    2.27  0.000225  ( 0.000000 -0.000000 -0.014992)
 20:    647.88   0.002173   10.98  0.001047  ( 0.032351  0.000000 -0.000000)
 21:    692.74   0.000000    0.00  0.000000  ( 0.000000  0.000000  0.000000)
 22:    742.93   0.000642    3.24  0.000270  (-0.000000 -0.000000 -0.016419)
 23:    849.49   0.002160   10.91  0.000793  ( 0.028166 -0.000000 -0.000000)
 24:    864.79   0.001661    8.40  0.000599  (-0.000000  0.024484  0.000000)
 25:    975.86   0.000080    0.41  0.000026  ( 0.000000  0.000000  0.005065)
 26:   1048.57   0.000476    2.41  0.000142  ( 0.011906  0.000000  0.000000)
 27:   1070.75   0.000000    0.00  0.000000  ( 0.000000  0.000000 -0.000000)
 28:   1085.03   0.000282    1.42  0.000081  ( 0.000000  0.009002 -0.000000)
 29:   1106.98   0.000024    0.12  0.000007  (-0.000000  0.000000 -0.002587)
 30:   1120.72   0.001798    9.08  0.000501  (-0.000000  0.022373  0.000000)
 31:   1142.16   0.000000    0.00  0.000000  ( 0.000000  0.000000 -0.000000)
 32:   1147.62   0.000005    0.02  0.000001  (-0.001108  0.000000 -0.000000)
 33:   1195.80   0.000053    0.27  0.000014  (-0.000000  0.000001  0.003735)
 34:   1242.25   0.010248   51.79  0.002574  (-0.000000  0.050738 -0.000000)
 35:   1290.24   0.000048    0.24  0.000012  ( 0.000000  0.003419 -0.000000)
 36:   1400.19   0.000215    1.09  0.000048  (-0.000000 -0.000001 -0.006920)
 37:   1410.47   0.001780    9.00  0.000394  (-0.000000  0.019847 -0.000000)
 38:   1422.39   0.001190    6.02  0.000261  ( 0.000000 -0.000000  0.016160)
 39:   1445.79   0.001028    5.20  0.000222  (-0.000000  0.014898  0.000000)
 40:   1450.48   0.000000    0.00  0.000000  ( 0.000001  0.000000 -0.000000)
 41:   1452.93   0.000018    0.09  0.000004  ( 0.001975  0.000000 -0.000008)
 42:   1453.01   0.000129    0.65  0.000028  (-0.000004 -0.000000 -0.005266)
 43:   1456.76   0.001291    6.53  0.000277  ( 0.000000  0.016632 -0.000003)
 44:   1458.62   0.009275   46.87  0.001984  (-0.000001 -0.000001 -0.044546)
 45:   1462.90   0.000000    0.00  0.000000  (-0.000001  0.000000  0.000000)
 46:   1465.06   0.014999   75.80  0.003195  (-0.056523  0.000000  0.000000)
 47:   1472.21   0.000047    0.24  0.000010  ( 0.000001  0.003172 -0.000000)
 48:   1486.36   0.003133   15.83  0.000658  ( 0.000000  0.000000 -0.025646)
 49:   1534.01   0.000042    0.21  0.000009  (-0.000000  0.002927 -0.000000)
 50:   1546.30   0.000104    0.53  0.000021  (-0.000000 -0.000000 -0.004580)
 51:   1682.98   0.021898  110.66  0.004060  ( 0.000000 -0.063721  0.000000)
 52:   1741.14   0.005202   26.29  0.000932  ( 0.000000  0.000000  0.030535)
 53:   3077.41   0.000656    3.32  0.000067  ( 0.000000  0.008159 -0.000018)
 54:   3077.69   0.000104    0.53  0.000011  ( 0.000000 -0.000045 -0.003253)
 55:   3098.41   0.001230    6.21  0.000124  ( 0.000000  0.011129 -0.000051)
 56:   3098.46   0.000171    0.86  0.000017  (-0.000000  0.000138  0.004145)
 57:   3170.89   0.000153    0.77  0.000015  (-0.003881  0.000000 -0.000000)
 58:   3170.94   0.000000    0.00  0.000000  (-0.000152 -0.000000  0.000000)
 59:   3207.66   0.000016    0.08  0.000002  (-0.000000  0.001260  0.000001)
 60:   3209.15   0.000070    0.35  0.000007  (-0.000000 -0.000000  0.002601)
 61:   3212.55   0.000000    0.00  0.000000  (-0.000089 -0.000000 -0.000000)
 62:   3212.56   0.000002    0.01  0.000000  (-0.000448  0.000000  0.000000)
 63:   3231.12   0.000001    0.01  0.000000  (-0.000000  0.000008  0.000343)
 64:   3231.16   0.000006    0.03  0.000001  ( 0.000000 -0.000749  0.000004)
 65:   3294.26   0.005880   29.72  0.000557  ( 0.000000  0.000000  0.023601)

* The epsilon (eps) is given for a Dirac delta lineshape.
** The dipole moment derivative (T) already includes vibrational overlap.

The first frequency considered to be a vibration is 6
The total number of vibrations considered is 60


--------------------------
THERMOCHEMISTRY AT 298.15K
--------------------------

Temperature         ... 298.15 K
Pressure            ... 1.00 atm
Total Mass          ... 125.19 AMU

Throughout the following assumptions are being made:
  (1) The electronic state is orbitally nondegenerate
  (2) There are no thermally accessible electronically excited states
  (3) Hindered rotations indicated by low frequency modes are not
      treated as such but are treated as vibrations and this may
      cause some error
  (4) All equations used are the standard statistical mechanics
      equations for an ideal gas
  (5) All vibrations are strictly harmonic

freq.     101.88  E(vib)   ...       0.46 
freq.     106.07  E(vib)   ...       0.45 
freq.     141.73  E(vib)   ...       0.41 
freq.     166.83  E(vib)   ...       0.39 
freq.     180.26  E(vib)   ...       0.37 
freq.     182.73  E(vib)   ...       0.37 
freq.     275.91  E(vib)   ...       0.28 
freq.     278.78  E(vib)   ...       0.28 
freq.     289.92  E(vib)   ...       0.27 
freq.     303.82  E(vib)   ...       0.26 
freq.     324.81  E(vib)   ...       0.24 
freq.     541.20  E(vib)   ...       0.12 
freq.     577.26  E(vib)   ...       0.11 
freq.     624.25  E(vib)   ...       0.09 
freq.     647.88  E(vib)   ...       0.09 
freq.     692.74  E(vib)   ...       0.07 
freq.     742.93  E(vib)   ...       0.06 
freq.     849.49  E(vib)   ...       0.04 
freq.     864.79  E(vib)   ...       0.04 
freq.     975.86  E(vib)   ...       0.03 
freq.    1048.57  E(vib)   ...       0.02 
freq.    1070.75  E(vib)   ...       0.02 
freq.    1085.03  E(vib)   ...       0.02 
freq.    1106.98  E(vib)   ...       0.02 
freq.    1120.72  E(vib)   ...       0.01 
freq.    1142.16  E(vib)   ...       0.01 
freq.    1147.62  E(vib)   ...       0.01 
freq.    1195.80  E(vib)   ...       0.01 
freq.    1242.25  E(vib)   ...       0.01 
freq.    1290.24  E(vib)   ...       0.01 
freq.    1400.19  E(vib)   ...       0.00 
freq.    1410.47  E(vib)   ...       0.00 
freq.    1422.39  E(vib)   ...       0.00 
freq.    1445.79  E(vib)   ...       0.00 
freq.    1450.48  E(vib)   ...       0.00 
freq.    1452.93  E(vib)   ...       0.00 
freq.    1453.01  E(vib)   ...       0.00 
freq.    1456.76  E(vib)   ...       0.00 
freq.    1458.62  E(vib)   ...       0.00 
freq.    1462.90  E(vib)   ...       0.00 
freq.    1465.06  E(vib)   ...       0.00 
freq.    1472.21  E(vib)   ...       0.00 
freq.    1486.36  E(vib)   ...       0.00 
freq.    1534.01  E(vib)   ...       0.00 
freq.    1546.30  E(vib)   ...       0.00 
freq.    1682.98  E(vib)   ...       0.00 
freq.    1741.14  E(vib)   ...       0.00 
freq.    3077.41  E(vib)   ...       0.00 
freq.    3077.69  E(vib)   ...       0.00 
freq.    3098.41  E(vib)   ...       0.00 
freq.    3098.46  E(vib)   ...       0.00 
freq.    3170.89  E(vib)   ...       0.00 
freq.    3170.94  E(vib)   ...       0.00 
freq.    3207.66  E(vib)   ...       0.00 
freq.    3209.15  E(vib)   ...       0.00 
freq.    3212.55  E(vib)   ...       0.00 
freq.    3212.56  E(vib)   ...       0.00 
freq.    3231.12  E(vib)   ...       0.00 
freq.    3231.16  E(vib)   ...       0.00 
freq.    3294.26  E(vib)   ...       0.00 

------------
INNER ENERGY
------------

The inner energy is: U= E(el) + E(ZPE) + E(vib) + E(rot) + E(trans)
    E(el)   - is the total energy from the electronic structure calculation
              = E(kin-el) + E(nuc-el) + E(el-el) + E(nuc-nuc)
    E(ZPE)  - the the zero temperature vibrational energy from the frequency calculation
    E(vib)  - the the finite temperature correction to E(ZPE) due to population
              of excited vibrational states
    E(rot)  - is the rotational thermal energy
    E(trans)- is the translational thermal energy

Summary of contributions to the inner energy U:
Electronic energy                ...   -383.50912161 Eh
Zero point energy                ...      0.19809379 Eh     124.31 kcal/mol
Thermal vibrational correction   ...      0.00738315 Eh       4.63 kcal/mol
Thermal rotational correction    ...      0.00141627 Eh       0.89 kcal/mol
Thermal translational correction ...      0.00141627 Eh       0.89 kcal/mol
-----------------------------------------------------------------------
Total thermal energy                   -383.30081212 Eh


Summary of corrections to the electronic energy:
(perhaps to be used in another calculation)
Total thermal correction                  0.01021570 Eh       6.41 kcal/mol
Non-thermal (ZPE) correction              0.19809379 Eh     124.31 kcal/mol
-----------------------------------------------------------------------
Total correction                          0.20830949 Eh     130.72 kcal/mol


--------
ENTHALPY
--------

The enthalpy is H = U + kB*T
                kB is Boltzmann's constant
Total free energy                 ...   -383.30081212 Eh 
Thermal Enthalpy correction       ...      0.00094421 Eh       0.59 kcal/mol
-----------------------------------------------------------------------
Total Enthalpy                    ...   -383.29986791 Eh


Note: Rotational entropy computed according to Herzberg 
Infrared and Raman Spectra, Chapter V,1, Van Nostrand Reinhold, 1945 
Point Group:  C2v, Symmetry Number:   2  
Rotational constants in cm-1:     0.081296     0.050365     0.031857 

Vibrational entropy computed according to the QRRHO of S. Grimme
Chem.Eur.J. 2012 18 9955


-------
ENTROPY
-------

The entropy contributions are T*S = T*(S(el)+S(vib)+S(rot)+S(trans))
     S(el)   - electronic entropy
     S(vib)  - vibrational entropy
     S(rot)  - rotational entropy
     S(trans)- translational entropy
The entropies will be listed as multiplied by the temperature to get
units of energy

Electronic entropy                ...      0.00000000 Eh      0.00 kcal/mol
Vibrational entropy               ...      0.01279361 Eh      8.03 kcal/mol
Rotational entropy                ...      0.01307903 Eh      8.21 kcal/mol
Translational entropy             ...      0.01918948 Eh     12.04 kcal/mol
-----------------------------------------------------------------------
Final entropy term                ...      0.04506212 Eh     28.28 kcal/mol

In case the symmetry of your molecule has not been determined correctly
or in case you have a reason to use a different symmetry number we print 
out the resulting rotational entropy values for sn=1,12 :
 --------------------------------------------------------
|  sn= 1 | S(rot)=       0.01373348 Eh      8.62 kcal/mol|
|  sn= 2 | S(rot)=       0.01307903 Eh      8.21 kcal/mol|
|  sn= 3 | S(rot)=       0.01269620 Eh      7.97 kcal/mol|
|  sn= 4 | S(rot)=       0.01242457 Eh      7.80 kcal/mol|
|  sn= 5 | S(rot)=       0.01221388 Eh      7.66 kcal/mol|
|  sn= 6 | S(rot)=       0.01204174 Eh      7.56 kcal/mol|
|  sn= 7 | S(rot)=       0.01189619 Eh      7.46 kcal/mol|
|  sn= 8 | S(rot)=       0.01177012 Eh      7.39 kcal/mol|
|  sn= 9 | S(rot)=       0.01165891 Eh      7.32 kcal/mol|
|  sn=10 | S(rot)=       0.01155943 Eh      7.25 kcal/mol|
|  sn=11 | S(rot)=       0.01146944 Eh      7.20 kcal/mol|
|  sn=12 | S(rot)=       0.01138728 Eh      7.15 kcal/mol|
 --------------------------------------------------------


-------------------
GIBBS FREE ENERGY
-------------------

The Gibbs free energy is G = H - T*S

Total enthalpy                    ...   -383.29986791 Eh 
Total entropy correction          ...     -0.04506212 Eh    -28.28 kcal/mol
-----------------------------------------------------------------------
Final Gibbs free energy         ...   -383.34493003 Eh

For completeness - the Gibbs free energy minus the electronic energy
G-E(el)                           ...      0.16419158 Eh    103.03 kcal/mol


Timings for individual modules:

Sum of individual times         ...     1052.415 sec (=  17.540 min)
GTO integral calculation        ...        0.286 sec (=   0.005 min)   0.0 %
SCF iterations                  ...      228.746 sec (=   3.812 min)  21.7 %
Analytical frequency calculation...      823.383 sec (=  13.723 min)  78.2 %
                             ****ORCA TERMINATED NORMALLY****
TOTAL RUN TIME: 0 days 0 hours 17 minutes 32 seconds 701 msec
