
                                 *****************
                                 * O   R   C   A *
                                 *****************

                                            #,                                       
                                            ###                                      
                                            ####                                     
                                            #####                                    
                                            ######                                   
                                           ########,                                 
                                     ,,################,,,,,                         
                               ,,#################################,,                 
                          ,,##########################################,,             
                       ,#########################################, ''#####,          
                    ,#############################################,,   '####,        
                  ,##################################################,,,,####,       
                ,###########''''           ''''###############################       
              ,#####''   ,,,,##########,,,,          '''####'''          '####       
            ,##' ,,,,###########################,,,                        '##       
           ' ,,###''''                  '''############,,,                           
         ,,##''                                '''############,,,,        ,,,,,,###''
      ,#''                                            '''#######################'''  
     '                                                          ''''####''''         
             ,#######,   #######,   ,#######,      ##                                
            ,#'     '#,  ##    ##  ,#'     '#,    #''#        ######   ,####,        
            ##       ##  ##   ,#'  ##            #'  '#       #        #'  '#        
            ##       ##  #######   ##           ,######,      #####,   #    #        
            '#,     ,#'  ##    ##  '#,     ,#' ,#      #,         ##   #,  ,#        
             '#######'   ##     ##  '#######'  #'      '#     #####' # '####'        



                  #######################################################
                  #                        -***-                        #
                  #          Department of theory and spectroscopy      #
                  #    Directorship and core code : Frank Neese         #
                  #        Max Planck Institute fuer Kohlenforschung    #
                  #                Kaiser Wilhelm Platz 1               #
                  #                 D-45470 Muelheim/Ruhr               #
                  #                      Germany                        #
                  #                                                     #
                  #                  All rights reserved                #
                  #                        -***-                        #
                  #######################################################


                         Program Version 5.0.4 -  RELEASE  -


 With contributions from (in alphabetic order):
   Daniel Aravena         : Magnetic Suceptibility
   Michael Atanasov       : Ab Initio Ligand Field Theory (pilot matlab implementation)
   Alexander A. Auer      : GIAO ZORA, VPT2 properties, NMR spectrum
   Ute Becker             : Parallelization
   Giovanni Bistoni       : ED, misc. LED, open-shell LED, HFLD
   Martin Brehm           : Molecular dynamics
   Dmytro Bykov           : SCF Hessian
   Vijay G. Chilkuri      : MRCI spin determinant printing, contributions to CSF-ICE
   Dipayan Datta          : RHF DLPNO-CCSD density
   Achintya Kumar Dutta   : EOM-CC, STEOM-CC
   Dmitry Ganyushin       : Spin-Orbit,Spin-Spin,Magnetic field MRCI
   Miquel Garcia          : C-PCM and meta-GGA Hessian, CC/C-PCM, Gaussian charge scheme
   Yang Guo               : DLPNO-NEVPT2, F12-NEVPT2, CIM, IAO-localization
   Andreas Hansen         : Spin unrestricted coupled pair/coupled cluster methods
   Benjamin Helmich-Paris : MC-RPA, TRAH-SCF, COSX integrals
   Lee Huntington         : MR-EOM, pCC
   Robert Izsak           : Overlap fitted RIJCOSX, COSX-SCS-MP3, EOM
   Marcus Kettner         : VPT2
   Christian Kollmar      : KDIIS, OOCD, Brueckner-CCSD(T), CCSD density, CASPT2, CASPT2-K
   Simone Kossmann        : Meta GGA functionals, TD-DFT gradient, OOMP2, MP2 Hessian
   Martin Krupicka        : Initial AUTO-CI
   Lucas Lang             : DCDCAS
   Marvin Lechner         : AUTO-CI (C++ implementation), FIC-MRCC
   Dagmar Lenk            : GEPOL surface, SMD
   Dimitrios Liakos       : Extrapolation schemes; Compound Job, initial MDCI parallelization
   Dimitrios Manganas     : Further ROCIS development; embedding schemes
   Dimitrios Pantazis     : SARC Basis sets
   Anastasios Papadopoulos: AUTO-CI, single reference methods and gradients
   Taras Petrenko         : DFT Hessian,TD-DFT gradient, ASA, ECA, R-Raman, ABS, FL, XAS/XES, NRVS
   Peter Pinski           : DLPNO-MP2, DLPNO-MP2 Gradient
   Christoph Reimann      : Effective Core Potentials
   Marius Retegan         : Local ZFS, SOC
   Christoph Riplinger    : Optimizer, TS searches, QM/MM, DLPNO-CCSD(T), (RO)-DLPNO pert. Triples
   Tobias Risthaus        : Range-separated hybrids, TD-DFT gradient, RPA, STAB
   Michael Roemelt        : Original ROCIS implementation
   Masaaki Saitow         : Open-shell DLPNO-CCSD energy and density
   Barbara Sandhoefer     : DKH picture change effects
   Avijit Sen             : IP-ROCIS
   Kantharuban Sivalingam : CASSCF convergence, NEVPT2, FIC-MRCI
   Bernardo de Souza      : ESD, SOC TD-DFT
   Georgi Stoychev        : AutoAux, RI-MP2 NMR, DLPNO-MP2 response
   Willem Van den Heuvel  : Paramagnetic NMR
   Boris Wezisla          : Elementary symmetry handling
   Frank Wennmohs         : Technical directorship


 We gratefully acknowledge several colleagues who have allowed us to
 interface, adapt or use parts of their codes:
   Stefan Grimme, W. Hujo, H. Kruse, P. Pracht,  : VdW corrections, initial TS optimization,
                  C. Bannwarth, S. Ehlert          DFT functionals, gCP, sTDA/sTD-DF
   Ed Valeev, F. Pavosevic, A. Kumar             : LibInt (2-el integral package), F12 methods
   Garnet Chan, S. Sharma, J. Yang, R. Olivares  : DMRG
   Ulf Ekstrom                                   : XCFun DFT Library
   Mihaly Kallay                                 : mrcc  (arbitrary order and MRCC methods)
   Jiri Pittner, Ondrej Demel                    : Mk-CCSD
   Frank Weinhold                                : gennbo (NPA and NBO analysis)
   Christopher J. Cramer and Donald G. Truhlar   : smd solvation model
   Lars Goerigk                                  : TD-DFT with DH, B97 family of functionals
   V. Asgeirsson, H. Jonsson                     : NEB implementation
   FAccTs GmbH                                   : IRC, NEB, NEB-TS, DLPNO-Multilevel, CI-OPT
                                                   MM, QMMM, 2- and 3-layer-ONIOM, Crystal-QMMM,
                                                   LR-CPCM, SF, NACMEs, symmetry and pop. for TD-DFT,
                                                   nearIR, NL-DFT gradient (VV10), updates on ESD,
                                                   ML-optimized integration grids
   S Lehtola, MJT Oliveira, MAL Marques          : LibXC Library
   Liviu Ungur et al                             : ANISO software


 Your calculation uses the libint2 library for the computation of 2-el integrals
 For citations please refer to: http://libint.valeyev.net

 Your ORCA version has been built with support for libXC version: 5.1.0
 For citations please refer to: https://tddft.org/programs/libxc/

 This ORCA versions uses:
   CBLAS   interface :  Fast vector & matrix operations
   LAPACKE interface :  Fast linear algebra routines
   SCALAPACK package :  Parallel linear algebra routines
   Shared memory     :  Shared parallel matrices
   BLAS/LAPACK       :  OpenBLAS 0.3.15  USE64BITINT DYNAMIC_ARCH NO_AFFINITY SkylakeX SINGLE_THREADED
        Core in use  :  SkylakeX
   Copyright (c) 2011-2014, The OpenBLAS Project




***************************************
The coordinates will be read from file: 2.xyz
***************************************


Your calculation utilizes the atom-pairwise dispersion correction
based on tight binding partial charges (D4)
Cite in your paper:
E.Caldeweyher, C.Bannwarth, S.Grimme, J.Chem.Phys., (2017), 147, 034112.
E.Caldeweyher, S.Ehlert, A.Hansen, H.Neugebauer, S.Grimme, J.Chem.Phys., (2018), in progress.
   

XCFun DFT library Copyright 2009-2010 Ulf Ekstrom and contributors.
See http://admol.org/xcfun for more information.
This is free software; see the source code for copying conditions.
There is ABSOLUTELY NO WARRANTY; not even for MERCHANTABILITY or FITNESS FOR A PARTICULAR PURPOSE.
For details see the documentation.
Scientific users of this library should cite U. Ekstrom, L. Visscher, R. Bast, A. J. Thorvaldsen and K. Ruud;
J.Chem.Theor.Comp. 2010, DOI: 10.1021/ct100117s
XCFun Version 0.99 

================================================================================

----- Orbital basis set information -----
Your calculation utilizes the basis: def2-SVP
   F. Weigend and R. Ahlrichs, Phys. Chem. Chem. Phys. 7, 3297 (2005).

----- AuxJ basis set information -----
Your calculation utilizes the auxiliary basis: def2/J
   F. Weigend, Phys. Chem. Chem. Phys. 8, 1057 (2006).

================================================================================
                                        WARNINGS
                       Please study these warnings very carefully!
================================================================================


INFO   : the flag for use of the SHARK integral package has been found!

================================================================================
                                       INPUT FILE
================================================================================
NAME = 2.inp
|  1> # ORCA 5.0.4 - 2.inp # write input file
|  2> # Basic Mode
|  3> #
|  4> ! Freq wB97X Def2-SVP D4 SlowConv TightSCF DEFGRID2 Def2/J RIJCOSX 
|  5> 
|  6> 
|  7> 
|  8> %maxcore 4500
|  9> 
| 10> %geom
| 11> Maxiter 150
| 12> END
| 13> 
| 14> * xyzfile 0 1 2.xyz
| 15> 
| 16>                          ****END OF INPUT****
================================================================================

                       ****************************
                       * Single Point Calculation *
                       ****************************

---------------------------------
CARTESIAN COORDINATES (ANGSTROEM)
---------------------------------
  C     -0.000001    0.680876   -0.623257
  C     -0.000001   -0.680876   -0.623257
  N     -0.000000    1.059845    0.717654
  N     -0.000000   -1.059844    0.717654
  C     -0.000000    0.000000    1.567101
  C      0.000000    2.441119    1.153866
  C      0.000000   -2.441119    1.153866
  H     -0.893547    2.969664    0.787753
  H     -0.893547   -2.969664    0.787752
  H      0.893548   -2.969662    0.787753
  H      0.893548    2.969663    0.787754
  H     -0.000000    2.453752    2.250396
  H     -0.000000   -2.453753    2.250395
  C     -0.000000    1.664688   -1.744642
  C     -0.000000   -1.664688   -1.744641
  H      0.888738    2.315484   -1.712644
  H      0.888737   -2.315484   -1.712643
  H     -0.888737   -2.315485   -1.712643
  H     -0.888737    2.315485   -1.712645
  H      0.000000    1.139847   -2.709956
  H     -0.000000   -1.139847   -2.709956

----------------------------
CARTESIAN COORDINATES (A.U.)
----------------------------
  NO LB      ZA    FRAG     MASS         X           Y           Z
   0 C     6.0000    0    12.011   -0.000002    1.286669   -1.177785
   1 C     6.0000    0    12.011   -0.000002   -1.286669   -1.177785
   2 N     7.0000    0    14.007   -0.000000    2.002817    1.356170
   3 N     7.0000    0    14.007   -0.000000   -2.002815    1.356170
   4 C     6.0000    0    12.011   -0.000000    0.000000    2.961392
   5 C     6.0000    0    12.011    0.000000    4.613046    2.180491
   6 C     6.0000    0    12.011    0.000000   -4.613046    2.180491
   7 H     1.0000    0     1.008   -1.688559    5.611852    1.488637
   8 H     1.0000    0     1.008   -1.688559   -5.611852    1.488636
   9 H     1.0000    0     1.008    1.688561   -5.611848    1.488637
  10 H     1.0000    0     1.008    1.688561    5.611850    1.488639
  11 H     1.0000    0     1.008   -0.000000    4.636919    4.252632
  12 H     1.0000    0     1.008   -0.000000   -4.636921    4.252630
  13 C     6.0000    0    12.011   -0.000000    3.145804   -3.296896
  14 C     6.0000    0    12.011   -0.000000   -3.145804   -3.296894
  15 H     1.0000    0     1.008    1.679471    4.375631   -3.236428
  16 H     1.0000    0     1.008    1.679470   -4.375631   -3.236426
  17 H     1.0000    0     1.008   -1.679470   -4.375633   -3.236426
  18 H     1.0000    0     1.008   -1.679470    4.375633   -3.236430
  19 H     1.0000    0     1.008    0.000000    2.153999   -5.121075
  20 H     1.0000    0     1.008   -0.000000   -2.153999   -5.121075

--------------------------------
INTERNAL COORDINATES (ANGSTROEM)
--------------------------------
 C      0   0   0     0.000000000000     0.00000000     0.00000000
 C      1   0   0     1.361752000000     0.00000000     0.00000000
 N      1   2   0     1.393434538428   105.78138211     0.00000000
 N      2   1   3     1.393434266460   105.78134254     0.00000000
 C      4   2   1     1.358245011088   112.93024070     0.00000000
 C      3   1   2     1.448516058599   123.30771280   180.00001539
 C      4   2   1     1.448517012178   123.30766132   179.99998458
 H      6   3   1     1.100829136153   110.95844905    60.36697835
 H      7   4   2     1.100829468733   110.95843152   299.63306388
 H      7   4   2     1.100828987592   110.95835160    60.36713745
 H      6   3   1     1.100829135145   110.95841270   299.63283491
 H      6   3   1     1.096602769278   108.18639978   179.99995080
 H      7   4   2     1.096601780865   108.18644072   180.00004920
 C      1   2   3     1.491774235456   131.26108134   179.99990617
 C      2   1   3     1.491773483744   131.26110667   180.00009383
 H     14   1   2     1.102004781416   111.57017203   240.13556522
 H     15   2   1     1.102003974942   111.57020122   119.86445394
 H     15   2   1     1.102004565500   111.57015934   240.13545735
 H     14   1   2     1.102004536464   111.57018935   119.86451936
 H     14   1   2     1.098767124498   110.20600333     0.00000000
 H     15   2   1     1.098768003041   110.20600291     0.00000000

---------------------------
INTERNAL COORDINATES (A.U.)
---------------------------
 C      0   0   0     0.000000000000     0.00000000     0.00000000
 C      1   0   0     2.573338342320     0.00000000     0.00000000
 N      1   2   0     2.633209663175   105.78138211     0.00000000
 N      2   1   3     2.633209149232   105.78134254     0.00000000
 C      4   2   1     2.566711093721   112.93024070     0.00000000
 C      3   1   2     2.737298651340   123.30771280   180.00001539
 C      4   2   1     2.737300453342   123.30766132   179.99998458
 H      6   3   1     2.080265587570   110.95844905    60.36697835
 H      7   4   2     2.080266216055   110.95843152   299.63306388
 H      7   4   2     2.080265306830   110.95835160    60.36713745
 H      6   3   1     2.080265585665   110.95841270   299.63283491
 H      6   3   1     2.072278911636   108.18639978   179.99995080
 H      7   4   2     2.072277043806   108.18644072   180.00004920
 C      1   2   3     2.819044758651   131.26108134   179.99990617
 C      2   1   3     2.819043338121   131.26110667   180.00009383
 H     14   1   2     2.082487235148   111.57017203   240.13556522
 H     15   2   1     2.082485711134   111.57020122   119.86445394
 H     15   2   1     2.082486827125   111.57015934   240.13545735
 H     14   1   2     2.082486772256   111.57018935   119.86451936
 H     14   1   2     2.076368950257   110.20600333     0.00000000
 H     15   2   1     2.076370610462   110.20600291     0.00000000

---------------------
BASIS SET INFORMATION
---------------------
There are 3 groups of distinct atoms

 Group   1 Type C   : 7s4p1d contracted to 3s2p1d pattern {511/31/1}
 Group   2 Type N   : 7s4p1d contracted to 3s2p1d pattern {511/31/1}
 Group   3 Type H   : 4s1p contracted to 2s1p pattern {31/1}

Atom   0C    basis set group =>   1
Atom   1C    basis set group =>   1
Atom   2N    basis set group =>   2
Atom   3N    basis set group =>   2
Atom   4C    basis set group =>   1
Atom   5C    basis set group =>   1
Atom   6C    basis set group =>   1
Atom   7H    basis set group =>   3
Atom   8H    basis set group =>   3
Atom   9H    basis set group =>   3
Atom  10H    basis set group =>   3
Atom  11H    basis set group =>   3
Atom  12H    basis set group =>   3
Atom  13C    basis set group =>   1
Atom  14C    basis set group =>   1
Atom  15H    basis set group =>   3
Atom  16H    basis set group =>   3
Atom  17H    basis set group =>   3
Atom  18H    basis set group =>   3
Atom  19H    basis set group =>   3
Atom  20H    basis set group =>   3
---------------------------------
AUXILIARY/J BASIS SET INFORMATION
---------------------------------
There are 3 groups of distinct atoms

 Group   1 Type C   : 12s5p4d2f1g contracted to 6s4p3d1f1g pattern {711111/2111/211/2/1}
 Group   2 Type N   : 12s5p4d2f1g contracted to 6s4p3d1f1g pattern {711111/2111/211/2/1}
 Group   3 Type H   : 5s2p1d contracted to 3s1p1d pattern {311/2/1}

Atom   0C    basis set group =>   1
Atom   1C    basis set group =>   1
Atom   2N    basis set group =>   2
Atom   3N    basis set group =>   2
Atom   4C    basis set group =>   1
Atom   5C    basis set group =>   1
Atom   6C    basis set group =>   1
Atom   7H    basis set group =>   3
Atom   8H    basis set group =>   3
Atom   9H    basis set group =>   3
Atom  10H    basis set group =>   3
Atom  11H    basis set group =>   3
Atom  12H    basis set group =>   3
Atom  13C    basis set group =>   1
Atom  14C    basis set group =>   1
Atom  15H    basis set group =>   3
Atom  16H    basis set group =>   3
Atom  17H    basis set group =>   3
Atom  18H    basis set group =>   3
Atom  19H    basis set group =>   3
Atom  20H    basis set group =>   3
------------------------------------------------------------------------------
                           ORCA GTO INTEGRAL CALCULATION
                           -- RI-GTO INTEGRALS CHOSEN --
------------------------------------------------------------------------------
------------------------------------------------------------------------------
                   ___                                                        
                  /   \      - P O W E R E D   B Y -                         
                 /     \                                                     
                 |  |  |   _    _      __       _____    __    __             
                 |  |  |  | |  | |    /  \     |  _  \  |  |  /  |          
                  \  \/   | |  | |   /    \    | | | |  |  | /  /          
                 / \  \   | |__| |  /  /\  \   | |_| |  |  |/  /          
                |  |  |   |  __  | /  /__\  \  |    /   |      \           
                |  |  |   | |  | | |   __   |  |    \   |  |\   \          
                \     /   | |  | | |  |  |  |  | |\  \  |  | \   \       
                 \___/    |_|  |_| |__|  |__|  |_| \__\ |__|  \__/        
                                                                              
                      - O R C A' S   B I G   F R I E N D -                    
                                      &                                       
                       - I N T E G R A L  F E E D E R -                       
                                                                              
 v1 FN, 2020, v2 2021                                                         
------------------------------------------------------------------------------


Reading SHARK input file 2.SHARKINP.tmp ... ok
----------------------
SHARK INTEGRAL PACKAGE
----------------------

Number of atoms                             ...     21
Number of basis functions                   ...    186
Number of shells                            ...     90
Maximum angular momentum                    ...      2
Integral batch strategy                     ... SHARK/LIBINT Hybrid
RI-J (if used) integral strategy            ... SPLIT-RIJ (Revised 2003 algorithm where possible)
Printlevel                                  ...      1
Contraction scheme used                     ... SEGMENTED contraction
Coulomb Range Separation                    ... NOT USED
Exchange Range Separation                   ... Long Range
   Mu parameter                             ...  0.300000
   Scaling (regular/separated)              ...  0.157706  0.842294
Finite Nucleus Model                        ... NOT USED
Auxiliary Coulomb fitting basis             ... AVAILABLE
   # of basis functions in Aux-J            ...    573
   # of shells in Aux-J                     ...    195
   Maximum angular momentum in Aux-J        ...      4
Auxiliary J/K fitting basis                 ... NOT available
Auxiliary Correlation fitting basis         ... NOT available
Auxiliary 'external' fitting basis          ... NOT available
Integral threshold                          ...     2.500000e-11
Primitive cut-off                           ...     2.500000e-12
Primitive pair pre-selection threshold      ...     2.500000e-12

Calculating pre-screening integrals         ... done (  0.0 sec) Dimension = 90
Organizing shell pair data                  ... done (  0.0 sec)
Shell pair information
Total number of shell pairs                 ...      4095
Shell pairs after pre-screening             ...      3788
Total number of primitive shell pairs       ...     14349
Primitive shell pairs kept                  ...      9721
          la=0 lb=0:   1249 shell pairs
          la=1 lb=0:   1404 shell pairs
          la=1 lb=1:    418 shell pairs
          la=2 lb=0:    423 shell pairs
          la=2 lb=1:    252 shell pairs
          la=2 lb=2:     42 shell pairs

Calculating one electron integrals          ... done (  0.0 sec)
Calculating RI/J V-Matrix + Cholesky decomp.... done (  0.0 sec)
Calculating Nuclear repulsion               ... done (  0.0 sec) ENN=    459.940225848438 Eh

SHARK setup successfully completed in   0.2 seconds

Maximum memory used throughout the entire GTOINT-calculation: 26.4 MB
-------------------------------------------------------------------------------
                                 ORCA SCF
-------------------------------------------------------------------------------

------------
SCF SETTINGS
------------
Hamiltonian:
 Density Functional     Method          .... DFT(GTOs)
 Exchange Functional    Exchange        .... WB97X
 Correlation Functional Correlation     .... WB97X
 Gradients option       PostSCFGGA      .... off
 Hybrid DFT is turned on
   Fraction HF Exchange ScalHFX         ....  0.157706
   Scaling of DF-GGA-X  ScalDFX         ....  0.000000
   Scaling of DF-GGA-C  ScalDFC         ....  1.000000
   Scaling of DF-LDA-C  ScalLDAC        ....  1.000000
   Perturbative correction              ....  0.000000
   Density functional embedding theory  .... OFF
 Long-range corrected/Screened/Range-Separated Hybrid DFT is turned on
   Amount of maximum screened exact exchange              ....  0.842294
   Range separation parameter mu (erf(mu*r12)/r12)        ....  0.300000
 RI-approximation to the Coulomb term is turned on
   Number of AuxJ basis functions       .... 573
   RIJ-COSX (HFX calculated with COS-X)).... on


General Settings:
 Integral files         IntName         .... 2
 Hartree-Fock type      HFTyp           .... RHF
 Total Charge           Charge          ....    0
 Multiplicity           Mult            ....    1
 Number of Electrons    NEL             ....   68
 Basis Dimension        Dim             ....  186
 Nuclear Repulsion      ENuc            ....    459.9402258484 Eh

Convergence Acceleration:
 DIIS                   CNVDIIS         .... on
   Start iteration      DIISMaxIt       ....     0
   Startup error        DIISStart       ....  0.200000
   # of expansion vecs  DIISMaxEq       ....     5
   Bias factor          DIISBfac        ....   1.050
   Max. coefficient     DIISMaxC        ....  10.000
 Trust-Rad. Augm. Hess. CNVTRAH         .... auto
   Auto Start mean grad. ratio tolernc. ....  1.125000
   Auto Start start iteration           ....    20
   Auto Start num. interpolation iter.  ....    10
   Max. Number of Micro iterations      ....    16
   Max. Number of Macro iterations      .... Maxiter - #DIIS iter
   Number of Davidson start vectors     ....     2
   Converg. threshold I  (grad. norm)   ....   1.000e-05
   Converg. threshold II (energy diff.) ....   1.000e-08
   Grad. Scal. Fac. for Micro threshold ....   0.100
   Minimum threshold for Micro iter.    ....   0.010
   NR start threshold (gradient norm)   ....   0.001
   Initial trust radius                 ....   0.400
   Minimum AH scaling param. (alpha)    ....   1.000
   Maximum AH scaling param. (alpha)    .... 1000.000
   Orbital update algorithm             .... Taylor
   White noise on init. David. guess    .... on
   Maximum white noise                  ....   0.010
   Quad. conv. algorithm                .... NR
 SOSCF                  CNVSOSCF        .... on
   Start iteration      SOSCFMaxIt      ....   150
   Startup grad/error   SOSCFStart      ....  0.001000
 Level Shifting         CNVShift        .... on
   Level shift para.    LevelShift      ....    0.2500
   Turn off err/grad.   ShiftErr        ....    0.0000
 Zerner damping         CNVZerner       .... off
 Static damping         CNVDamp         .... on
   Fraction old density DampFac         ....    0.8500
   Max. Damping (<1)    DampMax         ....    0.9800
   Min. Damping (>=0)   DampMin         ....    0.0000
   Turn off err/grad.   DampErr         ....    0.0300
 Fernandez-Rico         CNVRico         .... off

SCF Procedure:
 Maximum # iterations   MaxIter         ....   125
 SCF integral mode      SCFMode         .... Direct
   Integral package                     .... SHARK and LIBINT hybrid scheme
 Reset frequency        DirectResetFreq ....    20
 Integral Threshold     Thresh          ....  2.500e-11 Eh
 Primitive CutOff       TCut            ....  2.500e-12 Eh

Convergence Tolerance:
 Convergence Check Mode ConvCheckMode   .... Total+1el-Energy
 Convergence forced     ConvForced      .... 0
 Energy Change          TolE            ....  1.000e-08 Eh
 1-El. energy change                    ....  1.000e-05 Eh
 Orbital Gradient       TolG            ....  1.000e-05
 Orbital Rotation angle TolX            ....  1.000e-05
 DIIS Error             TolErr          ....  5.000e-07


Diagonalization of the overlap matrix:
Smallest eigenvalue                        ... 9.144e-04
Time for diagonalization                   ...    0.006 sec
Threshold for overlap eigenvalues          ... 1.000e-08
Number of eigenvalues below threshold      ... 0
Time for construction of square roots      ...    0.003 sec
Total time needed                          ...    0.009 sec

Time for model grid setup =    0.293 sec

------------------------------
INITIAL GUESS: MODEL POTENTIAL
------------------------------
Loading Hartree-Fock densities                     ... done
Calculating cut-offs                               ... done
Initializing the effective Hamiltonian             ... done
Setting up the integral package (SHARK)            ... done
Starting the Coulomb interaction                   ... done (   0.3 sec)
Reading the grid                                   ... done
Mapping shells                                     ... done
Starting the XC term evaluation                    ... done (   0.4 sec)
  promolecular density results
     # of electrons  =     68.000594551
     EX              =    -52.438692086
     EC              =     -2.247862862
     EX+EC           =    -54.686554948
Transforming the Hamiltonian                       ... done (   0.0 sec)
Diagonalizing the Hamiltonian                      ... done (   0.0 sec)
Back transforming the eigenvectors                 ... done (   0.0 sec)
Now organizing SCF variables                       ... done
                      ------------------
                      INITIAL GUESS DONE (   0.9 sec)
                      ------------------
-------------------
DFT GRID GENERATION
-------------------

General Integration Accuracy     IntAcc      ... 4.388
Radial Grid Type                 RadialGrid  ... OptM3 with GC (2021)
Angular Grid (max. ang.)         AngularGrid ... 4 (Lebedev-302)
Angular grid pruning method      GridPruning ... 4 (adaptive)
Weight generation scheme         WeightScheme... Becke
Basis function cutoff            BFCut       ... 1.0000e-11
Integration weight cutoff        WCut        ... 1.0000e-14
Angular grids for H and He will be reduced by one unit
Partially contracted basis set               ... off
Rotationally invariant grid construction     ... off

Total number of grid points                  ...    92557
Total number of batches                      ...     1455
Average number of points per batch           ...       63
Average number of grid points per atom       ...     4407
Time for grid setup =    1.134 sec

--------------------
COSX GRID GENERATION
--------------------

GRIDX 1
-------
General Integration Accuracy     IntAcc      ... 3.816
Radial Grid Type                 RadialGrid  ... OptM3 with GC (2021)
Angular Grid (max. ang.)         AngularGrid ... 1 (Lebedev-50)
Angular grid pruning method      GridPruning ... 4 (adaptive)
Weight generation scheme         WeightScheme... Becke
Basis function cutoff            BFCut       ... 1.0000e-11
Integration weight cutoff        WCut        ... 1.0000e-14
Angular grids for H and He will be reduced by one unit
Partially contracted basis set               ... on
Rotationally invariant grid construction     ... off

Total number of grid points                  ...    11845
Total number of batches                      ...      198
Average number of points per batch           ...       59
Average number of grid points per atom       ...      564
UseSFitting                                  ... on

GRIDX 2
-------
General Integration Accuracy     IntAcc      ... 4.020
Radial Grid Type                 RadialGrid  ... OptM3 with GC (2021)
Angular Grid (max. ang.)         AngularGrid ... 2 (Lebedev-110)
Angular grid pruning method      GridPruning ... 4 (adaptive)
Weight generation scheme         WeightScheme... Becke
Basis function cutoff            BFCut       ... 1.0000e-11
Integration weight cutoff        WCut        ... 1.0000e-14
Angular grids for H and He will be reduced by one unit
Partially contracted basis set               ... on
Rotationally invariant grid construction     ... off

Total number of grid points                  ...    25065
Total number of batches                      ...      403
Average number of points per batch           ...       62
Average number of grid points per atom       ...     1194
UseSFitting                                  ... on

GRIDX 3
-------
General Integration Accuracy     IntAcc      ... 4.338
Radial Grid Type                 RadialGrid  ... OptM3 with GC (2021)
Angular Grid (max. ang.)         AngularGrid ... 3 (Lebedev-194)
Angular grid pruning method      GridPruning ... 4 (adaptive)
Weight generation scheme         WeightScheme... Becke
Basis function cutoff            BFCut       ... 1.0000e-11
Integration weight cutoff        WCut        ... 1.0000e-14
Angular grids for H and He will be reduced by one unit
Partially contracted basis set               ... on
Rotationally invariant grid construction     ... off

Total number of grid points                  ...    54849
Total number of batches                      ...      869
Average number of points per batch           ...       63
Average number of grid points per atom       ...     2612
UseSFitting                                  ... on

Time for X-Grid setup             =    1.432 sec

--------------
SCF ITERATIONS
--------------
ITER       Energy         Delta-E        Max-DP      RMS-DP      [F,P]     Damp
               ***  Starting incremental Fock matrix formation  ***
  0   -382.8808077549   0.000000000000 0.03926865  0.00080662  0.1493205 0.8500
  1   -382.9175351153  -0.036727360341 0.04236271  0.00077520  0.1212503 0.8500
                               ***Turning on DIIS***
  2   -382.9459793480  -0.028444232740 0.03735531  0.00064330  0.0940659 0.8500
  3   -382.9674002777  -0.021420929695 0.03015728  0.00046810  0.0721453 0.8500
  4   -382.9840480503  -0.016647772630 0.02476694  0.00036181  0.0577962 0.8500
  5   -382.9972199408  -0.013171890500 0.02086298  0.00029807  0.0479431 0.8500
  6   -383.0079385413  -0.010718600496 0.01779555  0.00025210  0.0403996 0.8500
  7   -383.0168085622  -0.008870020843 0.01536231  0.00021735  0.0342560 0.8500
  8   -383.0242240311  -0.007415468924 0.08857842  0.00124869  0.0290011 0.0000
  9   -383.0641776862  -0.039953655114 0.00132341  0.00004585  0.0011173 0.0000
                      *** Initiating the SOSCF procedure ***
                           *** Shutting down DIIS ***
                      *** Re-Reading the Fockian *** 
                      *** Removing any level shift *** 
ITER      Energy       Delta-E        Grad      Rot      Max-DP    RMS-DP
 10   -383.06419808  -0.0000203947  0.000608  0.000608  0.000743  0.000024
               *** Restarting incremental Fock matrix formation ***
 11   -383.06428734  -0.0000892637  0.000431  0.000957  0.000650  0.000019
 12   -383.06428904  -0.0000016990  0.000115  0.000717  0.000420  0.000016
 13   -383.06428955  -0.0000005043  0.000047  0.000097  0.000178  0.000005
 14   -383.06428961  -0.0000000646  0.000008  0.000010  0.000067  0.000001
 15   -383.06428962  -0.0000000052  0.000004  0.000008  0.000027  0.000000
                  ***Gradient check signals convergence***
              ***Rediagonalizing the Fockian in SOSCF/NRSCF***

               *****************************************************
               *                     SUCCESS                       *
               *           SCF CONVERGED AFTER  16 CYCLES          *
               *****************************************************

Old exchange energy                            =    -17.408915517 Eh
New exchange energy                            =    -17.408897886 Eh
Exchange energy change after final integration =      0.000017632 Eh
Total energy after final integration           =   -383.064271988 Eh
Final COS-X integration done in                =    33.457 sec

----------------
TOTAL SCF ENERGY
----------------

Total Energy       :         -383.06427199 Eh          -10423.70877 eV

Components:
Nuclear Repulsion  :          459.94022585 Eh           12515.60983 eV
Electronic Energy  :         -843.00449784 Eh          -22939.31860 eV
One Electron Energy:        -1427.68031072 Eh          -38849.15631 eV
Two Electron Energy:          584.67581289 Eh           15909.83771 eV
Max COSX asymmetry :            0.00000216 Eh               0.00006 eV

Virial components:
Potential Energy   :         -761.60641459 Eh          -20724.36415 eV
Kinetic Energy     :          378.54214260 Eh           10300.65538 eV
Virial Ratio       :            2.01194617


DFT components:
N(Alpha)           :       34.000116142495 electrons
N(Beta)            :       34.000116142495 electrons
N(Total)           :       68.000232284990 electrons
E(XC)              :      -38.715783518448 Eh       
DFET-embed. en.    :        0.000000000000 Eh       

---------------
SCF CONVERGENCE
---------------

  Last Energy change         ...   -1.6248e-09  Tolerance :   1.0000e-08
  Last MAX-Density change    ...    3.5527e-15  Tolerance :   1.0000e-07
  Last RMS-Density change    ...    4.6916e-17  Tolerance :   5.0000e-09
  Last Orbital Gradient      ...    6.4697e-07  Tolerance :   1.0000e-05
  Last Orbital Rotation      ...    2.1655e-06  Tolerance :   1.0000e-05

             **** THE GBW FILE WAS UPDATED (2.gbw) ****
             **** DENSITY 2.scfp WAS UPDATED ****
             **** ENERGY FILE WAS UPDATED (2.en.tmp) ****
             **** THE GBW FILE WAS UPDATED (2.gbw) ****
             **** DENSITY 2.scfp WAS UPDATED ****
----------------
ORBITAL ENERGIES
----------------

  NO   OCC          E(Eh)            E(eV) 
   0   2.0000     -14.434583      -392.7850 
   1   2.0000     -14.434582      -392.7850 
   2   2.0000     -10.300173      -280.2819 
   3   2.0000     -10.300145      -280.2812 
   4   2.0000     -10.288926      -279.9759 
   5   2.0000     -10.288407      -279.9618 
   6   2.0000     -10.283171      -279.8193 
   7   2.0000     -10.283118      -279.8179 
   8   2.0000     -10.256502      -279.0936 
   9   2.0000      -1.134674       -30.8761 
  10   2.0000      -1.026594       -27.9351 
  11   2.0000      -0.913698       -24.8630 
  12   2.0000      -0.868722       -23.6391 
  13   2.0000      -0.856834       -23.3156 
  14   2.0000      -0.783744       -21.3268 
  15   2.0000      -0.777080       -21.1454 
  16   2.0000      -0.679295       -18.4846 
  17   2.0000      -0.672569       -18.3015 
  18   2.0000      -0.611386       -16.6367 
  19   2.0000      -0.591940       -16.1075 
  20   2.0000      -0.554274       -15.0826 
  21   2.0000      -0.544563       -14.8183 
  22   2.0000      -0.537651       -14.6302 
  23   2.0000      -0.525676       -14.3044 
  24   2.0000      -0.524950       -14.2846 
  25   2.0000      -0.515485       -14.0270 
  26   2.0000      -0.507951       -13.8220 
  27   2.0000      -0.498469       -13.5640 
  28   2.0000      -0.475492       -12.9388 
  29   2.0000      -0.473146       -12.8750 
  30   2.0000      -0.468339       -12.7442 
  31   2.0000      -0.358041        -9.7428 
  32   2.0000      -0.298244        -8.1156 
  33   2.0000      -0.295932        -8.0527 
  34   0.0000       0.133623         3.6361 
  35   0.0000       0.135898         3.6980 
  36   0.0000       0.151073         4.1109 
  37   0.0000       0.152683         4.1547 
  38   0.0000       0.177940         4.8420 
  39   0.0000       0.190144         5.1741 
  40   0.0000       0.197019         5.3612 
  41   0.0000       0.205879         5.6022 
  42   0.0000       0.217465         5.9175 
  43   0.0000       0.229983         6.2582 
  44   0.0000       0.233018         6.3407 
  45   0.0000       0.250039         6.8039 
  46   0.0000       0.264887         7.2079 
  47   0.0000       0.287932         7.8350 
  48   0.0000       0.288409         7.8480 
  49   0.0000       0.305900         8.3240 
  50   0.0000       0.310804         8.4574 
  51   0.0000       0.339000         9.2247 
  52   0.0000       0.358877         9.7655 
  53   0.0000       0.384856        10.4725 
  54   0.0000       0.399184        10.8623 
  55   0.0000       0.468250        12.7417 
  56   0.0000       0.480158        13.0658 
  57   0.0000       0.497954        13.5500 
  58   0.0000       0.501719        13.6525 
  59   0.0000       0.505097        13.7444 
  60   0.0000       0.527022        14.3410 
  61   0.0000       0.546542        14.8722 
  62   0.0000       0.564155        15.3515 
  63   0.0000       0.568063        15.4578 
  64   0.0000       0.580736        15.8026 
  65   0.0000       0.615854        16.7582 
  66   0.0000       0.622498        16.9390 
  67   0.0000       0.661137        17.9904 
  68   0.0000       0.662390        18.0246 
  69   0.0000       0.678392        18.4600 
  70   0.0000       0.699998        19.0479 
  71   0.0000       0.731722        19.9112 
  72   0.0000       0.731752        19.9120 
  73   0.0000       0.743248        20.2248 
  74   0.0000       0.745727        20.2923 
  75   0.0000       0.749163        20.3858 
  76   0.0000       0.751273        20.4432 
  77   0.0000       0.760830        20.7032 
  78   0.0000       0.762639        20.7525 
  79   0.0000       0.771470        20.9928 
  80   0.0000       0.784349        21.3432 
  81   0.0000       0.785577        21.3766 
  82   0.0000       0.788303        21.4508 
  83   0.0000       0.803674        21.8691 
  84   0.0000       0.807468        21.9723 
  85   0.0000       0.812604        22.1121 
  86   0.0000       0.823126        22.3984 
  87   0.0000       0.825895        22.4737 
  88   0.0000       0.836298        22.7568 
  89   0.0000       0.851437        23.1688 
  90   0.0000       0.858285        23.3551 
  91   0.0000       0.964073        26.2338 
  92   0.0000       1.002434        27.2776 
  93   0.0000       1.019572        27.7440 
  94   0.0000       1.036045        28.1922 
  95   0.0000       1.055182        28.7130 
  96   0.0000       1.077945        29.3324 
  97   0.0000       1.087640        29.5962 
  98   0.0000       1.170904        31.8619 
  99   0.0000       1.212164        32.9847 
 100   0.0000       1.246117        33.9086 
 101   0.0000       1.289979        35.1021 
 102   0.0000       1.304658        35.5015 
 103   0.0000       1.317074        35.8394 
 104   0.0000       1.338776        36.4300 
 105   0.0000       1.348640        36.6984 
 106   0.0000       1.396727        38.0069 
 107   0.0000       1.423012        38.7221 
 108   0.0000       1.555215        42.3196 
 109   0.0000       1.555609        42.3303 
 110   0.0000       1.570822        42.7443 
 111   0.0000       1.629527        44.3417 
 112   0.0000       1.634040        44.4645 
 113   0.0000       1.635539        44.5053 
 114   0.0000       1.642432        44.6929 
 115   0.0000       1.644864        44.7590 
 116   0.0000       1.660314        45.1794 
 117   0.0000       1.663997        45.2797 
 118   0.0000       1.680645        45.7327 
 119   0.0000       1.742894        47.4265 
 120   0.0000       1.751479        47.6602 
 121   0.0000       1.758844        47.8606 
 122   0.0000       1.818275        49.4778 
 123   0.0000       1.872716        50.9592 
 124   0.0000       1.876555        51.0637 
 125   0.0000       1.886912        51.3455 
 126   0.0000       1.889025        51.4030 
 127   0.0000       1.893865        51.5347 
 128   0.0000       1.897595        51.6362 
 129   0.0000       1.898178        51.6521 
 130   0.0000       1.917425        52.1758 
 131   0.0000       1.934214        52.6326 
 132   0.0000       1.958124        53.2833 
 133   0.0000       1.978638        53.8415 
 134   0.0000       2.000412        54.4340 
 135   0.0000       2.010849        54.7180 
 136   0.0000       2.019491        54.9531 
 137   0.0000       2.046834        55.6972 
 138   0.0000       2.077831        56.5407 
 139   0.0000       2.086962        56.7891 
 140   0.0000       2.131426        57.9991 
 141   0.0000       2.146477        58.4086 
 142   0.0000       2.175777        59.2059 
 143   0.0000       2.204449        59.9861 
 144   0.0000       2.223502        60.5046 
 145   0.0000       2.225182        60.5503 
 146   0.0000       2.256441        61.4009 
 147   0.0000       2.283317        62.1322 
 148   0.0000       2.308805        62.8258 
 149   0.0000       2.321271        63.1650 
 150   0.0000       2.347477        63.8781 
 151   0.0000       2.380133        64.7667 
 152   0.0000       2.383791        64.8662 
 153   0.0000       2.422362        65.9158 
 154   0.0000       2.439097        66.3712 
 155   0.0000       2.501642        68.0731 
 156   0.0000       2.523893        68.6786 
 157   0.0000       2.539180        69.0946 
 158   0.0000       2.563594        69.7590 
 159   0.0000       2.596020        70.6413 
 160   0.0000       2.619946        71.2924 
 161   0.0000       2.641805        71.8872 
 162   0.0000       2.657081        72.3029 
 163   0.0000       2.698299        73.4245 
 164   0.0000       2.766693        75.2855 
 165   0.0000       2.774052        75.4858 
 166   0.0000       2.807573        76.3979 
 167   0.0000       2.835615        77.1610 
 168   0.0000       2.879620        78.3584 
 169   0.0000       2.884414        78.4889 
 170   0.0000       2.887724        78.5790 
 171   0.0000       2.929620        79.7190 
 172   0.0000       2.941684        80.0473 
 173   0.0000       2.996333        81.5344 
 174   0.0000       3.002367        81.6986 
 175   0.0000       3.021683        82.2242 
 176   0.0000       3.045625        82.8757 
 177   0.0000       3.065065        83.4046 
 178   0.0000       3.070766        83.5598 
 179   0.0000       3.105859        84.5147 
 180   0.0000       3.132794        85.2477 
 181   0.0000       3.163142        86.0735 
 182   0.0000       3.308812        90.0374 
 183   0.0000       3.425576        93.2147 
 184   0.0000       3.436406        93.5094 
 185   0.0000       3.527145        95.9785 

                    ********************************
                    * MULLIKEN POPULATION ANALYSIS *
                    ********************************

-----------------------
MULLIKEN ATOMIC CHARGES
-----------------------
   0 C :   -0.105591
   1 C :   -0.105585
   2 N :   -0.248351
   3 N :   -0.248352
   4 C :   -0.135406
   5 C :    0.113906
   6 C :    0.113905
   7 H :    0.031782
   8 H :    0.031782
   9 H :    0.031782
  10 H :    0.031782
  11 H :    0.060152
  12 H :    0.060152
  13 C :    0.084958
  14 C :    0.084959
  15 H :    0.038756
  16 H :    0.038756
  17 H :    0.038756
  18 H :    0.038756
  19 H :    0.021550
  20 H :    0.021550
Sum of atomic charges:   -0.0000000

--------------------------------
MULLIKEN REDUCED ORBITAL CHARGES
--------------------------------
  0 C s       :     3.091586  s :     3.091586
      pz      :     0.877069  p :     2.957245
      px      :     1.090054
      py      :     0.990122
      dz2     :     0.017640  d :     0.056760
      dxz     :     0.009409
      dyz     :     0.013713
      dx2y2   :     0.005692
      dxy     :     0.010307
  1 C s       :     3.091582  s :     3.091582
      pz      :     0.877068  p :     2.957242
      px      :     1.090054
      py      :     0.990121
      dz2     :     0.017640  d :     0.056761
      dxz     :     0.009409
      dyz     :     0.013713
      dx2y2   :     0.005692
      dxy     :     0.010307
  2 N s       :     3.400998  s :     3.400998
      pz      :     1.122923  p :     3.815343
      px      :     1.538984
      py      :     1.153437
      dz2     :     0.008955  d :     0.032010
      dxz     :     0.005290
      dyz     :     0.008570
      dx2y2   :     0.005074
      dxy     :     0.004121
  3 N s       :     3.400999  s :     3.400999
      pz      :     1.122922  p :     3.815343
      px      :     1.538983
      py      :     1.153438
      dz2     :     0.008955  d :     0.032010
      dxz     :     0.005290
      dyz     :     0.008570
      dx2y2   :     0.005074
      dxy     :     0.004121
  4 C s       :     3.637875  s :     3.637875
      pz      :     1.122841  p :     2.430748
      px      :     0.661790
      py      :     0.646117
      dz2     :     0.008723  d :     0.066783
      dxz     :     0.010052
      dyz     :     0.029043
      dx2y2   :     0.007092
      dxy     :     0.011873
  5 C s       :     2.979531  s :     2.979531
      pz      :     1.043828  p :     2.867461
      px      :     1.013621
      py      :     0.810012
      dz2     :     0.008240  d :     0.039103
      dxz     :     0.002941
      dyz     :     0.006428
      dx2y2   :     0.009450
      dxy     :     0.012044
  6 C s       :     2.979531  s :     2.979531
      pz      :     1.043829  p :     2.867461
      px      :     1.013622
      py      :     0.810011
      dz2     :     0.008240  d :     0.039103
      dxz     :     0.002941
      dyz     :     0.006428
      dx2y2   :     0.009450
      dxy     :     0.012044
  7 H s       :     0.945341  s :     0.945341
      pz      :     0.005674  p :     0.022877
      px      :     0.011950
      py      :     0.005254
  8 H s       :     0.945341  s :     0.945341
      pz      :     0.005674  p :     0.022877
      px      :     0.011950
      py      :     0.005254
  9 H s       :     0.945341  s :     0.945341
      pz      :     0.005674  p :     0.022877
      px      :     0.011950
      py      :     0.005254
 10 H s       :     0.945341  s :     0.945341
      pz      :     0.005674  p :     0.022877
      px      :     0.011950
      py      :     0.005254
 11 H s       :     0.916814  s :     0.916814
      pz      :     0.015859  p :     0.023034
      px      :     0.004692
      py      :     0.002484
 12 H s       :     0.916814  s :     0.916814
      pz      :     0.015859  p :     0.023034
      px      :     0.004692
      py      :     0.002484
 13 C s       :     2.893607  s :     2.893607
      pz      :     0.981685  p :     2.993846
      px      :     1.021288
      py      :     0.990873
      dz2     :     0.006431  d :     0.027589
      dxz     :     0.001960
      dyz     :     0.007503
      dx2y2   :     0.002291
      dxy     :     0.009404
 14 C s       :     2.893606  s :     2.893606
      pz      :     0.981684  p :     2.993846
      px      :     1.021289
      py      :     0.990874
      dz2     :     0.006431  d :     0.027589
      dxz     :     0.001960
      dyz     :     0.007503
      dx2y2   :     0.002291
      dxy     :     0.009404
 15 H s       :     0.937381  s :     0.937381
      pz      :     0.004230  p :     0.023863
      px      :     0.011634
      py      :     0.007999
 16 H s       :     0.937381  s :     0.937381
      pz      :     0.004230  p :     0.023863
      px      :     0.011634
      py      :     0.007999
 17 H s       :     0.937381  s :     0.937381
      pz      :     0.004230  p :     0.023863
      px      :     0.011634
      py      :     0.007999
 18 H s       :     0.937381  s :     0.937381
      pz      :     0.004230  p :     0.023863
      px      :     0.011634
      py      :     0.007999
 19 H s       :     0.954345  s :     0.954345
      pz      :     0.012406  p :     0.024106
      px      :     0.004894
      py      :     0.006805
 20 H s       :     0.954345  s :     0.954345
      pz      :     0.012406  p :     0.024105
      px      :     0.004894
      py      :     0.006805


                     *******************************
                     * LOEWDIN POPULATION ANALYSIS *
                     *******************************

----------------------
LOEWDIN ATOMIC CHARGES
----------------------
   0 C :   -0.049640
   1 C :   -0.049640
   2 N :    0.012763
   3 N :    0.012764
   4 C :   -0.256625
   5 C :    0.030544
   6 C :    0.030544
   7 H :    0.022327
   8 H :    0.022327
   9 H :    0.022327
  10 H :    0.022327
  11 H :    0.039792
  12 H :    0.039792
  13 C :   -0.057488
  14 C :   -0.057488
  15 H :    0.035550
  16 H :    0.035549
  17 H :    0.035549
  18 H :    0.035549
  19 H :    0.036589
  20 H :    0.036589

-------------------------------
LOEWDIN REDUCED ORBITAL CHARGES
-------------------------------
  0 C s       :     2.842026  s :     2.842026
      pz      :     0.943886  p :     3.070481
      px      :     1.071120
      py      :     1.055474
      dz2     :     0.045573  d :     0.137133
      dxz     :     0.018598
      dyz     :     0.037195
      dx2y2   :     0.015694
      dxy     :     0.020072
  1 C s       :     2.842026  s :     2.842026
      pz      :     0.943886  p :     3.070482
      px      :     1.071121
      py      :     1.055474
      dz2     :     0.045574  d :     0.137133
      dxz     :     0.018598
      dyz     :     0.037195
      dx2y2   :     0.015694
      dxy     :     0.020072
  2 N s       :     3.062803  s :     3.062803
      pz      :     1.194092  p :     3.849749
      px      :     1.468533
      py      :     1.187124
      dz2     :     0.022884  d :     0.074685
      dxz     :     0.010393
      dyz     :     0.023960
      dx2y2   :     0.010758
      dxy     :     0.006690
  3 N s       :     3.062803  s :     3.062803
      pz      :     1.194092  p :     3.849748
      px      :     1.468533
      py      :     1.187124
      dz2     :     0.022884  d :     0.074685
      dxz     :     0.010393
      dyz     :     0.023960
      dx2y2   :     0.010758
      dxy     :     0.006690
  4 C s       :     3.213154  s :     3.213154
      pz      :     1.367564  p :     2.899941
      px      :     0.718142
      py      :     0.814235
      dz2     :     0.014065  d :     0.143530
      dxz     :     0.014139
      dyz     :     0.067212
      dx2y2   :     0.021856
      dxy     :     0.026258
  5 C s       :     2.830746  s :     2.830746
      pz      :     1.072152  p :     3.042259
      px      :     1.071414
      py      :     0.898692
      dz2     :     0.022172  d :     0.096452
      dxz     :     0.006718
      dyz     :     0.014592
      dx2y2   :     0.022324
      dxy     :     0.030646
  6 C s       :     2.830746  s :     2.830746
      pz      :     1.072153  p :     3.042258
      px      :     1.071414
      py      :     0.898692
      dz2     :     0.022172  d :     0.096452
      dxz     :     0.006718
      dyz     :     0.014592
      dx2y2   :     0.022324
      dxy     :     0.030646
  7 H s       :     0.913886  s :     0.913886
      pz      :     0.015464  p :     0.063787
      px      :     0.031949
      py      :     0.016374
  8 H s       :     0.913886  s :     0.913886
      pz      :     0.015464  p :     0.063787
      px      :     0.031949
      py      :     0.016374
  9 H s       :     0.913886  s :     0.913886
      pz      :     0.015464  p :     0.063787
      px      :     0.031949
      py      :     0.016374
 10 H s       :     0.913886  s :     0.913886
      pz      :     0.015464  p :     0.063787
      px      :     0.031949
      py      :     0.016374
 11 H s       :     0.894579  s :     0.894579
      pz      :     0.044830  p :     0.065629
      px      :     0.012075
      py      :     0.008723
 12 H s       :     0.894579  s :     0.894579
      pz      :     0.044830  p :     0.065629
      px      :     0.012075
      py      :     0.008723
 13 C s       :     2.822562  s :     2.822562
      pz      :     1.045910  p :     3.161269
      px      :     1.068950
      py      :     1.046409
      dz2     :     0.018028  d :     0.073657
      dxz     :     0.003850
      dyz     :     0.020936
      dx2y2   :     0.005729
      dxy     :     0.025115
 14 C s       :     2.822562  s :     2.822562
      pz      :     1.045910  p :     3.161269
      px      :     1.068950
      py      :     1.046409
      dz2     :     0.018028  d :     0.073657
      dxz     :     0.003850
      dyz     :     0.020936
      dx2y2   :     0.005729
      dxy     :     0.025115
 15 H s       :     0.899536  s :     0.899536
      pz      :     0.012344  p :     0.064914
      px      :     0.030876
      py      :     0.021694
 16 H s       :     0.899536  s :     0.899536
      pz      :     0.012344  p :     0.064915
      px      :     0.030876
      py      :     0.021694
 17 H s       :     0.899536  s :     0.899536
      pz      :     0.012344  p :     0.064914
      px      :     0.030876
      py      :     0.021694
 18 H s       :     0.899536  s :     0.899536
      pz      :     0.012344  p :     0.064914
      px      :     0.030876
      py      :     0.021694
 19 H s       :     0.898366  s :     0.898366
      pz      :     0.033777  p :     0.065046
      px      :     0.012466
      py      :     0.018803
 20 H s       :     0.898366  s :     0.898366
      pz      :     0.033777  p :     0.065045
      px      :     0.012466
      py      :     0.018803


                      *****************************
                      * MAYER POPULATION ANALYSIS *
                      *****************************

  NA   - Mulliken gross atomic population
  ZA   - Total nuclear charge
  QA   - Mulliken gross atomic charge
  VA   - Mayer's total valence
  BVA  - Mayer's bonded valence
  FA   - Mayer's free valence

  ATOM       NA         ZA         QA         VA         BVA        FA
  0 C      6.1056     6.0000    -0.1056     4.0568     4.0568    -0.0000
  1 C      6.1056     6.0000    -0.1056     4.0568     4.0568     0.0000
  2 N      7.2484     7.0000    -0.2484     3.3836     3.3836    -0.0000
  3 N      7.2484     7.0000    -0.2484     3.3836     3.3836     0.0000
  4 C      6.1354     6.0000    -0.1354     2.6631     2.6631     0.0000
  5 C      5.8861     6.0000     0.1139     3.9085     3.9085    -0.0000
  6 C      5.8861     6.0000     0.1139     3.9085     3.9085    -0.0000
  7 H      0.9682     1.0000     0.0318     0.9902     0.9902    -0.0000
  8 H      0.9682     1.0000     0.0318     0.9902     0.9902    -0.0000
  9 H      0.9682     1.0000     0.0318     0.9902     0.9902    -0.0000
 10 H      0.9682     1.0000     0.0318     0.9902     0.9902     0.0000
 11 H      0.9398     1.0000     0.0602     1.0189     1.0189    -0.0000
 12 H      0.9398     1.0000     0.0602     1.0189     1.0189    -0.0000
 13 C      5.9150     6.0000     0.0850     3.9586     3.9586    -0.0000
 14 C      5.9150     6.0000     0.0850     3.9586     3.9586    -0.0000
 15 H      0.9612     1.0000     0.0388     0.9911     0.9911    -0.0000
 16 H      0.9612     1.0000     0.0388     0.9911     0.9911    -0.0000
 17 H      0.9612     1.0000     0.0388     0.9911     0.9911     0.0000
 18 H      0.9612     1.0000     0.0388     0.9911     0.9911     0.0000
 19 H      0.9785     1.0000     0.0215     1.0023     1.0023     0.0000
 20 H      0.9785     1.0000     0.0215     1.0023     1.0023     0.0000

  Mayer bond orders larger than 0.100000
B(  0-C ,  1-C ) :   1.6755 B(  0-C ,  2-N ) :   1.1200 B(  0-C , 13-C ) :   1.0892 
B(  1-C ,  3-N ) :   1.1200 B(  1-C , 14-C ) :   1.0892 B(  2-N ,  4-C ) :   1.2245 
B(  2-N ,  5-C ) :   0.9701 B(  3-N ,  4-C ) :   1.2245 B(  3-N ,  6-C ) :   0.9701 
B(  5-C ,  7-H ) :   0.9764 B(  5-C , 10-H ) :   0.9764 B(  5-C , 11-H ) :   0.9702 
B(  6-C ,  8-H ) :   0.9764 B(  6-C ,  9-H ) :   0.9764 B(  6-C , 12-H ) :   0.9702 
B( 13-C , 15-H ) :   0.9519 B( 13-C , 18-H ) :   0.9519 B( 13-C , 19-H ) :   0.9473 
B( 14-C , 16-H ) :   0.9519 B( 14-C , 17-H ) :   0.9519 B( 14-C , 20-H ) :   0.9473 


-------
TIMINGS
-------

Total SCF time: 0 days 0 hours 3 min 46 sec 

Total time                  ....     226.178 sec
Sum of individual times     ....     225.962 sec  ( 99.9%)

Fock matrix formation       ....     222.324 sec  ( 98.3%)
  Split-RI-J                ....       8.954 sec  (  4.0% of F)
  Chain of spheres X        ....     189.621 sec  ( 85.3% of F)
  XC integration            ....      23.586 sec  ( 10.6% of F)
    Basis function eval.    ....       8.584 sec  ( 36.4% of XC)
    Density eval.           ....       5.223 sec  ( 22.1% of XC)
    XC-Functional eval.     ....       3.506 sec  ( 14.9% of XC)
    XC-Potential eval.      ....       5.695 sec  ( 24.1% of XC)
Diagonalization             ....       0.073 sec  (  0.0%)
Density matrix formation    ....       0.011 sec  (  0.0%)
Population analysis         ....       0.009 sec  (  0.0%)
Initial guess               ....       0.634 sec  (  0.3%)
Orbital Transformation      ....       0.000 sec  (  0.0%)
Orbital Orthonormalization  ....       0.000 sec  (  0.0%)
DIIS solution               ....       0.024 sec  (  0.0%)
SOSCF solution              ....       0.028 sec  (  0.0%)
Grid generation             ....       2.859 sec  (  1.3%)

Maximum memory used throughout the entire SCF-calculation: 77.1 MB


-------------------------------------------------------------------------------
                          DFT DISPERSION CORRECTION                            
                                                                               
                                 DFTD4 V2.5                                    
-------------------------------------------------------------------------------
The WB97X functional is recognized
Active option DFTDOPT                   ...         5   

Starting D4
-------------------------   ----------------
Dispersion correction           -0.002983146
-------------------------   ----------------


-------------------------   --------------------
FINAL SINGLE POINT ENERGY      -383.067255133921
-------------------------   --------------------


                            ***************************************
                            *     ORCA property calculations      *
                            ***************************************

                                    ---------------------
                                    Active property flags
                                    ---------------------
   (+) Dipole Moment


------------------------------------------------------------------------------
                       ORCA ELECTRIC PROPERTIES CALCULATION
------------------------------------------------------------------------------

Dipole Moment Calculation                       ... on
Quadrupole Moment Calculation                   ... off
Polarizability Calculation                      ... off
GBWName                                         ... 2.gbw
Electron density                                ... 2.scfp
The origin for moment calculation is the CENTER OF MASS  = (-0.000000,  0.000000  0.077723)

-------------
DIPOLE MOMENT
-------------
                                X             Y             Z
Electronic contribution:     -0.00000       0.00000       3.58079
Nuclear contribution   :      0.00000      -0.00000      -4.78872
                        -----------------------------------------
Total Dipole Moment    :      0.00000      -0.00000      -1.20793
                        -----------------------------------------
Magnitude (a.u.)       :      1.20793
Magnitude (Debye)      :      3.07032



--------------------
Rotational spectrum 
--------------------
 
Rotational constants in cm-1:     0.082679     0.050982     0.032310 
Rotational constants in MHz :  2478.640811  1528.403814   968.634510 

 Dipole components along the rotational axes: 
x,y,z [a.u.] :     0.000000     1.207934    -0.000001 
x,y,z [Debye]:     0.000000     3.070324    -0.000002 

 

-------------------------------------------------------------------------------
                               ORCA SCF HESSIAN
-------------------------------------------------------------------------------

                   --------- SHARK INITIALIZATION DONE ---------

Hessian of the Kohn-Sham DFT energy:
Kohn-Sham wavefunction type                      ... RKS
Hartree-Fock exchange scaling                    ...    0.158
Number of operators                              ...    1
Number of atoms                                  ...   21
Basis set dimensions                             ...  186
Integral neglect threshold                       ... 2.5e-11
Integral primitive cutoff                        ... 2.5e-12

Setting up DFT Hessian calculations              ... 

HESS GRID
---------

General Integration Accuracy     IntAcc      ... 4.629
Radial Grid Type                 RadialGrid  ... OptM3 with GC (2021)
Angular Grid (max. ang.)         AngularGrid ... 5 (Lebedev-434)
Angular grid pruning method      GridPruning ... 4 (adaptive)
Weight generation scheme         WeightScheme... Becke
Basis function cutoff            BFCut       ... 1.0000e-11
Integration weight cutoff        WCut        ... 1.0000e-14
Angular grids for H and He will be reduced by one unit
Partially contracted basis set               ... off
Rotationally invariant grid construction     ... off

Total number of grid points                  ...   143332
Total number of batches                      ...     2248
Average number of points per batch           ...       63
Average number of grid points per atom       ...     6825

Building densities                               ... done   (      0.0 sec)
Calculating rho(r) on the grid                   ... done   (      1.3 sec)
Building xc-kernel on the grid                   ... done   (      1.3 sec)
                                                     done   (      4.7 sec)

Nuclear repulsion Hessian  (SHARK)               ... done   (      0.0 sec)

----------------------------------------------
Forming right-hand sides of CP-SCF equations     ...
----------------------------------------------
One electron integral derivatives  (SHARK)       ... done   (      0.4 sec)
Transforming the overlap derivative matrices     ... done   (      0.1 sec)
Making the Q(x) pseudodensities                  ... done   (      0.1 sec)
Adding the E*S(x)*S(y) terms to the Hessian      ... done   (      0.1 sec)
Calculating energy weighted overlap derivatives  ... done   (      0.0 sec)
Two electron integral derivatives (SHARK-RI)     ... done   (     45.6 sec)
Exchange-correlation integral derivatives        ... done   (    136.9 sec)
tr(F(y)Q(x)) contribution to the Hessian         ... done   (      0.0 sec)
Response fock operator R(S(x)) (SHARK-RIJCOSX)   ... done   (     42.4 sec)
XC Response fock operator R(S(x))                ... done   (     55.8 sec)
tr(F(y)S(x)) contribution to the Hessian         ... done   (      0.0 sec)
Transforming and finalizing RHSs                 ... done   (      0.2 sec)

----------------------------------------------
Solving the CP-SCF equations (RIJCOSX)           ...
----------------------------------------------
     CP-SCF ITERATION   0:   1.3413e-01 (  21.5 sec   0/ 63 done)
     CP-SCF ITERATION   1:   8.6971e-02 (  21.5 sec   0/ 63 done)
     CP-SCF ITERATION   2:   2.1592e-02 (  21.5 sec   0/ 63 done)
     CP-SCF ITERATION   3:   8.5510e-03 (  21.5 sec   0/ 63 done)
     CP-SCF ITERATION   4:   4.5730e-03 (  21.6 sec   4/ 63 done)
     CP-SCF ITERATION   5:   1.4843e-03 (  20.6 sec   4/ 63 done)
     CP-SCF ITERATION   6:   5.2567e-04 (  20.5 sec  43/ 63 done)
     CP-SCF ITERATION   7:   1.6994e-04 (  11.8 sec  53/ 63 done)
     CP-SCF ITERATION   8:   5.7036e-05 (   8.2 sec  63/ 63 done)
                    *** THE CP-SCF HAS CONVERGED ***

                                                 ... done   (    169.3 sec)
Forming perturbed density Hessian contributions  ... done   (      0.0 sec)
2nd integral derivative contribs (SHARK-RI)      ... done   (    189.7 sec)
Exchange-correlation Hessian                     ... done   (    105.2 sec)
Dispersion correction in the Hessian             ... Starting D4


------------------- 
Dispersion Gradient 
------------------- 
   1  :    0.000000015    0.000009813   -0.000004248
   2  :    0.000000001   -0.000009812   -0.000004247
   3  :   -0.000000003    0.000015444    0.000011132
   4  :    0.000000002   -0.000015444    0.000011132
   5  :    0.000000002   -0.000000000    0.000025855
   6  :    0.000000001    0.000052882    0.000022031
   7  :   -0.000000003   -0.000052882    0.000022031
   8  :    0.000001032    0.000007343    0.000006194
   9  :    0.000001031   -0.000007342    0.000006194
  10  :   -0.000001035   -0.000007342    0.000006194
  11  :   -0.000001034    0.000007341    0.000006193
  12  :   -0.000000001    0.000008511    0.000005525
  13  :   -0.000000002   -0.000008511    0.000005525
  14  :    0.000000002    0.000035523   -0.000037255
  15  :   -0.000000000   -0.000035523   -0.000037255
  16  :    0.000000019    0.000007692   -0.000006683
  17  :    0.000000018   -0.000007691   -0.000006683
  18  :   -0.000000021   -0.000007692   -0.000006683
  19  :   -0.000000020    0.000007692   -0.000006683
  20  :   -0.000000001    0.000007452   -0.000009134
  21  :   -0.000000001   -0.000007452   -0.000009134

  |G| =    0.000097461

Starting D4


------------------- 
Dispersion Gradient 
------------------- 
   1  :   -0.000000015    0.000009813   -0.000004248
   2  :   -0.000000001   -0.000009812   -0.000004247
   3  :    0.000000003    0.000015444    0.000011132
   4  :   -0.000000002   -0.000015444    0.000011132
   5  :   -0.000000002   -0.000000000    0.000025855
   6  :   -0.000000000    0.000052882    0.000022031
   7  :    0.000000003   -0.000052882    0.000022031
   8  :    0.000001034    0.000007341    0.000006193
   9  :    0.000001035   -0.000007342    0.000006194
  10  :   -0.000001031   -0.000007342    0.000006194
  11  :   -0.000001032    0.000007343    0.000006194
  12  :    0.000000001    0.000008511    0.000005525
  13  :    0.000000002   -0.000008511    0.000005525
  14  :   -0.000000002    0.000035523   -0.000037255
  15  :    0.000000000   -0.000035523   -0.000037255
  16  :    0.000000020    0.000007692   -0.000006683
  17  :    0.000000021   -0.000007692   -0.000006683
  18  :   -0.000000018   -0.000007691   -0.000006683
  19  :   -0.000000019    0.000007692   -0.000006683
  20  :    0.000000001    0.000007452   -0.000009134
  21  :    0.000000001   -0.000007452   -0.000009134

  |G| =    0.000097463

Starting D4


------------------- 
Dispersion Gradient 
------------------- 
   1  :   -0.000000000    0.000009959   -0.000004349
   2  :   -0.000000000   -0.000009812   -0.000004251
   3  :    0.000000000    0.000015437    0.000011136
   4  :    0.000000000   -0.000015521    0.000011199
   5  :   -0.000000000   -0.000000016    0.000025915
   6  :    0.000000000    0.000052871    0.000022019
   7  :    0.000000000   -0.000052892    0.000022034
   8  :    0.000001032    0.000007340    0.000006192
   9  :    0.000001032   -0.000007345    0.000006194
  10  :   -0.000001032   -0.000007345    0.000006194
  11  :   -0.000001032    0.000007340    0.000006192
  12  :   -0.000000000    0.000008509    0.000005525
  13  :   -0.000000000   -0.000008513    0.000005525
  14  :    0.000000000    0.000035533   -0.000037264
  15  :   -0.000000000   -0.000035532   -0.000037258
  16  :    0.000000020    0.000007691   -0.000006682
  17  :    0.000000021   -0.000007696   -0.000006684
  18  :   -0.000000021   -0.000007696   -0.000006684
  19  :   -0.000000020    0.000007691   -0.000006682
  20  :   -0.000000000    0.000007450   -0.000009134
  21  :   -0.000000000   -0.000007453   -0.000009135

  |G| =    0.000097494

Starting D4


------------------- 
Dispersion Gradient 
------------------- 
   1  :   -0.000000000    0.000009662   -0.000004141
   2  :   -0.000000000   -0.000009813   -0.000004244
   3  :    0.000000000    0.000015451    0.000011128
   4  :    0.000000000   -0.000015364    0.000011063
   5  :   -0.000000000    0.000000016    0.000025794
   6  :    0.000000000    0.000052893    0.000022042
   7  :    0.000000000   -0.000052872    0.000022027
   8  :    0.000001034    0.000007344    0.000006196
   9  :    0.000001033   -0.000007339    0.000006194
  10  :   -0.000001033   -0.000007339    0.000006194
  11  :   -0.000001034    0.000007344    0.000006196
  12  :   -0.000000000    0.000008514    0.000005524
  13  :   -0.000000000   -0.000008510    0.000005525
  14  :    0.000000000    0.000035513   -0.000037246
  15  :   -0.000000000   -0.000035514   -0.000037251
  16  :    0.000000019    0.000007692   -0.000006684
  17  :    0.000000018   -0.000007687   -0.000006682
  18  :   -0.000000018   -0.000007687   -0.000006682
  19  :   -0.000000019    0.000007692   -0.000006684
  20  :   -0.000000000    0.000007454   -0.000009134
  21  :   -0.000000000   -0.000007450   -0.000009133

  |G| =    0.000097428

Starting D4


------------------- 
Dispersion Gradient 
------------------- 
   1  :   -0.000000000    0.000009705   -0.000004035
   2  :   -0.000000000   -0.000009809   -0.000004240
   3  :    0.000000000    0.000015445    0.000011139
   4  :    0.000000000   -0.000015349    0.000011059
   5  :   -0.000000000    0.000000032    0.000025740
   6  :    0.000000000    0.000052865    0.000022010
   7  :    0.000000000   -0.000052878    0.000022026
   8  :    0.000001032    0.000007342    0.000006192
   9  :    0.000001033   -0.000007342    0.000006192
  10  :   -0.000001033   -0.000007342    0.000006192
  11  :   -0.000001032    0.000007342    0.000006192
  12  :   -0.000000000    0.000008510    0.000005522
  13  :   -0.000000000   -0.000008512    0.000005523
  14  :    0.000000000    0.000035512   -0.000037240
  15  :   -0.000000000   -0.000035524   -0.000037257
  16  :    0.000000018    0.000007693   -0.000006686
  17  :    0.000000019   -0.000007693   -0.000006685
  18  :   -0.000000019   -0.000007693   -0.000006685
  19  :   -0.000000018    0.000007693   -0.000006686
  20  :   -0.000000000    0.000007454   -0.000009136
  21  :   -0.000000000   -0.000007454   -0.000009136

  |G| =    0.000097421

Starting D4


------------------- 
Dispersion Gradient 
------------------- 
   1  :   -0.000000000    0.000009914   -0.000004450
   2  :   -0.000000000   -0.000009816   -0.000004254
   3  :    0.000000000    0.000015443    0.000011125
   4  :    0.000000000   -0.000015534    0.000011202
   5  :   -0.000000000   -0.000000030    0.000025964
   6  :    0.000000000    0.000052898    0.000022051
   7  :    0.000000000   -0.000052886    0.000022035
   8  :    0.000001034    0.000007342    0.000006195
   9  :    0.000001032   -0.000007342    0.000006196
  10  :   -0.000001032   -0.000007342    0.000006196
  11  :   -0.000001034    0.000007342    0.000006195
  12  :   -0.000000000    0.000008513    0.000005527
  13  :   -0.000000000   -0.000008511    0.000005527
  14  :    0.000000000    0.000035534   -0.000037269
  15  :   -0.000000000   -0.000035522   -0.000037253
  16  :    0.000000020    0.000007690   -0.000006681
  17  :    0.000000020   -0.000007691   -0.000006681
  18  :   -0.000000020   -0.000007691   -0.000006681
  19  :   -0.000000020    0.000007690   -0.000006681
  20  :   -0.000000000    0.000007450   -0.000009132
  21  :   -0.000000000   -0.000007450   -0.000009131

  |G| =    0.000097501

Starting D4


------------------- 
Dispersion Gradient 
------------------- 
   1  :    0.000000001    0.000009812   -0.000004247
   2  :    0.000000015   -0.000009813   -0.000004248
   3  :    0.000000002    0.000015444    0.000011132
   4  :   -0.000000003   -0.000015444    0.000011132
   5  :    0.000000002    0.000000000    0.000025855
   6  :   -0.000000003    0.000052882    0.000022031
   7  :    0.000000001   -0.000052882    0.000022031
   8  :    0.000001031    0.000007342    0.000006194
   9  :    0.000001032   -0.000007343    0.000006194
  10  :   -0.000001034   -0.000007341    0.000006193
  11  :   -0.000001035    0.000007342    0.000006194
  12  :   -0.000000002    0.000008511    0.000005525
  13  :   -0.000000001   -0.000008511    0.000005525
  14  :   -0.000000000    0.000035523   -0.000037255
  15  :    0.000000002   -0.000035523   -0.000037255
  16  :    0.000000018    0.000007691   -0.000006683
  17  :    0.000000019   -0.000007692   -0.000006683
  18  :   -0.000000020   -0.000007692   -0.000006683
  19  :   -0.000000021    0.000007692   -0.000006683
  20  :   -0.000000001    0.000007452   -0.000009134
  21  :   -0.000000001   -0.000007452   -0.000009134

  |G| =    0.000097461

Starting D4


------------------- 
Dispersion Gradient 
------------------- 
   1  :   -0.000000001    0.000009812   -0.000004247
   2  :   -0.000000015   -0.000009813   -0.000004248
   3  :   -0.000000002    0.000015444    0.000011132
   4  :    0.000000003   -0.000015444    0.000011132
   5  :   -0.000000002    0.000000000    0.000025855
   6  :    0.000000003    0.000052882    0.000022031
   7  :   -0.000000001   -0.000052882    0.000022031
   8  :    0.000001035    0.000007342    0.000006194
   9  :    0.000001034   -0.000007341    0.000006193
  10  :   -0.000001032   -0.000007343    0.000006194
  11  :   -0.000001031    0.000007342    0.000006194
  12  :    0.000000002    0.000008511    0.000005525
  13  :    0.000000001   -0.000008511    0.000005525
  14  :    0.000000000    0.000035523   -0.000037255
  15  :   -0.000000002   -0.000035523   -0.000037255
  16  :    0.000000021    0.000007692   -0.000006683
  17  :    0.000000020   -0.000007692   -0.000006683
  18  :   -0.000000019   -0.000007692   -0.000006683
  19  :   -0.000000018    0.000007691   -0.000006683
  20  :    0.000000001    0.000007452   -0.000009134
  21  :    0.000000001   -0.000007452   -0.000009134

  |G| =    0.000097463

Starting D4


------------------- 
Dispersion Gradient 
------------------- 
   1  :   -0.000000000    0.000009813   -0.000004244
   2  :   -0.000000000   -0.000009662   -0.000004141
   3  :    0.000000000    0.000015364    0.000011063
   4  :    0.000000000   -0.000015451    0.000011128
   5  :   -0.000000000   -0.000000016    0.000025794
   6  :    0.000000000    0.000052872    0.000022027
   7  :    0.000000000   -0.000052893    0.000022042
   8  :    0.000001033    0.000007339    0.000006194
   9  :    0.000001034   -0.000007344    0.000006196
  10  :   -0.000001034   -0.000007344    0.000006196
  11  :   -0.000001033    0.000007339    0.000006194
  12  :   -0.000000000    0.000008510    0.000005525
  13  :   -0.000000000   -0.000008514    0.000005524
  14  :    0.000000000    0.000035514   -0.000037251
  15  :   -0.000000000   -0.000035513   -0.000037246
  16  :    0.000000018    0.000007687   -0.000006682
  17  :    0.000000019   -0.000007692   -0.000006684
  18  :   -0.000000019   -0.000007692   -0.000006684
  19  :   -0.000000018    0.000007687   -0.000006682
  20  :   -0.000000000    0.000007450   -0.000009133
  21  :   -0.000000000   -0.000007454   -0.000009134

  |G| =    0.000097428

Starting D4


------------------- 
Dispersion Gradient 
------------------- 
   1  :   -0.000000000    0.000009812   -0.000004251
   2  :   -0.000000000   -0.000009959   -0.000004349
   3  :    0.000000000    0.000015521    0.000011199
   4  :    0.000000000   -0.000015437    0.000011136
   5  :   -0.000000000    0.000000016    0.000025915
   6  :    0.000000000    0.000052892    0.000022034
   7  :    0.000000000   -0.000052871    0.000022019
   8  :    0.000001032    0.000007345    0.000006194
   9  :    0.000001032   -0.000007340    0.000006192
  10  :   -0.000001032   -0.000007340    0.000006192
  11  :   -0.000001032    0.000007345    0.000006194
  12  :   -0.000000000    0.000008513    0.000005525
  13  :   -0.000000000   -0.000008509    0.000005525
  14  :    0.000000000    0.000035532   -0.000037258
  15  :   -0.000000000   -0.000035533   -0.000037264
  16  :    0.000000021    0.000007696   -0.000006684
  17  :    0.000000020   -0.000007691   -0.000006682
  18  :   -0.000000020   -0.000007691   -0.000006682
  19  :   -0.000000021    0.000007696   -0.000006684
  20  :   -0.000000000    0.000007453   -0.000009135
  21  :   -0.000000000   -0.000007450   -0.000009134

  |G| =    0.000097494

Starting D4


------------------- 
Dispersion Gradient 
------------------- 
   1  :   -0.000000000    0.000009809   -0.000004240
   2  :   -0.000000000   -0.000009705   -0.000004035
   3  :    0.000000000    0.000015349    0.000011059
   4  :    0.000000000   -0.000015445    0.000011139
   5  :   -0.000000000   -0.000000032    0.000025740
   6  :    0.000000000    0.000052878    0.000022026
   7  :    0.000000000   -0.000052865    0.000022010
   8  :    0.000001033    0.000007342    0.000006192
   9  :    0.000001032   -0.000007342    0.000006192
  10  :   -0.000001032   -0.000007342    0.000006192
  11  :   -0.000001033    0.000007342    0.000006192
  12  :   -0.000000000    0.000008512    0.000005523
  13  :   -0.000000000   -0.000008510    0.000005522
  14  :    0.000000000    0.000035524   -0.000037257
[...]
     10      -0.000039   0.000000   0.000000   0.000000  -0.000000   0.000011
     11      -0.000410   0.000000  -0.000000  -0.000000   0.000000  -0.000176
     12       0.000000  -0.000003  -0.000088  -0.000001   0.000322   0.000000
     13      -0.000000  -0.000000   0.000000  -0.000000   0.000000  -0.000117
     14      -0.000528  -0.000000   0.000000  -0.000000   0.000000   0.000000
     15      -0.000000   0.002301   0.002978   0.066791   0.067316   0.000000
     16      -0.035516   0.000000  -0.000000  -0.000000  -0.000000  -0.000118
     17       0.001232   0.000000  -0.000000  -0.000000  -0.000000  -0.000773
     18       0.000001  -0.002129   0.003105  -0.067349   0.066757   0.000000
     19       0.035535   0.000000  -0.000000   0.000001  -0.000001  -0.000119
     20       0.001234  -0.000000   0.000000  -0.000001   0.000001   0.000778
     21      -0.368675  -0.014062  -0.018025  -0.400574  -0.403713  -0.001243
     22       0.208323   0.007952   0.010253   0.235043   0.236907   0.000638
     23      -0.147870  -0.006560  -0.008239  -0.172196  -0.173583   0.000167
     24      -0.368876   0.013021  -0.018802   0.403919  -0.400354   0.001264
     25      -0.208436   0.007360  -0.010692   0.237006  -0.234936   0.000647
     26      -0.147951   0.006084  -0.008601   0.173635  -0.172140  -0.000169
     27       0.368859   0.013021  -0.018803   0.403932  -0.400367  -0.001265
     28      -0.208425  -0.007360   0.010692  -0.237012   0.234942   0.000647
     29      -0.147944  -0.006084   0.008602  -0.173640   0.172145  -0.000169
     30       0.368676  -0.014062  -0.018025  -0.400575  -0.403715   0.001243
     31       0.208322  -0.007952  -0.010253  -0.235043  -0.236907   0.000638
     32      -0.147870   0.006560   0.008239   0.172196   0.173583   0.000167
     33      -0.000000   0.000815   0.000903   0.009625   0.009762  -0.000000
     34       0.002761  -0.000000   0.000000   0.000000   0.000000   0.000423
     35       0.281368  -0.000000   0.000000   0.000002   0.000001   0.009092
     36       0.000000  -0.000762   0.000948  -0.009706   0.009681  -0.000000
     37      -0.002762   0.000000   0.000000  -0.000000   0.000000   0.000429
     38       0.281496   0.000000  -0.000001   0.000016  -0.000016  -0.009153
     39      -0.000000  -0.068024  -0.064156   0.002213   0.003071   0.000001
     40      -0.005461  -0.000000  -0.000000   0.000000   0.000000  -0.045061
     41       0.004134  -0.000001  -0.000001   0.000000   0.000000  -0.047205
     42       0.000000   0.064265  -0.067919  -0.002240   0.003054   0.000002
     43       0.005462   0.000000  -0.000001  -0.000000   0.000000  -0.045854
     44       0.004136  -0.000002   0.000002   0.000000  -0.000000   0.048037
     45       0.066854   0.409825   0.386887  -0.013352  -0.018289   0.177160
     46       0.046938   0.305319   0.288413  -0.010091  -0.013785   0.121693
     47       0.002057   0.019412   0.017994   0.000304  -0.000075   0.001917
     48       0.066872  -0.387168   0.409570   0.013510  -0.018184  -0.180306
     49      -0.046951   0.288429  -0.305311  -0.010211   0.013706   0.123852
     50       0.002057  -0.018358   0.019069  -0.000303  -0.000078  -0.001954
     51      -0.066876  -0.387157   0.409558   0.013510  -0.018184   0.180281
     52      -0.046954  -0.288422   0.305304   0.010210  -0.013706   0.123834
     53       0.002057   0.018357  -0.019068   0.000303   0.000078  -0.001953
     54      -0.066852   0.409830   0.386891  -0.013352  -0.018289  -0.177170
     55       0.046937  -0.305324  -0.288417   0.010091   0.013785   0.121701
     56       0.002057  -0.019412  -0.017994  -0.000304   0.000075   0.001917
     57      -0.000000  -0.008792  -0.008505  -0.000382  -0.000208   0.000000
     58      -0.028196   0.000006   0.000006  -0.000000  -0.000000   0.301308
     59      -0.052368   0.000011   0.000010  -0.000000  -0.000001   0.551069
     60       0.000000   0.008294  -0.008991   0.000384  -0.000205   0.000000
     61       0.028209  -0.000013   0.000014   0.000001  -0.000001   0.306645
     62      -0.052392   0.000024  -0.000026  -0.000001   0.000002  -0.560860
                 60         61         62    
      0      -0.000000   0.000000   0.000000
      1      -0.001099   0.000272   0.000437
      2      -0.000139   0.000014  -0.000002
      3       0.000000  -0.000000   0.000000
      4       0.001087  -0.000253   0.000448
      5      -0.000146   0.000014   0.000001
      6      -0.000000   0.000000   0.000000
      7      -0.000194   0.000291   0.000295
      8       0.000364   0.000114  -0.000330
      9       0.000000  -0.000000   0.000000
     10       0.000194  -0.000278   0.000307
     11       0.000361   0.000128   0.000325
     12      -0.000000   0.000000  -0.000000
     13      -0.000001   0.000003   0.000130
     14      -0.000048  -0.000147   0.000003
     15       0.000000  -0.000000  -0.000000
     16      -0.000061   0.013933   0.013308
     17      -0.000309  -0.066196  -0.063442
     18      -0.000000   0.000001  -0.000001
     19       0.000059  -0.013358   0.013883
     20      -0.000295  -0.063461   0.066178
     21      -0.001194   0.165685   0.158555
     22       0.000492  -0.091494  -0.087600
     23       0.000121   0.063004   0.060309
     24      -0.001173   0.158833  -0.165387
     25      -0.000481   0.087708  -0.091372
     26       0.000118   0.060398  -0.062907
     27       0.001173  -0.158844   0.165399
     28      -0.000481   0.087714  -0.091379
     29       0.000117   0.060402  -0.062911
     30       0.001194  -0.165684  -0.158554
     31       0.000492  -0.091493  -0.087599
     32       0.000121   0.063003   0.060308
     33      -0.000000  -0.000000  -0.000000
     34       0.000318   0.007916   0.007548
     35       0.003671   0.660953   0.633787
     36       0.000000   0.000000  -0.000000
     37      -0.000310  -0.007591   0.007876
     38       0.003509   0.633633  -0.661113
     39       0.000001   0.000000  -0.000000
     40      -0.045478   0.000173   0.000440
     41      -0.047832   0.000123   0.000454
     42      -0.000002   0.000000  -0.000000
     43       0.044681  -0.000154   0.000447
     44      -0.046995   0.000103  -0.000459
     45       0.178765  -0.001704  -0.002495
     46       0.122600  -0.000856  -0.001445
     47       0.002064   0.000474   0.000415
     48       0.175658  -0.001596   0.002564
     49      -0.120466   0.000794  -0.001479
     50       0.002031   0.000456  -0.000435
     51      -0.175634   0.001596  -0.002564
     52      -0.120449   0.000794  -0.001479
     53       0.002030   0.000456  -0.000435
     54      -0.178775   0.001704   0.002495
     55       0.122607  -0.000856  -0.001445
     56       0.002064   0.000474   0.000415
     57       0.000000   0.000000   0.000000
     58       0.306642  -0.001157  -0.003309
     59       0.562481  -0.001602  -0.005745
     60      -0.000000  -0.000000   0.000000
     61      -0.301299   0.001015  -0.003354
     62       0.552709  -0.001356   0.005806


-----------
IR SPECTRUM
-----------

 Mode   freq       eps      Int      T**2         TX        TY        TZ
       cm**-1   L/(mol*cm) km/mol    a.u.
----------------------------------------------------------------------------
  6:    102.70   0.000173    0.87  0.000526  ( 0.022929  0.000000  0.000000)
  7:    111.06   0.000000    0.00  0.000000  (-0.000012  0.000000  0.000000)
  8:    145.53   0.000000    0.00  0.000000  (-0.000001  0.000000  0.000000)
  9:    171.93   0.000644    3.25  0.001168  (-0.034180 -0.000000 -0.000000)
 10:    188.31   0.001506    7.61  0.002495  (-0.049949  0.000000  0.000000)
 11:    193.68   0.000000    0.00  0.000000  ( 0.000004  0.000000 -0.000000)
 12:    274.91   0.000007    0.03  0.000007  ( 0.000001 -0.000001  0.002723)
 13:    282.63   0.000344    1.74  0.000380  (-0.000000 -0.019495 -0.000000)
 14:    288.57   0.000116    0.59  0.000126  ( 0.011211 -0.000000 -0.000000)
 15:    302.68   0.000573    2.90  0.000591  ( 0.000000 -0.000000  0.024315)
 16:    328.51   0.000000    0.00  0.000000  ( 0.000000  0.000000  0.000000)
 17:    549.11   0.000290    1.47  0.000165  (-0.000000 -0.012846  0.000000)
 18:    583.92   0.000966    4.88  0.000516  ( 0.000000  0.022719 -0.000000)
 19:    631.95   0.000729    3.68  0.000360  (-0.018970  0.000000 -0.000001)
 20:    632.00   0.000404    2.04  0.000200  ( 0.000001  0.000000 -0.014129)
 21:    678.16   0.000000    0.00  0.000000  (-0.000000  0.000000  0.000000)
 22:    735.23   0.001473    7.45  0.000625  ( 0.000000  0.000000 -0.025007)
 23:    874.43   0.004173   21.09  0.001489  ( 0.000000  0.038589 -0.000000)
 24:    966.27   0.000161    0.81  0.000052  ( 0.000000 -0.000000 -0.007202)
 25:   1050.42   0.000264    1.34  0.000079  (-0.008863 -0.000000 -0.000000)
 26:   1068.23   0.000000    0.00  0.000000  (-0.000000 -0.000000  0.000000)
 27:   1079.02   0.000001    0.00  0.000000  ( 0.000000  0.000419 -0.000000)
 28:   1084.10   0.000034    0.17  0.000010  ( 0.000000  0.000000  0.003132)
 29:   1113.78   0.000097    0.49  0.000027  ( 0.000000  0.005212 -0.000000)
 30:   1144.67   0.000006    0.03  0.000002  (-0.001283 -0.000000  0.000000)
 31:   1145.98   0.000000    0.00  0.000000  ( 0.000000 -0.000000  0.000000)
 32:   1184.75   0.000442    2.23  0.000116  (-0.000000 -0.000000 -0.010785)
 33:   1259.31   0.001145    5.79  0.000284  ( 0.000000  0.016847  0.000000)
 34:   1392.73   0.000093    0.47  0.000021  ( 0.000000 -0.004560  0.000000)
 35:   1401.30   0.000059    0.30  0.000013  (-0.000000  0.000001  0.003613)
 36:   1418.35   0.000437    2.21  0.000096  (-0.000000  0.000001 -0.009808)
 37:   1425.01   0.002749   13.89  0.000602  ( 0.000000  0.024538  0.000001)
 38:   1432.43   0.001787    9.03  0.000389  ( 0.000000 -0.000002  0.019731)
 39:   1449.88   0.007901   39.93  0.001701  (-0.000000 -0.041239  0.000001)
 40:   1452.95   0.000000    0.00  0.000000  (-0.000000  0.000001 -0.000000)
 41:   1454.46   0.000978    4.94  0.000210  ( 0.014487  0.000000 -0.000000)
 42:   1458.12   0.003408   17.22  0.000729  (-0.000000  0.027009 -0.000000)
 43:   1463.73   0.006997   35.36  0.001492  (-0.000001  0.000001  0.038624)
 44:   1471.08   0.000000    0.00  0.000000  ( 0.000010 -0.000000  0.000000)
 45:   1472.25   0.006945   35.10  0.001472  ( 0.038369 -0.000000  0.000001)
 46:   1482.42   0.000044    0.22  0.000009  ( 0.000000 -0.000000 -0.003054)
 47:   1495.15   0.003162   15.98  0.000660  ( 0.000000 -0.000000  0.025690)
 48:   1497.57   0.000715    3.61  0.000149  (-0.000000 -0.012205  0.000002)
 49:   1502.28   0.010822   54.69  0.002248  ( 0.000000  0.047413  0.000001)
 50:   1763.59   0.000230    1.16  0.000041  ( 0.000000  0.000000 -0.006380)
 51:   3061.06   0.006026   30.45  0.000614  (-0.000000 -0.024786  0.000019)
 52:   3061.75   0.003786   19.13  0.000386  ( 0.000000  0.000025  0.019645)
 53:   3068.68   0.020592  104.06  0.002094  (-0.000000 -0.045761  0.000001)
 54:   3070.01   0.000079    0.40  0.000008  ( 0.000000  0.000012  0.002826)
 55:   3145.46   0.000003    0.02  0.000000  (-0.000552  0.000000 -0.000001)
 56:   3145.52   0.003794   19.17  0.000376  (-0.019401  0.000000  0.000000)
 57:   3158.32   0.000000    0.00  0.000000  (-0.000119  0.000000 -0.000000)
 58:   3158.41   0.008237   41.63  0.000814  ( 0.028528 -0.000000  0.000000)
 59:   3183.42   0.001844    9.32  0.000181  ( 0.000000 -0.013445  0.000131)
 60:   3183.74   0.002268   11.46  0.000222  (-0.000000 -0.000118 -0.014911)
 61:   3214.30   0.000514    2.60  0.000050  ( 0.000000  0.000065 -0.007064)
 62:   3214.48   0.000096    0.49  0.000009  (-0.000000  0.003052  0.000149)

* The epsilon (eps) is given for a Dirac delta lineshape.
** The dipole moment derivative (T) already includes vibrational overlap.

The first frequency considered to be a vibration is 6
The total number of vibrations considered is 57


--------------------------
THERMOCHEMISTRY AT 298.15K
--------------------------

Temperature         ... 298.15 K
Pressure            ... 1.00 atm
Total Mass          ... 124.19 AMU

Throughout the following assumptions are being made:
  (1) The electronic state is orbitally nondegenerate
  (2) There are no thermally accessible electronically excited states
  (3) Hindered rotations indicated by low frequency modes are not
      treated as such but are treated as vibrations and this may
      cause some error
  (4) All equations used are the standard statistical mechanics
      equations for an ideal gas
  (5) All vibrations are strictly harmonic

freq.     102.70  E(vib)   ...       0.46 
freq.     111.06  E(vib)   ...       0.45 
freq.     145.53  E(vib)   ...       0.41 
freq.     171.93  E(vib)   ...       0.38 
freq.     188.31  E(vib)   ...       0.36 
freq.     193.68  E(vib)   ...       0.36 
freq.     274.91  E(vib)   ...       0.28 
freq.     282.63  E(vib)   ...       0.28 
freq.     288.57  E(vib)   ...       0.27 
freq.     302.68  E(vib)   ...       0.26 
freq.     328.51  E(vib)   ...       0.24 
freq.     549.11  E(vib)   ...       0.12 
freq.     583.92  E(vib)   ...       0.11 
freq.     631.95  E(vib)   ...       0.09 
freq.     632.00  E(vib)   ...       0.09 
freq.     678.16  E(vib)   ...       0.08 
freq.     735.23  E(vib)   ...       0.06 
freq.     874.43  E(vib)   ...       0.04 
freq.     966.27  E(vib)   ...       0.03 
freq.    1050.42  E(vib)   ...       0.02 
freq.    1068.23  E(vib)   ...       0.02 
freq.    1079.02  E(vib)   ...       0.02 
freq.    1084.10  E(vib)   ...       0.02 
freq.    1113.78  E(vib)   ...       0.01 
freq.    1144.67  E(vib)   ...       0.01 
freq.    1145.98  E(vib)   ...       0.01 
freq.    1184.75  E(vib)   ...       0.01 
freq.    1259.31  E(vib)   ...       0.01 
freq.    1392.73  E(vib)   ...       0.00 
freq.    1401.30  E(vib)   ...       0.00 
freq.    1418.35  E(vib)   ...       0.00 
freq.    1425.01  E(vib)   ...       0.00 
freq.    1432.43  E(vib)   ...       0.00 
freq.    1449.88  E(vib)   ...       0.00 
freq.    1452.95  E(vib)   ...       0.00 
freq.    1454.46  E(vib)   ...       0.00 
freq.    1458.12  E(vib)   ...       0.00 
freq.    1463.73  E(vib)   ...       0.00 
freq.    1471.08  E(vib)   ...       0.00 
freq.    1472.25  E(vib)   ...       0.00 
freq.    1482.42  E(vib)   ...       0.00 
freq.    1495.15  E(vib)   ...       0.00 
freq.    1497.57  E(vib)   ...       0.00 
freq.    1502.28  E(vib)   ...       0.00 
freq.    1763.59  E(vib)   ...       0.00 
freq.    3061.06  E(vib)   ...       0.00 
freq.    3061.75  E(vib)   ...       0.00 
freq.    3068.68  E(vib)   ...       0.00 
freq.    3070.01  E(vib)   ...       0.00 
freq.    3145.46  E(vib)   ...       0.00 
freq.    3145.52  E(vib)   ...       0.00 
freq.    3158.32  E(vib)   ...       0.00 
freq.    3158.41  E(vib)   ...       0.00 
freq.    3183.42  E(vib)   ...       0.00 
freq.    3183.74  E(vib)   ...       0.00 
freq.    3214.30  E(vib)   ...       0.00 
freq.    3214.48  E(vib)   ...       0.00 

------------
INNER ENERGY
------------

The inner energy is: U= E(el) + E(ZPE) + E(vib) + E(rot) + E(trans)
    E(el)   - is the total energy from the electronic structure calculation
              = E(kin-el) + E(nuc-el) + E(el-el) + E(nuc-nuc)
    E(ZPE)  - the the zero temperature vibrational energy from the frequency calculation
    E(vib)  - the the finite temperature correction to E(ZPE) due to population
              of excited vibrational states
    E(rot)  - is the rotational thermal energy
    E(trans)- is the translational thermal energy

Summary of contributions to the inner energy U:
Electronic energy                ...   -383.06725513 Eh
Zero point energy                ...      0.18423605 Eh     115.61 kcal/mol
Thermal vibrational correction   ...      0.00725670 Eh       4.55 kcal/mol
Thermal rotational correction    ...      0.00141627 Eh       0.89 kcal/mol
Thermal translational correction ...      0.00141627 Eh       0.89 kcal/mol
-----------------------------------------------------------------------
Total thermal energy                   -382.87292984 Eh


Summary of corrections to the electronic energy:
(perhaps to be used in another calculation)
Total thermal correction                  0.01008924 Eh       6.33 kcal/mol
Non-thermal (ZPE) correction              0.18423605 Eh     115.61 kcal/mol
-----------------------------------------------------------------------
Total correction                          0.19432530 Eh     121.94 kcal/mol


--------
ENTHALPY
--------

The enthalpy is H = U + kB*T
                kB is Boltzmann's constant
Total free energy                 ...   -382.87292984 Eh 
Thermal Enthalpy correction       ...      0.00094421 Eh       0.59 kcal/mol
-----------------------------------------------------------------------
Total Enthalpy                    ...   -382.87198563 Eh


Note: Rotational entropy computed according to Herzberg 
Infrared and Raman Spectra, Chapter V,1, Van Nostrand Reinhold, 1945 
Point Group:  C2v, Symmetry Number:   2  
Rotational constants in cm-1:     0.082679     0.050982     0.032310 

Vibrational entropy computed according to the QRRHO of S. Grimme
Chem.Eur.J. 2012 18 9955


-------
ENTROPY
-------

The entropy contributions are T*S = T*(S(el)+S(vib)+S(rot)+S(trans))
     S(el)   - electronic entropy
     S(vib)  - vibrational entropy
     S(rot)  - rotational entropy
     S(trans)- translational entropy
The entropies will be listed as multiplied by the temperature to get
units of energy

Electronic entropy                ...      0.00000000 Eh      0.00 kcal/mol
Vibrational entropy               ...      0.01254559 Eh      7.87 kcal/mol
Rotational entropy                ...      0.01305864 Eh      8.19 kcal/mol
Translational entropy             ...      0.01917803 Eh     12.03 kcal/mol
-----------------------------------------------------------------------
Final entropy term                ...      0.04478227 Eh     28.10 kcal/mol

In case the symmetry of your molecule has not been determined correctly
or in case you have a reason to use a different symmetry number we print 
out the resulting rotational entropy values for sn=1,12 :
 --------------------------------------------------------
|  sn= 1 | S(rot)=       0.01371310 Eh      8.61 kcal/mol|
|  sn= 2 | S(rot)=       0.01305864 Eh      8.19 kcal/mol|
|  sn= 3 | S(rot)=       0.01267581 Eh      7.95 kcal/mol|
|  sn= 4 | S(rot)=       0.01240419 Eh      7.78 kcal/mol|
|  sn= 5 | S(rot)=       0.01219350 Eh      7.65 kcal/mol|
|  sn= 6 | S(rot)=       0.01202135 Eh      7.54 kcal/mol|
|  sn= 7 | S(rot)=       0.01187581 Eh      7.45 kcal/mol|
|  sn= 8 | S(rot)=       0.01174973 Eh      7.37 kcal/mol|
|  sn= 9 | S(rot)=       0.01163852 Eh      7.30 kcal/mol|
|  sn=10 | S(rot)=       0.01153904 Eh      7.24 kcal/mol|
|  sn=11 | S(rot)=       0.01144905 Eh      7.18 kcal/mol|
|  sn=12 | S(rot)=       0.01136690 Eh      7.13 kcal/mol|
 --------------------------------------------------------


-------------------
GIBBS FREE ENERGY
-------------------

The Gibbs free energy is G = H - T*S

Total enthalpy                    ...   -382.87198563 Eh 
Total entropy correction          ...     -0.04478227 Eh    -28.10 kcal/mol
-----------------------------------------------------------------------
Final Gibbs free energy         ...   -382.91676790 Eh

For completeness - the Gibbs free energy minus the electronic energy
G-E(el)                           ...      0.15048723 Eh     94.43 kcal/mol


Timings for individual modules:

Sum of individual times         ...      982.423 sec (=  16.374 min)
GTO integral calculation        ...        0.268 sec (=   0.004 min)   0.0 %
SCF iterations                  ...      226.211 sec (=   3.770 min)  23.0 %
Analytical frequency calculation...      755.943 sec (=  12.599 min)  76.9 %
                             ****ORCA TERMINATED NORMALLY****
TOTAL RUN TIME: 0 days 0 hours 16 minutes 22 seconds 709 msec
