
                                 *****************
                                 * O   R   C   A *
                                 *****************

                                            #,                                       
                                            ###                                      
                                            ####                                     
                                            #####                                    
                                            ######                                   
                                           ########,                                 
                                     ,,################,,,,,                         
                               ,,#################################,,                 
                          ,,##########################################,,             
                       ,#########################################, ''#####,          
                    ,#############################################,,   '####,        
                  ,##################################################,,,,####,       
                ,###########''''           ''''###############################       
              ,#####''   ,,,,##########,,,,          '''####'''          '####       
            ,##' ,,,,###########################,,,                        '##       
           ' ,,###''''                  '''############,,,                           
         ,,##''                                '''############,,,,        ,,,,,,###''
      ,#''                                            '''#######################'''  
     '                                                          ''''####''''         
             ,#######,   #######,   ,#######,      ##                                
            ,#'     '#,  ##    ##  ,#'     '#,    #''#        ######   ,####,        
            ##       ##  ##   ,#'  ##            #'  '#       #        #'  '#        
            ##       ##  #######   ##           ,######,      #####,   #    #        
            '#,     ,#'  ##    ##  '#,     ,#' ,#      #,         ##   #,  ,#        
             '#######'   ##     ##  '#######'  #'      '#     #####' # '####'        



                  #######################################################
                  #                        -***-                        #
                  #          Department of theory and spectroscopy      #
                  #    Directorship and core code : Frank Neese         #
                  #        Max Planck Institute fuer Kohlenforschung    #
                  #                Kaiser Wilhelm Platz 1               #
                  #                 D-45470 Muelheim/Ruhr               #
                  #                      Germany                        #
                  #                                                     #
                  #                  All rights reserved                #
                  #                        -***-                        #
                  #######################################################


                         Program Version 5.0.4 -  RELEASE  -


 With contributions from (in alphabetic order):
   Daniel Aravena         : Magnetic Suceptibility
   Michael Atanasov       : Ab Initio Ligand Field Theory (pilot matlab implementation)
   Alexander A. Auer      : GIAO ZORA, VPT2 properties, NMR spectrum
   Ute Becker             : Parallelization
   Giovanni Bistoni       : ED, misc. LED, open-shell LED, HFLD
   Martin Brehm           : Molecular dynamics
   Dmytro Bykov           : SCF Hessian
   Vijay G. Chilkuri      : MRCI spin determinant printing, contributions to CSF-ICE
   Dipayan Datta          : RHF DLPNO-CCSD density
   Achintya Kumar Dutta   : EOM-CC, STEOM-CC
   Dmitry Ganyushin       : Spin-Orbit,Spin-Spin,Magnetic field MRCI
   Miquel Garcia          : C-PCM and meta-GGA Hessian, CC/C-PCM, Gaussian charge scheme
   Yang Guo               : DLPNO-NEVPT2, F12-NEVPT2, CIM, IAO-localization
   Andreas Hansen         : Spin unrestricted coupled pair/coupled cluster methods
   Benjamin Helmich-Paris : MC-RPA, TRAH-SCF, COSX integrals
   Lee Huntington         : MR-EOM, pCC
   Robert Izsak           : Overlap fitted RIJCOSX, COSX-SCS-MP3, EOM
   Marcus Kettner         : VPT2
   Christian Kollmar      : KDIIS, OOCD, Brueckner-CCSD(T), CCSD density, CASPT2, CASPT2-K
   Simone Kossmann        : Meta GGA functionals, TD-DFT gradient, OOMP2, MP2 Hessian
   Martin Krupicka        : Initial AUTO-CI
   Lucas Lang             : DCDCAS
   Marvin Lechner         : AUTO-CI (C++ implementation), FIC-MRCC
   Dagmar Lenk            : GEPOL surface, SMD
   Dimitrios Liakos       : Extrapolation schemes; Compound Job, initial MDCI parallelization
   Dimitrios Manganas     : Further ROCIS development; embedding schemes
   Dimitrios Pantazis     : SARC Basis sets
   Anastasios Papadopoulos: AUTO-CI, single reference methods and gradients
   Taras Petrenko         : DFT Hessian,TD-DFT gradient, ASA, ECA, R-Raman, ABS, FL, XAS/XES, NRVS
   Peter Pinski           : DLPNO-MP2, DLPNO-MP2 Gradient
   Christoph Reimann      : Effective Core Potentials
   Marius Retegan         : Local ZFS, SOC
   Christoph Riplinger    : Optimizer, TS searches, QM/MM, DLPNO-CCSD(T), (RO)-DLPNO pert. Triples
   Tobias Risthaus        : Range-separated hybrids, TD-DFT gradient, RPA, STAB
   Michael Roemelt        : Original ROCIS implementation
   Masaaki Saitow         : Open-shell DLPNO-CCSD energy and density
   Barbara Sandhoefer     : DKH picture change effects
   Avijit Sen             : IP-ROCIS
   Kantharuban Sivalingam : CASSCF convergence, NEVPT2, FIC-MRCI
   Bernardo de Souza      : ESD, SOC TD-DFT
   Georgi Stoychev        : AutoAux, RI-MP2 NMR, DLPNO-MP2 response
   Willem Van den Heuvel  : Paramagnetic NMR
   Boris Wezisla          : Elementary symmetry handling
   Frank Wennmohs         : Technical directorship


 We gratefully acknowledge several colleagues who have allowed us to
 interface, adapt or use parts of their codes:
   Stefan Grimme, W. Hujo, H. Kruse, P. Pracht,  : VdW corrections, initial TS optimization,
                  C. Bannwarth, S. Ehlert          DFT functionals, gCP, sTDA/sTD-DF
   Ed Valeev, F. Pavosevic, A. Kumar             : LibInt (2-el integral package), F12 methods
   Garnet Chan, S. Sharma, J. Yang, R. Olivares  : DMRG
   Ulf Ekstrom                                   : XCFun DFT Library
   Mihaly Kallay                                 : mrcc  (arbitrary order and MRCC methods)
   Jiri Pittner, Ondrej Demel                    : Mk-CCSD
   Frank Weinhold                                : gennbo (NPA and NBO analysis)
   Christopher J. Cramer and Donald G. Truhlar   : smd solvation model
   Lars Goerigk                                  : TD-DFT with DH, B97 family of functionals
   V. Asgeirsson, H. Jonsson                     : NEB implementation
   FAccTs GmbH                                   : IRC, NEB, NEB-TS, DLPNO-Multilevel, CI-OPT
                                                   MM, QMMM, 2- and 3-layer-ONIOM, Crystal-QMMM,
                                                   LR-CPCM, SF, NACMEs, symmetry and pop. for TD-DFT,
                                                   nearIR, NL-DFT gradient (VV10), updates on ESD,
                                                   ML-optimized integration grids
   S Lehtola, MJT Oliveira, MAL Marques          : LibXC Library
   Liviu Ungur et al                             : ANISO software


 Your calculation uses the libint2 library for the computation of 2-el integrals
 For citations please refer to: http://libint.valeyev.net

 Your ORCA version has been built with support for libXC version: 5.1.0
 For citations please refer to: https://tddft.org/programs/libxc/

 This ORCA versions uses:
   CBLAS   interface :  Fast vector & matrix operations
   LAPACKE interface :  Fast linear algebra routines
   SCALAPACK package :  Parallel linear algebra routines
   Shared memory     :  Shared parallel matrices
   BLAS/LAPACK       :  OpenBLAS 0.3.15  USE64BITINT DYNAMIC_ARCH NO_AFFINITY SkylakeX SINGLE_THREADED
        Core in use  :  SkylakeX
   Copyright (c) 2011-2014, The OpenBLAS Project




***************************************
The coordinates will be read from file: 3.xyz
***************************************


Your calculation utilizes the atom-pairwise dispersion correction
based on tight binding partial charges (D4)
Cite in your paper:
E.Caldeweyher, C.Bannwarth, S.Grimme, J.Chem.Phys., (2017), 147, 034112.
E.Caldeweyher, S.Ehlert, A.Hansen, H.Neugebauer, S.Grimme, J.Chem.Phys., (2018), in progress.
   

XCFun DFT library Copyright 2009-2010 Ulf Ekstrom and contributors.
See http://admol.org/xcfun for more information.
This is free software; see the source code for copying conditions.
There is ABSOLUTELY NO WARRANTY; not even for MERCHANTABILITY or FITNESS FOR A PARTICULAR PURPOSE.
For details see the documentation.
Scientific users of this library should cite U. Ekstrom, L. Visscher, R. Bast, A. J. Thorvaldsen and K. Ruud;
J.Chem.Theor.Comp. 2010, DOI: 10.1021/ct100117s
XCFun Version 0.99 

================================================================================

----- Orbital basis set information -----
Your calculation utilizes the basis: def2-SVP
   F. Weigend and R. Ahlrichs, Phys. Chem. Chem. Phys. 7, 3297 (2005).

----- AuxJ basis set information -----
Your calculation utilizes the auxiliary basis: def2/J
   F. Weigend, Phys. Chem. Chem. Phys. 8, 1057 (2006).

================================================================================
                                        WARNINGS
                       Please study these warnings very carefully!
================================================================================


INFO   : the flag for use of the SHARK integral package has been found!

================================================================================
                                       INPUT FILE
================================================================================
NAME = 3.inp
|  1> # ORCA 5.0.4 - 3.inp # write input file
|  2> # Basic Mode
|  3> #
|  4> ! Freq wB97X Def2-SVP D4 SlowConv TightSCF DEFGRID2 Def2/J RIJCOSX 
|  5> 
|  6> 
|  7> 
|  8> %maxcore 4500
|  9> 
| 10> %geom
| 11> Maxiter 150
| 12> END
| 13> 
| 14> * xyzfile 0 1 3.xyz
| 15> 
| 16>                          ****END OF INPUT****
================================================================================

                       ****************************
                       * Single Point Calculation *
                       ****************************

---------------------------------
CARTESIAN COORDINATES (ANGSTROEM)
---------------------------------
  N     -0.000000    1.068401    1.112444
  N      0.000000   -1.068402    1.112444
  C     -0.000000    0.678537   -0.213237
  C      0.000000   -0.678537   -0.213237
  C      0.000001   -0.000000    1.955094
  Cl    -0.000000    1.762528   -1.526093
  Cl    -0.000000   -1.762528   -1.526094
  C     -0.000000    2.452636    1.550386
  C      0.000000   -2.452636    1.550386
  H     -0.000001    2.452126    2.646308
  H      0.000001   -2.452124    2.646308
  H     -0.895713    2.973843    1.182956
  H     -0.895714   -2.973842    1.182958
  H      0.895713   -2.973843    1.182956
  H      0.895713    2.973842    1.182958

----------------------------
CARTESIAN COORDINATES (A.U.)
----------------------------
  NO LB      ZA    FRAG     MASS         X           Y           Z
   0 N     7.0000    0    14.007   -0.000000    2.018985    2.102214
   1 N     7.0000    0    14.007    0.000000   -2.018987    2.102214
   2 C     6.0000    0    12.011   -0.000000    1.282249   -0.402960
   3 C     6.0000    0    12.011    0.000000   -1.282249   -0.402960
   4 C     6.0000    0    12.011    0.000002   -0.000000    3.694592
   5 Cl   17.0000    0    35.453   -0.000000    3.330695   -2.883898
   6 Cl   17.0000    0    35.453   -0.000000   -3.330695   -2.883900
   7 C     6.0000    0    12.011   -0.000000    4.634810    2.929805
   8 C     6.0000    0    12.011    0.000000   -4.634810    2.929805
   9 H     1.0000    0     1.008   -0.000002    4.633847    5.000797
  10 H     1.0000    0     1.008    0.000002   -4.633843    5.000797
  11 H     1.0000    0     1.008   -1.692652    5.619749    2.235463
  12 H     1.0000    0     1.008   -1.692654   -5.619747    2.235467
  13 H     1.0000    0     1.008    1.692652   -5.619749    2.235463
  14 H     1.0000    0     1.008    1.692652    5.619747    2.235467

--------------------------------
INTERNAL COORDINATES (ANGSTROEM)
--------------------------------
 N      0   0   0     0.000000000000     0.00000000     0.00000000
 N      1   0   0     2.136803000000     0.00000000     0.00000000
 C      1   2   0     1.381819109818    73.61213741     0.00000000
 C      3   1   2     1.357074000000   106.38786259     0.00000000
 C      1   2   3     1.360712945225    38.26291500   180.00006800
 Cl     3   1   2     1.702535569325   124.06653745   180.00000085
 Cl     4   3   1     1.702536340443   129.54557853   180.00000000
 C      1   2   3     1.451860782096   162.44375569   180.00000000
 C      2   1   3     1.451859828675   162.44374379   180.00000000
 H      8   1   2     1.095922118668   107.52958105     0.00000000
 H      9   2   1     1.095922119600   107.52948839     0.00000000
 H      8   1   2     1.099528680898   110.55756405   240.46302170
 H      9   2   1     1.099528353166   110.55754510   119.53684782
 H      9   2   1     1.099528680898   110.55755818   240.46301781
 H      8   1   2     1.099527538531   110.55756689   119.53687137

---------------------------
INTERNAL COORDINATES (A.U.)
---------------------------
 N      0   0   0     0.000000000000     0.00000000     0.00000000
 N      1   0   0     4.037972472141     0.00000000     0.00000000
 C      1   2   0     2.611259684174    73.61213741     0.00000000
 C      3   1   2     2.564498203465   106.38786259     0.00000000
 C      1   2   3     2.571374813356    38.26291500   180.00006800
 Cl     3   1   2     3.217325959284   124.06653745   180.00000085
 Cl     4   3   1     3.217327416486   129.54557853   180.00000000
 C      1   2   3     2.743619262743   162.44375569   180.00000000
 C      2   1   3     2.743617461037   162.44374379   180.00000000
 H      8   1   2     2.070992668389   107.52958105     0.00000000
 H      9   2   1     2.070992670151   107.52948839     0.00000000
 H      8   1   2     2.077808083290   110.55756405   240.46302170
 H      9   2   1     2.077807463965   110.55754510   119.53684782
 H      9   2   1     2.077808083290   110.55755818   240.46301781
 H      8   1   2     2.077805924529   110.55756689   119.53687137

---------------------
BASIS SET INFORMATION
---------------------
There are 4 groups of distinct atoms

 Group   1 Type N   : 7s4p1d contracted to 3s2p1d pattern {511/31/1}
 Group   2 Type C   : 7s4p1d contracted to 3s2p1d pattern {511/31/1}
 Group   3 Type Cl  : 10s7p1d contracted to 4s3p1d pattern {5311/511/1}
 Group   4 Type H   : 4s1p contracted to 2s1p pattern {31/1}

Atom   0N    basis set group =>   1
Atom   1N    basis set group =>   1
Atom   2C    basis set group =>   2
Atom   3C    basis set group =>   2
Atom   4C    basis set group =>   2
Atom   5Cl   basis set group =>   3
Atom   6Cl   basis set group =>   3
Atom   7C    basis set group =>   2
Atom   8C    basis set group =>   2
Atom   9H    basis set group =>   4
Atom  10H    basis set group =>   4
Atom  11H    basis set group =>   4
Atom  12H    basis set group =>   4
Atom  13H    basis set group =>   4
Atom  14H    basis set group =>   4
---------------------------------
AUXILIARY/J BASIS SET INFORMATION
---------------------------------
There are 4 groups of distinct atoms

 Group   1 Type N   : 12s5p4d2f1g contracted to 6s4p3d1f1g pattern {711111/2111/211/2/1}
 Group   2 Type C   : 12s5p4d2f1g contracted to 6s4p3d1f1g pattern {711111/2111/211/2/1}
 Group   3 Type Cl  : 14s5p5d2f1g contracted to 8s4p3d1f1g pattern {71111111/2111/311/2/1}
 Group   4 Type H   : 5s2p1d contracted to 3s1p1d pattern {311/2/1}

Atom   0N    basis set group =>   1
Atom   1N    basis set group =>   1
Atom   2C    basis set group =>   2
Atom   3C    basis set group =>   2
Atom   4C    basis set group =>   2
Atom   5Cl   basis set group =>   3
Atom   6Cl   basis set group =>   3
Atom   7C    basis set group =>   2
Atom   8C    basis set group =>   2
Atom   9H    basis set group =>   4
Atom  10H    basis set group =>   4
Atom  11H    basis set group =>   4
Atom  12H    basis set group =>   4
Atom  13H    basis set group =>   4
Atom  14H    basis set group =>   4
------------------------------------------------------------------------------
                           ORCA GTO INTEGRAL CALCULATION
                           -- RI-GTO INTEGRALS CHOSEN --
------------------------------------------------------------------------------
------------------------------------------------------------------------------
                   ___                                                        
                  /   \      - P O W E R E D   B Y -                         
                 /     \                                                     
                 |  |  |   _    _      __       _____    __    __             
                 |  |  |  | |  | |    /  \     |  _  \  |  |  /  |          
                  \  \/   | |  | |   /    \    | | | |  |  | /  /          
                 / \  \   | |__| |  /  /\  \   | |_| |  |  |/  /          
                |  |  |   |  __  | /  /__\  \  |    /   |      \           
                |  |  |   | |  | | |   __   |  |    \   |  |\   \          
                \     /   | |  | | |  |  |  |  | |\  \  |  | \   \       
                 \___/    |_|  |_| |__|  |__|  |_| \__\ |__|  \__/        
                                                                              
                      - O R C A' S   B I G   F R I E N D -                    
                                      &                                       
                       - I N T E G R A L  F E E D E R -                       
                                                                              
 v1 FN, 2020, v2 2021                                                         
------------------------------------------------------------------------------


Reading SHARK input file 3.SHARKINP.tmp ... ok
----------------------
SHARK INTEGRAL PACKAGE
----------------------

Number of atoms                             ...     15
Number of basis functions                   ...    164
Number of shells                            ...     76
Maximum angular momentum                    ...      2
Integral batch strategy                     ... SHARK/LIBINT Hybrid
RI-J (if used) integral strategy            ... SPLIT-RIJ (Revised 2003 algorithm where possible)
Printlevel                                  ...      1
Contraction scheme used                     ... SEGMENTED contraction
Coulomb Range Separation                    ... NOT USED
Exchange Range Separation                   ... Long Range
   Mu parameter                             ...  0.300000
   Scaling (regular/separated)              ...  0.157706  0.842294
Finite Nucleus Model                        ... NOT USED
Auxiliary Coulomb fitting basis             ... AVAILABLE
   # of basis functions in Aux-J            ...    511
   # of shells in Aux-J                     ...    169
   Maximum angular momentum in Aux-J        ...      4
Auxiliary J/K fitting basis                 ... NOT available
Auxiliary Correlation fitting basis         ... NOT available
Auxiliary 'external' fitting basis          ... NOT available
Integral threshold                          ...     2.500000e-11
Primitive cut-off                           ...     2.500000e-12
Primitive pair pre-selection threshold      ...     2.500000e-12

Calculating pre-screening integrals         ... done (  0.0 sec) Dimension = 76
Organizing shell pair data                  ... done (  0.0 sec)
Shell pair information
Total number of shell pairs                 ...      2926
Shell pairs after pre-screening             ...      2641
Total number of primitive shell pairs       ...     11480
Primitive shell pairs kept                  ...      7305
          la=0 lb=0:    779 shell pairs
          la=1 lb=0:    954 shell pairs
          la=1 lb=1:    317 shell pairs
          la=2 lb=0:    335 shell pairs
          la=2 lb=1:    214 shell pairs
          la=2 lb=2:     42 shell pairs

Calculating one electron integrals          ... done (  0.0 sec)
Calculating RI/J V-Matrix + Cholesky decomp.... done (  0.0 sec)
Calculating Nuclear repulsion               ... done (  0.0 sec) ENN=    605.812471974589 Eh

SHARK setup successfully completed in   0.2 seconds

Maximum memory used throughout the entire GTOINT-calculation: 23.8 MB
-------------------------------------------------------------------------------
                                 ORCA SCF
-------------------------------------------------------------------------------

------------
SCF SETTINGS
------------
Hamiltonian:
 Density Functional     Method          .... DFT(GTOs)
 Exchange Functional    Exchange        .... WB97X
 Correlation Functional Correlation     .... WB97X
 Gradients option       PostSCFGGA      .... off
 Hybrid DFT is turned on
   Fraction HF Exchange ScalHFX         ....  0.157706
   Scaling of DF-GGA-X  ScalDFX         ....  0.000000
   Scaling of DF-GGA-C  ScalDFC         ....  1.000000
   Scaling of DF-LDA-C  ScalLDAC        ....  1.000000
   Perturbative correction              ....  0.000000
   Density functional embedding theory  .... OFF
 Long-range corrected/Screened/Range-Separated Hybrid DFT is turned on
   Amount of maximum screened exact exchange              ....  0.842294
   Range separation parameter mu (erf(mu*r12)/r12)        ....  0.300000
 RI-approximation to the Coulomb term is turned on
   Number of AuxJ basis functions       .... 511
   RIJ-COSX (HFX calculated with COS-X)).... on


General Settings:
 Integral files         IntName         .... 3
 Hartree-Fock type      HFTyp           .... RHF
 Total Charge           Charge          ....    0
 Multiplicity           Mult            ....    1
 Number of Electrons    NEL             ....   84
 Basis Dimension        Dim             ....  164
 Nuclear Repulsion      ENuc            ....    605.8124719746 Eh

Convergence Acceleration:
 DIIS                   CNVDIIS         .... on
   Start iteration      DIISMaxIt       ....     0
   Startup error        DIISStart       ....  0.200000
   # of expansion vecs  DIISMaxEq       ....     5
   Bias factor          DIISBfac        ....   1.050
   Max. coefficient     DIISMaxC        ....  10.000
 Trust-Rad. Augm. Hess. CNVTRAH         .... auto
   Auto Start mean grad. ratio tolernc. ....  1.125000
   Auto Start start iteration           ....    20
   Auto Start num. interpolation iter.  ....    10
   Max. Number of Micro iterations      ....    16
   Max. Number of Macro iterations      .... Maxiter - #DIIS iter
   Number of Davidson start vectors     ....     2
   Converg. threshold I  (grad. norm)   ....   1.000e-05
   Converg. threshold II (energy diff.) ....   1.000e-08
   Grad. Scal. Fac. for Micro threshold ....   0.100
   Minimum threshold for Micro iter.    ....   0.010
   NR start threshold (gradient norm)   ....   0.001
   Initial trust radius                 ....   0.400
   Minimum AH scaling param. (alpha)    ....   1.000
   Maximum AH scaling param. (alpha)    .... 1000.000
   Orbital update algorithm             .... Taylor
   White noise on init. David. guess    .... on
   Maximum white noise                  ....   0.010
   Quad. conv. algorithm                .... NR
 SOSCF                  CNVSOSCF        .... on
   Start iteration      SOSCFMaxIt      ....   150
   Startup grad/error   SOSCFStart      ....  0.001000
 Level Shifting         CNVShift        .... on
   Level shift para.    LevelShift      ....    0.2500
   Turn off err/grad.   ShiftErr        ....    0.0000
 Zerner damping         CNVZerner       .... off
 Static damping         CNVDamp         .... on
   Fraction old density DampFac         ....    0.8500
   Max. Damping (<1)    DampMax         ....    0.9800
   Min. Damping (>=0)   DampMin         ....    0.0000
   Turn off err/grad.   DampErr         ....    0.0300
 Fernandez-Rico         CNVRico         .... off

SCF Procedure:
 Maximum # iterations   MaxIter         ....   125
 SCF integral mode      SCFMode         .... Direct
   Integral package                     .... SHARK and LIBINT hybrid scheme
 Reset frequency        DirectResetFreq ....    20
 Integral Threshold     Thresh          ....  2.500e-11 Eh
 Primitive CutOff       TCut            ....  2.500e-12 Eh

Convergence Tolerance:
 Convergence Check Mode ConvCheckMode   .... Total+1el-Energy
 Convergence forced     ConvForced      .... 0
 Energy Change          TolE            ....  1.000e-08 Eh
 1-El. energy change                    ....  1.000e-05 Eh
 Orbital Gradient       TolG            ....  1.000e-05
 Orbital Rotation angle TolX            ....  1.000e-05
 DIIS Error             TolErr          ....  5.000e-07


Diagonalization of the overlap matrix:
Smallest eigenvalue                        ... 8.769e-04
Time for diagonalization                   ...    0.005 sec
Threshold for overlap eigenvalues          ... 1.000e-08
Number of eigenvalues below threshold      ... 0
Time for construction of square roots      ...    0.002 sec
Total time needed                          ...    0.008 sec

Time for model grid setup =    0.223 sec

------------------------------
INITIAL GUESS: MODEL POTENTIAL
------------------------------
Loading Hartree-Fock densities                     ... done
Calculating cut-offs                               ... done
Initializing the effective Hamiltonian             ... done
Setting up the integral package (SHARK)            ... done
Starting the Coulomb interaction                   ... done (   0.2 sec)
Reading the grid                                   ... done
Mapping shells                                     ... done
Starting the XC term evaluation                    ... done (   0.3 sec)
  promolecular density results
     # of electrons  =     83.995757085
     EX              =    -95.244745260
     EC              =     -3.022309636
     EX+EC           =    -98.267054896
Transforming the Hamiltonian                       ... done (   0.0 sec)
Diagonalizing the Hamiltonian                      ... done (   0.0 sec)
Back transforming the eigenvectors                 ... done (   0.0 sec)
Now organizing SCF variables                       ... done
                      ------------------
                      INITIAL GUESS DONE (   0.7 sec)
                      ------------------
-------------------
DFT GRID GENERATION
-------------------

General Integration Accuracy     IntAcc      ... 4.388
Radial Grid Type                 RadialGrid  ... OptM3 with GC (2021)
Angular Grid (max. ang.)         AngularGrid ... 4 (Lebedev-302)
Angular grid pruning method      GridPruning ... 4 (adaptive)
Weight generation scheme         WeightScheme... Becke
Basis function cutoff            BFCut       ... 1.0000e-11
Integration weight cutoff        WCut        ... 1.0000e-14
Angular grids for H and He will be reduced by one unit
Partially contracted basis set               ... off
Rotationally invariant grid construction     ... off

Total number of grid points                  ...    76127
Total number of batches                      ...     1196
Average number of points per batch           ...       63
Average number of grid points per atom       ...     5075
Time for grid setup =    0.911 sec

--------------------
COSX GRID GENERATION
--------------------

GRIDX 1
-------
General Integration Accuracy     IntAcc      ... 3.816
Radial Grid Type                 RadialGrid  ... OptM3 with GC (2021)
Angular Grid (max. ang.)         AngularGrid ... 1 (Lebedev-50)
Angular grid pruning method      GridPruning ... 4 (adaptive)
Weight generation scheme         WeightScheme... Becke
Basis function cutoff            BFCut       ... 1.0000e-11
Integration weight cutoff        WCut        ... 1.0000e-14
Angular grids for H and He will be reduced by one unit
Partially contracted basis set               ... on
Rotationally invariant grid construction     ... off

Total number of grid points                  ...     9535
Total number of batches                      ...      158
Average number of points per batch           ...       60
Average number of grid points per atom       ...      636
UseSFitting                                  ... on

GRIDX 2
-------
General Integration Accuracy     IntAcc      ... 4.020
Radial Grid Type                 RadialGrid  ... OptM3 with GC (2021)
Angular Grid (max. ang.)         AngularGrid ... 2 (Lebedev-110)
Angular grid pruning method      GridPruning ... 4 (adaptive)
Weight generation scheme         WeightScheme... Becke
Basis function cutoff            BFCut       ... 1.0000e-11
Integration weight cutoff        WCut        ... 1.0000e-14
Angular grids for H and He will be reduced by one unit
Partially contracted basis set               ... on
Rotationally invariant grid construction     ... off

Total number of grid points                  ...    21097
Total number of batches                      ...      337
Average number of points per batch           ...       62
Average number of grid points per atom       ...     1406
UseSFitting                                  ... on

GRIDX 3
-------
General Integration Accuracy     IntAcc      ... 4.338
Radial Grid Type                 RadialGrid  ... OptM3 with GC (2021)
Angular Grid (max. ang.)         AngularGrid ... 3 (Lebedev-194)
Angular grid pruning method      GridPruning ... 4 (adaptive)
Weight generation scheme         WeightScheme... Becke
Basis function cutoff            BFCut       ... 1.0000e-11
Integration weight cutoff        WCut        ... 1.0000e-14
Angular grids for H and He will be reduced by one unit
Partially contracted basis set               ... on
Rotationally invariant grid construction     ... off

Total number of grid points                  ...    47599
Total number of batches                      ...      750
Average number of points per batch           ...       63
Average number of grid points per atom       ...     3173
UseSFitting                                  ... on

Time for X-Grid setup             =    1.125 sec

--------------
SCF ITERATIONS
--------------
ITER       Energy         Delta-E        Max-DP      RMS-DP      [F,P]     Damp
               ***  Starting incremental Fock matrix formation  ***
  0  -1223.2867194735   0.000000000000 0.04235826  0.00076641  0.1197254 0.8500
  1  -1223.3107775196  -0.024058046145 0.04483874  0.00075767  0.0973507 0.8500
                               ***Turning on DIIS***
  2  -1223.3290359425  -0.018258422889 0.03850150  0.00062694  0.0755552 0.8500
  3  -1223.3425196417  -0.013483699136 0.02906581  0.00044704  0.0579475 0.8500
  4  -1223.3529256112  -0.010405969516 0.02295541  0.00034554  0.0463595 0.8500
  5  -1223.3611357143  -0.008210103116 0.01912433  0.00028650  0.0383841 0.8500
  6  -1223.3678308332  -0.006695118878 0.01633092  0.00024395  0.0323304 0.8500
  7  -1223.3733936824  -0.005562849200 0.09495847  0.00141115  0.0274367 0.0000
  8  -1223.4035009515  -0.030107269130 0.00175655  0.00006918  0.0012688 0.0000
  9  -1223.4035312122  -0.000030260690 0.00098042  0.00003987  0.0008510 0.0000
               *** Restarting incremental Fock matrix formation ***
                                   *** Resetting DIIS ***
                      *** Initiating the SOSCF procedure ***
                           *** Shutting down DIIS ***
                      *** Re-Reading the Fockian *** 
                      *** Removing any level shift *** 
ITER      Energy       Delta-E        Grad      Rot      Max-DP    RMS-DP
 10  -1223.40359390  -0.0000626868  0.000641  0.000641  0.000631  0.000021
               *** Restarting incremental Fock matrix formation ***
 11  -1223.40359713  -0.0000032337  0.000367  0.000825  0.000441  0.000018
 12  -1223.40359870  -0.0000015662  0.000173  0.000869  0.000530  0.000019
 13  -1223.40359909  -0.0000003919  0.000053  0.000185  0.000118  0.000005
 14  -1223.40359918  -0.0000000856  0.000008  0.000014  0.000048  0.000001
 15  -1223.40359918  -0.0000000047  0.000003  0.000009  0.000031  0.000000
                 **** Energy Check signals convergence ****
              ***Rediagonalizing the Fockian in SOSCF/NRSCF***

               *****************************************************
               *                     SUCCESS                       *
               *           SCF CONVERGED AFTER  16 CYCLES          *
               *****************************************************

Old exchange energy                            =    -26.392886827 Eh
New exchange energy                            =    -26.392888699 Eh
Exchange energy change after final integration =     -0.000001872 Eh
Total energy after final integration           =  -1223.403601054 Eh
Final COS-X integration done in                =    23.502 sec

----------------
TOTAL SCF ENERGY
----------------

Total Energy       :        -1223.40360105 Eh          -33290.50444 eV

Components:
Nuclear Repulsion  :          605.81247197 Eh           16484.99544 eV
Electronic Energy  :        -1829.21607303 Eh          -49775.49988 eV
One Electron Energy:        -2883.32849684 Eh          -78459.35720 eV
Two Electron Energy:         1054.11242381 Eh           28683.85731 eV
Max COSX asymmetry :            0.00000212 Eh               0.00006 eV

Virial components:
Potential Energy   :        -2441.64027565 Eh          -66440.40967 eV
Kinetic Energy     :         1218.23667459 Eh           33149.90522 eV
Virial Ratio       :            2.00424132


DFT components:
N(Alpha)           :       41.999980083795 electrons
N(Beta)            :       41.999980083795 electrons
N(Total)           :       83.999960167591 electrons
E(XC)              :      -73.198281751124 Eh       
DFET-embed. en.    :        0.000000000000 Eh       

---------------
SCF CONVERGENCE
---------------

  Last Energy change         ...   -1.1826e-09  Tolerance :   1.0000e-08
  Last MAX-Density change    ...    4.4409e-15  Tolerance :   1.0000e-07
  Last RMS-Density change    ...    8.2316e-17  Tolerance :   5.0000e-09
  Last Orbital Gradient      ...    7.0581e-07  Tolerance :   1.0000e-05
  Last Orbital Rotation      ...    2.1706e-06  Tolerance :   1.0000e-05

             **** THE GBW FILE WAS UPDATED (3.gbw) ****
             **** DENSITY 3.scfp WAS UPDATED ****
             **** ENERGY FILE WAS UPDATED (3.en.tmp) ****
             **** THE GBW FILE WAS UPDATED (3.gbw) ****
             **** DENSITY 3.scfp WAS UPDATED ****
----------------
ORBITAL ENERGIES
----------------

  NO   OCC          E(Eh)            E(eV) 
   0   2.0000    -101.501016     -2761.9831 
   1   2.0000    -101.501000     -2761.9826 
   2   2.0000     -14.468278      -393.7019 
   3   2.0000     -14.468271      -393.7017 
   4   2.0000     -10.359263      -281.8899 
   5   2.0000     -10.358687      -281.8742 
   6   2.0000     -10.315674      -280.7037 
   7   2.0000     -10.315646      -280.7030 
   8   2.0000     -10.286325      -279.9051 
   9   2.0000      -9.573599      -260.5109 
  10   2.0000      -9.573578      -260.5103 
  11   2.0000      -7.342653      -199.8038 
  12   2.0000      -7.342648      -199.8036 
  13   2.0000      -7.331360      -199.4964 
  14   2.0000      -7.331348      -199.4961 
  15   2.0000      -7.331335      -199.4958 
  16   2.0000      -7.331331      -199.4956 
  17   2.0000      -1.175072       -31.9753 
  18   2.0000      -1.066566       -29.0227 
  19   2.0000      -1.024058       -27.8660 
  20   2.0000      -0.989768       -26.9329 
  21   2.0000      -0.905361       -24.6361 
  22   2.0000      -0.834459       -22.7068 
  23   2.0000      -0.812469       -22.1084 
  24   2.0000      -0.714658       -19.4468 
  25   2.0000      -0.709068       -19.2947 
  26   2.0000      -0.640062       -17.4170 
  27   2.0000      -0.615577       -16.7507 
  28   2.0000      -0.580845       -15.8056 
  29   2.0000      -0.567520       -15.4430 
  30   2.0000      -0.566895       -15.4260 
  31   2.0000      -0.558408       -15.1951 
  32   2.0000      -0.519767       -14.1436 
  33   2.0000      -0.516445       -14.0532 
  34   2.0000      -0.500401       -13.6166 
  35   2.0000      -0.468507       -12.7487 
  36   2.0000      -0.458901       -12.4873 
  37   2.0000      -0.446378       -12.1466 
  38   2.0000      -0.442749       -12.0478 
  39   2.0000      -0.382288       -10.4026 
  40   2.0000      -0.320413        -8.7189 
  41   2.0000      -0.317631        -8.6432 
  42   0.0000       0.104609         2.8466 
  43   0.0000       0.127545         3.4707 
  44   0.0000       0.128819         3.5053 
  45   0.0000       0.164151         4.4668 
  46   0.0000       0.168278         4.5791 
  47   0.0000       0.175724         4.7817 
  48   0.0000       0.212541         5.7835 
  49   0.0000       0.214459         5.8357 
  50   0.0000       0.224917         6.1203 
  51   0.0000       0.232623         6.3300 
  52   0.0000       0.241103         6.5607 
  53   0.0000       0.266936         7.2637 
  54   0.0000       0.314133         8.5480 
  55   0.0000       0.336483         9.1562 
  56   0.0000       0.353144         9.6095 
  57   0.0000       0.424973        11.5641 
  58   0.0000       0.429157        11.6780 
  59   0.0000       0.455061        12.3828 
  60   0.0000       0.474374        12.9084 
  61   0.0000       0.491804        13.3827 
  62   0.0000       0.533108        14.5066 
  63   0.0000       0.546208        14.8631 
  64   0.0000       0.547221        14.8906 
  65   0.0000       0.571111        15.5407 
  66   0.0000       0.590493        16.0681 
  67   0.0000       0.620177        16.8759 
  68   0.0000       0.631571        17.1859 
  69   0.0000       0.673789        18.3347 
  70   0.0000       0.678851        18.4725 
  71   0.0000       0.684621        18.6295 
  72   0.0000       0.692186        18.8353 
  73   0.0000       0.696620        18.9560 
  74   0.0000       0.732824        19.9412 
  75   0.0000       0.749398        20.3921 
  76   0.0000       0.751503        20.4494 
  77   0.0000       0.752166        20.4675 
  78   0.0000       0.755376        20.5548 
  79   0.0000       0.764824        20.8119 
  80   0.0000       0.772171        21.0118 
  81   0.0000       0.779793        21.2192 
  82   0.0000       0.808378        21.9971 
  83   0.0000       0.818680        22.2774 
  84   0.0000       0.827660        22.5218 
  85   0.0000       0.860889        23.4260 
  86   0.0000       0.861630        23.4462 
  87   0.0000       0.867042        23.5934 
  88   0.0000       0.868983        23.6462 
  89   0.0000       0.877534        23.8789 
  90   0.0000       0.877873        23.8881 
  91   0.0000       0.936747        25.4902 
  92   0.0000       0.952343        25.9146 
  93   0.0000       0.955631        26.0040 
  94   0.0000       0.957003        26.0414 
  95   0.0000       1.000904        27.2360 
  96   0.0000       1.039688        28.2914 
  97   0.0000       1.041598        28.3433 
  98   0.0000       1.043394        28.3922 
  99   0.0000       1.068215        29.0676 
 100   0.0000       1.128399        30.7053 
 101   0.0000       1.152325        31.3563 
 102   0.0000       1.163651        31.6645 
 103   0.0000       1.209069        32.9004 
 104   0.0000       1.258906        34.2566 
 105   0.0000       1.283741        34.9324 
 106   0.0000       1.328661        36.1547 
 107   0.0000       1.335822        36.3496 
 108   0.0000       1.340763        36.4840 
 109   0.0000       1.397735        38.0343 
 110   0.0000       1.501866        40.8678 
 111   0.0000       1.509371        41.0721 
 112   0.0000       1.554606        42.3030 
 113   0.0000       1.609143        43.7870 
 114   0.0000       1.620033        44.0833 
 115   0.0000       1.620856        44.1057 
 116   0.0000       1.626765        44.2665 
 117   0.0000       1.649745        44.8919 
 118   0.0000       1.665044        45.3081 
 119   0.0000       1.734833        47.2072 
 120   0.0000       1.743862        47.4529 
 121   0.0000       1.750685        47.6386 
 122   0.0000       1.875042        51.0225 
 123   0.0000       1.878909        51.1277 
 124   0.0000       1.879094        51.1328 
 125   0.0000       1.912359        52.0379 
 126   0.0000       1.927449        52.4486 
 127   0.0000       1.937996        52.7356 
 128   0.0000       1.944874        52.9227 
 129   0.0000       1.992881        54.2291 
 130   0.0000       2.068191        56.2783 
 131   0.0000       2.086679        56.7814 
 132   0.0000       2.111353        57.4528 
 133   0.0000       2.146551        58.4106 
 134   0.0000       2.146660        58.4136 
 135   0.0000       2.180486        59.3340 
 136   0.0000       2.193788        59.6960 
 137   0.0000       2.246433        61.1285 
 138   0.0000       2.268381        61.7258 
 139   0.0000       2.347685        63.8838 
 140   0.0000       2.358777        64.1856 
 141   0.0000       2.372434        64.5572 
 142   0.0000       2.424197        65.9658 
 143   0.0000       2.430237        66.1301 
 144   0.0000       2.484765        67.6139 
 145   0.0000       2.498259        67.9811 
 146   0.0000       2.570611        69.9499 
 147   0.0000       2.592701        70.5510 
 148   0.0000       2.741384        74.5968 
 149   0.0000       2.743597        74.6571 
 150   0.0000       2.774227        75.4906 
 151   0.0000       2.829539        76.9957 
 152   0.0000       2.831195        77.0407 
 153   0.0000       2.851644        77.5972 
 154   0.0000       2.914271        79.3014 
 155   0.0000       2.944116        80.1135 
 156   0.0000       3.029204        82.4288 
 157   0.0000       3.029312        82.4318 
 158   0.0000       3.037267        82.6482 
 159   0.0000       3.080153        83.8152 
 160   0.0000       3.223714        87.7217 
 161   0.0000       3.278365        89.2089 
 162   0.0000       3.377758        91.9135 
 163   0.0000       3.419249        93.0425 

                    ********************************
                    * MULLIKEN POPULATION ANALYSIS *
                    ********************************

-----------------------
MULLIKEN ATOMIC CHARGES
-----------------------
   0 N :   -0.245049
   1 N :   -0.245049
   2 C :    0.086615
   3 C :    0.086613
   4 C :   -0.102348
   5 Cl:   -0.062156
   6 Cl:   -0.062156
   7 C :    0.106063
   8 C :    0.106062
   9 H :    0.066180
  10 H :    0.066180
  11 H :    0.049761
  12 H :    0.049762
  13 H :    0.049761
  14 H :    0.049761
Sum of atomic charges:    0.0000000

--------------------------------
MULLIKEN REDUCED ORBITAL CHARGES
--------------------------------
  0 N s       :     3.401900  s :     3.401900
      pz      :     1.102074  p :     3.810306
      px      :     1.536266
      py      :     1.171965
      dz2     :     0.009494  d :     0.032844
      dxz     :     0.005533
      dyz     :     0.008311
      dx2y2   :     0.005093
      dxy     :     0.004414
  1 N s       :     3.401900  s :     3.401900
      pz      :     1.102074  p :     3.810305
      px      :     1.536266
      py      :     1.171965
      dz2     :     0.009494  d :     0.032844
      dxz     :     0.005533
      dyz     :     0.008311
      dx2y2   :     0.005093
      dxy     :     0.004414
  2 C s       :     3.020774  s :     3.020774
      pz      :     0.764510  p :     2.823056
      px      :     1.139306
      py      :     0.919240
      dz2     :     0.020150  d :     0.069555
      dxz     :     0.011828
      dyz     :     0.018870
      dx2y2   :     0.007085
      dxy     :     0.011622
  3 C s       :     3.020775  s :     3.020775
      pz      :     0.764510  p :     2.823057
      px      :     1.139306
      py      :     0.919241
      dz2     :     0.020150  d :     0.069554
      dxz     :     0.011828
      dyz     :     0.018870
      dx2y2   :     0.007085
      dxy     :     0.011622
  4 C s       :     3.638761  s :     3.638761
      pz      :     1.103074  p :     2.396481
      px      :     0.657519
      py      :     0.635888
      dz2     :     0.008926  d :     0.067106
      dxz     :     0.010171
      dyz     :     0.029236
      dx2y2   :     0.007081
      dxy     :     0.011692
  5 Cls       :     5.937343  s :     5.937343
      pz      :     3.513768  p :    11.082805
      px      :     3.931782
      py      :     3.637256
      dz2     :     0.007879  d :     0.042008
      dxz     :     0.006519
      dyz     :     0.018588
      dx2y2   :     0.004220
      dxy     :     0.004803
  6 Cls       :     5.937343  s :     5.937343
      pz      :     3.513768  p :    11.082806
      px      :     3.931782
      py      :     3.637256
      dz2     :     0.007879  d :     0.042008
      dxz     :     0.006519
      dyz     :     0.018588
      dx2y2   :     0.004220
      dxy     :     0.004803
  7 C s       :     2.994483  s :     2.994483
      pz      :     1.043740  p :     2.861116
      px      :     1.030147
      py      :     0.787230
      dz2     :     0.008235  d :     0.038338
      dxz     :     0.002975
      dyz     :     0.006199
      dx2y2   :     0.009841
      dxy     :     0.011088
  8 C s       :     2.994484  s :     2.994484
      pz      :     1.043740  p :     2.861116
      px      :     1.030146
      py      :     0.787230
      dz2     :     0.008235  d :     0.038338
      dxz     :     0.002975
      dyz     :     0.006199
      dx2y2   :     0.009841
      dxy     :     0.011088
  9 H s       :     0.910652  s :     0.910652
      pz      :     0.016011  p :     0.023168
      px      :     0.004690
      py      :     0.002466
 10 H s       :     0.910652  s :     0.910652
      pz      :     0.016011  p :     0.023168
      px      :     0.004690
      py      :     0.002466
 11 H s       :     0.927261  s :     0.927261
      pz      :     0.005751  p :     0.022977
      px      :     0.011991
      py      :     0.005235
 12 H s       :     0.927261  s :     0.927261
      pz      :     0.005751  p :     0.022977
      px      :     0.011991
      py      :     0.005235
 13 H s       :     0.927261  s :     0.927261
      pz      :     0.005751  p :     0.022977
      px      :     0.011991
      py      :     0.005235
 14 H s       :     0.927262  s :     0.927262
      pz      :     0.005751  p :     0.022977
      px      :     0.011991
      py      :     0.005235


                     *******************************
                     * LOEWDIN POPULATION ANALYSIS *
                     *******************************

----------------------
LOEWDIN ATOMIC CHARGES
----------------------
   0 N :    0.009142
   1 N :    0.009142
   2 C :   -0.179546
   3 C :   -0.179546
   4 C :   -0.233923
   5 Cl:    0.156815
   6 Cl:    0.156814
   7 C :    0.030774
   8 C :    0.030773
   9 H :    0.042904
  10 H :    0.042904
  11 H :    0.028437
  12 H :    0.028437
  13 H :    0.028437
  14 H :    0.028437

-------------------------------
LOEWDIN REDUCED ORBITAL CHARGES
-------------------------------
  0 N s       :     3.065834  s :     3.065834
      pz      :     1.186205  p :     3.848786
      px      :     1.463797
      py      :     1.198784
      dz2     :     0.024570  d :     0.076238
      dxz     :     0.010955
      dyz     :     0.023212
      dx2y2   :     0.010506
      dxy     :     0.006996
  1 N s       :     3.065834  s :     3.065834
      pz      :     1.186205  p :     3.848786
      px      :     1.463797
      py      :     1.198784
      dz2     :     0.024570  d :     0.076238
      dxz     :     0.010955
      dyz     :     0.023212
      dx2y2   :     0.010506
      dxy     :     0.006996
  2 C s       :     2.887273  s :     2.887273
      pz      :     0.936818  p :     3.131631
      px      :     1.144944
      py      :     1.049868
      dz2     :     0.052095  d :     0.160643
      dxz     :     0.023056
      dyz     :     0.043247
      dx2y2   :     0.018878
      dxy     :     0.023367
  3 C s       :     2.887273  s :     2.887273
      pz      :     0.936818  p :     3.131630
      px      :     1.144944
      py      :     1.049868
      dz2     :     0.052095  d :     0.160643
      dxz     :     0.023056
      dyz     :     0.043247
      dx2y2   :     0.018878
      dxy     :     0.023367
  4 C s       :     3.215804  s :     3.215804
      pz      :     1.353538  p :     2.874740
      px      :     0.715436
      py      :     0.805766
      dz2     :     0.014171  d :     0.143379
      dxz     :     0.014241
      dyz     :     0.067212
      dx2y2   :     0.021989
      dxy     :     0.025766
  5 Cls       :     5.732096  s :     5.732096
      pz      :     3.515409  p :    11.061439
      px      :     3.910373
      py      :     3.635657
      dz2     :     0.009348  d :     0.049650
      dxz     :     0.007573
      dyz     :     0.022330
      dx2y2   :     0.004735
      dxy     :     0.005663
  6 Cls       :     5.732097  s :     5.732097
      pz      :     3.515409  p :    11.061439
      px      :     3.910373
      py      :     3.635657
      dz2     :     0.009348  d :     0.049650
      dxz     :     0.007573
      dyz     :     0.022330
      dx2y2   :     0.004735
      dxy     :     0.005663
  7 C s       :     2.833051  s :     2.833051
      pz      :     1.076990  p :     3.041375
      px      :     1.080117
      py      :     0.884268
      dz2     :     0.021951  d :     0.094800
      dxz     :     0.006713
      dyz     :     0.014317
      dx2y2   :     0.023232
      dxy     :     0.028587
  8 C s       :     2.833051  s :     2.833051
      pz      :     1.076989  p :     3.041375
      px      :     1.080117
      py      :     0.884268
      dz2     :     0.021951  d :     0.094800
      dxz     :     0.006713
      dyz     :     0.014317
      dx2y2   :     0.023232
      dxy     :     0.028587
  9 H s       :     0.891171  s :     0.891171
      pz      :     0.045158  p :     0.065926
      px      :     0.012306
      py      :     0.008462
 10 H s       :     0.891171  s :     0.891171
      pz      :     0.045158  p :     0.065926
      px      :     0.012306
      py      :     0.008462
 11 H s       :     0.907044  s :     0.907044
      pz      :     0.015607  p :     0.064519
      px      :     0.032682
      py      :     0.016230
 12 H s       :     0.907044  s :     0.907044
      pz      :     0.015607  p :     0.064519
      px      :     0.032682
      py      :     0.016230
 13 H s       :     0.907044  s :     0.907044
      pz      :     0.015607  p :     0.064519
      px      :     0.032682
      py      :     0.016230
 14 H s       :     0.907044  s :     0.907044
      pz      :     0.015607  p :     0.064519
      px      :     0.032682
      py      :     0.016230


                      *****************************
                      * MAYER POPULATION ANALYSIS *
                      *****************************

  NA   - Mulliken gross atomic population
  ZA   - Total nuclear charge
  QA   - Mulliken gross atomic charge
  VA   - Mayer's total valence
  BVA  - Mayer's bonded valence
  FA   - Mayer's free valence

  ATOM       NA         ZA         QA         VA         BVA        FA
  0 N      7.2450     7.0000    -0.2450     3.3780     3.3780    -0.0000
  1 N      7.2450     7.0000    -0.2450     3.3780     3.3780    -0.0000
  2 C      5.9134     6.0000     0.0866     3.9521     3.9521     0.0000
  3 C      5.9134     6.0000     0.0866     3.9521     3.9521     0.0000
  4 C      6.1023     6.0000    -0.1023     2.6625     2.6625     0.0000
  5 Cl    17.0622    17.0000    -0.0622     1.1871     1.1871     0.0000
  6 Cl    17.0622    17.0000    -0.0622     1.1871     1.1871     0.0000
  7 C      5.8939     6.0000     0.1061     3.8783     3.8783     0.0000
  8 C      5.8939     6.0000     0.1061     3.8783     3.8783     0.0000
  9 H      0.9338     1.0000     0.0662     1.0173     1.0173     0.0000
 10 H      0.9338     1.0000     0.0662     1.0173     1.0173    -0.0000
 11 H      0.9502     1.0000     0.0498     0.9960     0.9960    -0.0000
 12 H      0.9502     1.0000     0.0498     0.9960     0.9960    -0.0000
 13 H      0.9502     1.0000     0.0498     0.9960     0.9960     0.0000
 14 H      0.9502     1.0000     0.0498     0.9960     0.9960     0.0000

  Mayer bond orders larger than 0.100000
B(  0-N ,  2-C ) :   1.1289 B(  0-N ,  4-C ) :   1.2157 B(  0-N ,  7-C ) :   0.9400 
B(  1-N ,  3-C ) :   1.1289 B(  1-N ,  4-C ) :   1.2157 B(  1-N ,  8-C ) :   0.9401 
B(  2-C ,  3-C ) :   1.6041 B(  2-C ,  5-Cl) :   1.0770 B(  3-C ,  6-Cl) :   1.0770 
B(  7-C ,  9-H ) :   0.9706 B(  7-C , 11-H ) :   0.9787 B(  7-C , 14-H ) :   0.9787 
B(  8-C , 10-H ) :   0.9706 B(  8-C , 12-H ) :   0.9787 B(  8-C , 13-H ) :   0.9787 


-------
TIMINGS
-------

Total SCF time: 0 days 0 hours 2 min 44 sec 

Total time                  ....     164.853 sec
Sum of individual times     ....     164.645 sec  ( 99.9%)

Fock matrix formation       ....     161.823 sec  ( 98.2%)
  Split-RI-J                ....       6.490 sec  (  4.0% of F)
  Chain of spheres X        ....     137.539 sec  ( 85.0% of F)
  XC integration            ....      17.636 sec  ( 10.9% of F)
    Basis function eval.    ....       6.307 sec  ( 35.8% of XC)
    Density eval.           ....       3.983 sec  ( 22.6% of XC)
    XC-Functional eval.     ....       2.985 sec  ( 16.9% of XC)
    XC-Potential eval.      ....       3.900 sec  ( 22.1% of XC)
Diagonalization             ....       0.056 sec  (  0.0%)
Density matrix formation    ....       0.009 sec  (  0.0%)
Population analysis         ....       0.007 sec  (  0.0%)
Initial guess               ....       0.450 sec  (  0.3%)
Orbital Transformation      ....       0.000 sec  (  0.0%)
Orbital Orthonormalization  ....       0.000 sec  (  0.0%)
DIIS solution               ....       0.018 sec  (  0.0%)
SOSCF solution              ....       0.022 sec  (  0.0%)
Grid generation             ....       2.259 sec  (  1.4%)

Maximum memory used throughout the entire SCF-calculation: 71.9 MB


-------------------------------------------------------------------------------
                          DFT DISPERSION CORRECTION                            
                                                                               
                                 DFTD4 V2.5                                    
-------------------------------------------------------------------------------
The WB97X functional is recognized
Active option DFTDOPT                   ...         5   

Starting D4
-------------------------   ----------------
Dispersion correction           -0.002555326
-------------------------   ----------------


-------------------------   --------------------
FINAL SINGLE POINT ENERGY     -1223.406156379994
-------------------------   --------------------


                            ***************************************
                            *     ORCA property calculations      *
                            ***************************************

                                    ---------------------
                                    Active property flags
                                    ---------------------
   (+) Dipole Moment


------------------------------------------------------------------------------
                       ORCA ELECTRIC PROPERTIES CALCULATION
------------------------------------------------------------------------------

Dipole Moment Calculation                       ... on
Quadrupole Moment Calculation                   ... off
Polarizability Calculation                      ... off
GBWName                                         ... 3.gbw
Electron density                                ... 3.scfp
The origin for moment calculation is the CENTER OF MASS  = ( 0.000000, -0.000000 -0.129822)

-------------
DIPOLE MOMENT
-------------
                                X             Y             Z
Electronic contribution:      0.00000       0.00000     -13.96553
Nuclear contribution   :     -0.00000       0.00000      13.71667
                        -----------------------------------------
Total Dipole Moment    :     -0.00000       0.00000      -0.24887
                        -----------------------------------------
Magnitude (a.u.)       :      0.24887
Magnitude (Debye)      :      0.63257



--------------------
Rotational spectrum 
--------------------
 
Rotational constants in cm-1:     0.051589     0.036741     0.021637 
Rotational constants in MHz :  1546.607356  1101.465244   648.653012 

 Dipole components along the rotational axes: 
x,y,z [a.u.] :     0.000003    -0.248867     0.000001 
x,y,z [Debye]:     0.000007    -0.632570     0.000002 

 

-------------------------------------------------------------------------------
                               ORCA SCF HESSIAN
-------------------------------------------------------------------------------

                   --------- SHARK INITIALIZATION DONE ---------

Hessian of the Kohn-Sham DFT energy:
Kohn-Sham wavefunction type                      ... RKS
Hartree-Fock exchange scaling                    ...    0.158
Number of operators                              ...    1
Number of atoms                                  ...   15
Basis set dimensions                             ...  164
Integral neglect threshold                       ... 2.5e-11
Integral primitive cutoff                        ... 2.5e-12

Setting up DFT Hessian calculations              ... 

HESS GRID
---------

General Integration Accuracy     IntAcc      ... 4.629
Radial Grid Type                 RadialGrid  ... OptM3 with GC (2021)
Angular Grid (max. ang.)         AngularGrid ... 5 (Lebedev-434)
Angular grid pruning method      GridPruning ... 4 (adaptive)
Weight generation scheme         WeightScheme... Becke
Basis function cutoff            BFCut       ... 1.0000e-11
Integration weight cutoff        WCut        ... 1.0000e-14
Angular grids for H and He will be reduced by one unit
Partially contracted basis set               ... off
Rotationally invariant grid construction     ... off

Total number of grid points                  ...   116512
Total number of batches                      ...     1827
Average number of points per batch           ...       63
Average number of grid points per atom       ...     7767

Building densities                               ... done   (      0.0 sec)
Calculating rho(r) on the grid                   ... done   (      0.9 sec)
Building xc-kernel on the grid                   ... done   (      1.0 sec)
                                                     done   (      3.6 sec)

Nuclear repulsion Hessian  (SHARK)               ... done   (      0.0 sec)

----------------------------------------------
Forming right-hand sides of CP-SCF equations     ...
----------------------------------------------
One electron integral derivatives  (SHARK)       ... done   (      0.2 sec)
Transforming the overlap derivative matrices     ... done   (      0.0 sec)
Making the Q(x) pseudodensities                  ... done   (      0.0 sec)
Adding the E*S(x)*S(y) terms to the Hessian      ... done   (      0.0 sec)
Calculating energy weighted overlap derivatives  ... done   (      0.0 sec)
Two electron integral derivatives (SHARK-RI)     ... done   (     29.2 sec)
Exchange-correlation integral derivatives        ... done   (     81.0 sec)
tr(F(y)Q(x)) contribution to the Hessian         ... done   (      0.0 sec)
Response fock operator R(S(x)) (SHARK-RIJCOSX)   ... done   (     24.7 sec)
XC Response fock operator R(S(x))                ... done   (     29.0 sec)
tr(F(y)S(x)) contribution to the Hessian         ... done   (      0.0 sec)
Transforming and finalizing RHSs                 ... done   (      0.0 sec)

----------------------------------------------
Solving the CP-SCF equations (RIJCOSX)           ...
----------------------------------------------
     CP-SCF ITERATION   0:   1.3737e-01 (  11.5 sec   0/ 45 done)
     CP-SCF ITERATION   1:   8.9738e-02 (  11.5 sec   0/ 45 done)
     CP-SCF ITERATION   2:   2.3211e-02 (  11.4 sec   0/ 45 done)
     CP-SCF ITERATION   3:   9.1621e-03 (  11.5 sec   0/ 45 done)
     CP-SCF ITERATION   4:   4.8558e-03 (  11.5 sec   2/ 45 done)
     CP-SCF ITERATION   5:   1.6786e-03 (  11.3 sec   2/ 45 done)
     CP-SCF ITERATION   6:   5.7207e-04 (  11.3 sec  25/ 45 done)
     CP-SCF ITERATION   7:   1.9672e-04 (   8.2 sec  35/ 45 done)
     CP-SCF ITERATION   8:   8.3397e-05 (   5.6 sec  45/ 45 done)
                    *** THE CP-SCF HAS CONVERGED ***

                                                 ... done   (     94.2 sec)
Forming perturbed density Hessian contributions  ... done   (      0.0 sec)
2nd integral derivative contribs (SHARK-RI)      ... done   (    126.2 sec)
Exchange-correlation Hessian                     ... done   (     61.1 sec)
Dispersion correction in the Hessian             ... Starting D4


------------------- 
Dispersion Gradient 
------------------- 
   1  :    0.000000027    0.000012139    0.000007201
   2  :    0.000000008   -0.000012139    0.000007201
   3  :   -0.000000001    0.000008574   -0.000004713
   4  :    0.000000003   -0.000008574   -0.000004713
   5  :   -0.000000005    0.000000000    0.000016099
   6  :   -0.000000005    0.000036813   -0.000041057
   7  :   -0.000000007   -0.000036813   -0.000041057
   8  :   -0.000000013    0.000044901    0.000018152
   9  :   -0.000000005   -0.000044901    0.000018152
  10  :    0.000000003    0.000008393    0.000005813
  11  :   -0.000000001   -0.000008393    0.000005813
  12  :    0.000000024    0.000007327    0.000003277
  13  :    0.000000022   -0.000007323    0.000003277
  14  :   -0.000000025   -0.000007322    0.000003277
  15  :   -0.000000023    0.000007318    0.000003277

  |G| =    0.000086834

Starting D4


------------------- 
Dispersion Gradient 
------------------- 
   1  :   -0.000000027    0.000012139    0.000007201
   2  :   -0.000000008   -0.000012139    0.000007201
   3  :    0.000000001    0.000008574   -0.000004713
   4  :   -0.000000003   -0.000008574   -0.000004713
   5  :    0.000000005    0.000000000    0.000016099
   6  :    0.000000005    0.000036813   -0.000041057
   7  :    0.000000007   -0.000036813   -0.000041057
   8  :    0.000000013    0.000044901    0.000018152
   9  :    0.000000005   -0.000044901    0.000018152
  10  :   -0.000000003    0.000008393    0.000005813
  11  :    0.000000001   -0.000008393    0.000005813
  12  :    0.000000023    0.000007318    0.000003277
  13  :    0.000000025   -0.000007322    0.000003277
  14  :   -0.000000022   -0.000007323    0.000003277
  15  :   -0.000000024    0.000007327    0.000003277

  |G| =    0.000086830

Starting D4


------------------- 
Dispersion Gradient 
------------------- 
   1  :   -0.000000000    0.000012259    0.000007244
   2  :   -0.000000000   -0.000012187    0.000007197
   3  :    0.000000000    0.000008570   -0.000004713
   4  :    0.000000000   -0.000008631   -0.000004768
   5  :    0.000000000    0.000000005    0.000016118
   6  :   -0.000000000    0.000036815   -0.000041063
   7  :   -0.000000000   -0.000036826   -0.000041063
   8  :   -0.000000000    0.000044932    0.000018164
   9  :    0.000000000   -0.000044915    0.000018155
  10  :   -0.000000000    0.000008389    0.000005812
  11  :    0.000000000   -0.000008396    0.000005813
  12  :    0.000000023    0.000007317    0.000003274
  13  :    0.000000023   -0.000007324    0.000003277
  14  :   -0.000000023   -0.000007324    0.000003277
  15  :   -0.000000023    0.000007317    0.000003274

  |G| =    0.000086889

Starting D4


------------------- 
Dispersion Gradient 
------------------- 
   1  :   -0.000000000    0.000012019    0.000007157
   2  :   -0.000000000   -0.000012092    0.000007205
   3  :    0.000000000    0.000008579   -0.000004712
   4  :    0.000000000   -0.000008516   -0.000004656
   5  :    0.000000000   -0.000000005    0.000016080
   6  :   -0.000000000    0.000036812   -0.000041052
   7  :   -0.000000000   -0.000036801   -0.000041052
   8  :   -0.000000000    0.000044870    0.000018140
   9  :    0.000000000   -0.000044887    0.000018149
  10  :   -0.000000000    0.000008398    0.000005813
  11  :    0.000000000   -0.000008390    0.000005812
  12  :    0.000000024    0.000007328    0.000003280
  13  :    0.000000024   -0.000007321    0.000003278
  14  :   -0.000000024   -0.000007321    0.000003278
  15  :   -0.000000024    0.000007328    0.000003280

  |G| =    0.000086775

Starting D4


------------------- 
Dispersion Gradient 
------------------- 
   1  :   -0.000000000    0.000012182    0.000007229
   2  :   -0.000000000   -0.000012135    0.000007202
   3  :    0.000000000    0.000008575   -0.000004705
   4  :    0.000000000   -0.000008624   -0.000004753
   5  :    0.000000000    0.000000000    0.000016118
   6  :   -0.000000000    0.000036814   -0.000041045
   7  :   -0.000000000   -0.000036819   -0.000041069
   8  :   -0.000000000    0.000044914    0.000018146
   9  :    0.000000000   -0.000044901    0.000018150
  10  :   -0.000000000    0.000008388    0.000005810
  11  :    0.000000000   -0.000008393    0.000005811
  12  :    0.000000022    0.000007322    0.000003278
  13  :    0.000000023   -0.000007323    0.000003275
  14  :   -0.000000023   -0.000007323    0.000003275
  15  :   -0.000000022    0.000007322    0.000003278

  |G| =    0.000086851

Starting D4


------------------- 
Dispersion Gradient 
------------------- 
   1  :   -0.000000000    0.000012095    0.000007174
   2  :   -0.000000000   -0.000012143    0.000007200
   3  :    0.000000000    0.000008573   -0.000004720
   4  :    0.000000000   -0.000008524   -0.000004671
   5  :    0.000000000   -0.000000000    0.000016081
   6  :   -0.000000000    0.000036813   -0.000041070
   7  :   -0.000000000   -0.000036807   -0.000041045
   8  :   -0.000000000    0.000044889    0.000018158
   9  :    0.000000000   -0.000044902    0.000018154
  10  :   -0.000000000    0.000008399    0.000005815
  11  :    0.000000000   -0.000008394    0.000005814
  12  :    0.000000025    0.000007323    0.000003276
  13  :    0.000000024   -0.000007322    0.000003279
  14  :   -0.000000024   -0.000007322    0.000003279
  15  :   -0.000000025    0.000007323    0.000003276

  |G| =    0.000086813

Starting D4


------------------- 
Dispersion Gradient 
------------------- 
   1  :    0.000000008    0.000012139    0.000007201
   2  :    0.000000027   -0.000012139    0.000007201
   3  :    0.000000003    0.000008574   -0.000004713
   4  :   -0.000000001   -0.000008574   -0.000004713
   5  :   -0.000000005   -0.000000000    0.000016099
   6  :   -0.000000007    0.000036813   -0.000041057
   7  :   -0.000000005   -0.000036813   -0.000041057
   8  :   -0.000000005    0.000044901    0.000018152
   9  :   -0.000000013   -0.000044901    0.000018152
  10  :   -0.000000001    0.000008393    0.000005813
  11  :    0.000000003   -0.000008393    0.000005813
  12  :    0.000000022    0.000007323    0.000003277
  13  :    0.000000024   -0.000007327    0.000003277
  14  :   -0.000000023   -0.000007318    0.000003277
  15  :   -0.000000025    0.000007322    0.000003277

  |G| =    0.000086834

Starting D4


------------------- 
Dispersion Gradient 
------------------- 
   1  :   -0.000000008    0.000012139    0.000007201
   2  :   -0.000000027   -0.000012139    0.000007201
   3  :   -0.000000003    0.000008574   -0.000004713
   4  :    0.000000001   -0.000008574   -0.000004713
   5  :    0.000000005   -0.000000000    0.000016099
   6  :    0.000000007    0.000036813   -0.000041057
   7  :    0.000000005   -0.000036813   -0.000041057
   8  :    0.000000005    0.000044901    0.000018152
   9  :    0.000000013   -0.000044901    0.000018152
  10  :    0.000000001    0.000008393    0.000005813
  11  :   -0.000000003   -0.000008393    0.000005813
  12  :    0.000000025    0.000007322    0.000003277
  13  :    0.000000023   -0.000007318    0.000003277
  14  :   -0.000000024   -0.000007327    0.000003277
  15  :   -0.000000022    0.000007323    0.000003277

  |G| =    0.000086830

Starting D4


------------------- 
Dispersion Gradient 
------------------- 
   1  :   -0.000000000    0.000012092    0.000007205
   2  :   -0.000000000   -0.000012019    0.000007157
   3  :    0.000000000    0.000008516   -0.000004656
   4  :    0.000000000   -0.000008579   -0.000004712
   5  :    0.000000000    0.000000005    0.000016080
   6  :   -0.000000000    0.000036801   -0.000041052
   7  :   -0.000000000   -0.000036812   -0.000041052
   8  :   -0.000000000    0.000044887    0.000018149
   9  :    0.000000000   -0.000044870    0.000018140
  10  :   -0.000000000    0.000008390    0.000005812
  11  :    0.000000000   -0.000008398    0.000005813
  12  :    0.000000024    0.000007321    0.000003278
  13  :    0.000000024   -0.000007328    0.000003280
  14  :   -0.000000024   -0.000007328    0.000003280
  15  :   -0.000000024    0.000007321    0.000003278

  |G| =    0.000086775

Starting D4


------------------- 
Dispersion Gradient 
------------------- 
   1  :   -0.000000000    0.000012187    0.000007197
   2  :   -0.000000000   -0.000012259    0.000007244
   3  :    0.000000000    0.000008631   -0.000004768
   4  :    0.000000000   -0.000008570   -0.000004713
   5  :    0.000000000   -0.000000005    0.000016118
   6  :   -0.000000000    0.000036826   -0.000041063
   7  :   -0.000000000   -0.000036815   -0.000041063
   8  :   -0.000000000    0.000044915    0.000018155
   9  :    0.000000000   -0.000044932    0.000018164
  10  :   -0.000000000    0.000008396    0.000005813
  11  :    0.000000000   -0.000008389    0.000005812
  12  :    0.000000023    0.000007324    0.000003277
  13  :    0.000000023   -0.000007317    0.000003274
  14  :   -0.000000023   -0.000007317    0.000003274
  15  :   -0.000000023    0.000007324    0.000003277

  |G| =    0.000086889

Starting D4


------------------- 
Dispersion Gradient 
------------------- 
   1  :   -0.000000000    0.000012135    0.000007202
   2  :   -0.000000000   -0.000012182    0.000007229
   3  :    0.000000000    0.000008624   -0.000004753
   4  :    0.000000000   -0.000008575   -0.000004705
   5  :    0.000000000   -0.000000000    0.000016118
   6  :   -0.000000000    0.000036819   -0.000041069
   7  :   -0.000000000   -0.000036814   -0.000041045
   8  :   -0.000000000    0.000044901    0.000018150
   9  :    0.000000000   -0.000044914    0.000018146
  10  :   -0.000000000    0.000008393    0.000005811
  11  :    0.000000000   -0.000008388    0.000005810
  12  :    0.000000023    0.000007323    0.000003275
  13  :    0.000000022   -0.000007322    0.000003278
  14  :   -0.000000022   -0.000007322    0.000003278
  15  :   -0.000000023    0.000007323    0.000003275

  |G| =    0.000086851

Starting D4


------------------- 
Dispersion Gradient 
------------------- 
   1  :   -0.000000000    0.000012143    0.000007200
   2  :   -0.000000000   -0.000012096    0.000007174
   3  :    0.000000000    0.000008524   -0.000004671
   4  :    0.000000000   -0.000008573   -0.000004720
   5  :    0.000000000    0.000000000    0.000016081
   6  :   -0.000000000    0.000036807   -0.000041045
   7  :   -0.000000000   -0.000036813   -0.000041070
   8  :   -0.000000000    0.000044902    0.000018154
   9  :    0.000000000   -0.000044889    0.000018158
  10  :   -0.000000000    0.000008394    0.000005814
  11  :    0.000000000   -0.000008399    0.000005815
  12  :    0.000000024    0.000007322    0.000003279
  13  :    0.000000025   -0.000007323    0.000003276
  14  :   -0.000000025   -0.000007323    0.000003276
  15  :   -0.000000024    0.000007322    0.000003279

  |G| =    0.000086813

Starting D4


------------------- 
Dispersion Gradient 
------------------- 
   1  :   -0.000000001    0.000012139    0.000007201
   2  :    0.000000003   -0.000012139    0.000007201
   3  :    0.000000008    0.000008574   -0.000004713
   4  :   -0.000000001   -0.000008574   -0.000004713
   5  :    0.000000002   -0.000000000    0.000016100
   6  :    0.000000002    0.000036813   -0.000041057
   7  :   -0.000000002   -0.000036813   -0.000041057
   8  :    0.000000002    0.000044901    0.000018152
   9  :   -0.000000002   -0.000044901    0.000018152
  10  :   -0.000000002    0.000008393    0.000005813
  11  :   -0.000000002   -0.000008393    0.000005813
  12  :    0.000000022    0.000007322    0.000003277
  13  :    0.000000022   -0.000007323    0.000003277
  14  :   -0.000000026   -0.000007322    0.000003277
  15  :   -0.000000025    0.000007323    0.000003277

  |G| =    0.000086832

Starting D4


------------------- 
Dispersion Gradient 
------------------- 
   1  :    0.000000001    0.000012139    0.000007201
   2  :   -0.000000003   -0.000012139    0.000007201
   3  :   -0.000000008    0.000008574   -0.000004713
   4  :    0.000000001   -0.000008574   -0.000004713
   5  :   -0.000000002   -0.000000000    0.000016100
   6  :   -0.000000002    0.000036813   -0.000041057
   7  :    0.000000002   -0.000036813   -0.000041057
   8  :   -0.000000002    0.000044901    0.000018152
   9  :    0.000000002   -0.000044901    0.000018152
  10  :    0.000000002    0.000008393    0.000005813
  11  :    0.000000002   -0.000008393    0.000005813
  12  :    0.000000025    0.000007323    0.000003277
  13  :    0.000000026   -0.000007322    0.000003277
  14  :   -0.000000022   -0.000007322    0.000003277
  15  :   -0.000000022    0.000007322    0.000003277

  |G| =    0.000086832

Starting D4


------------------- 
Dispersion Gradient 
------------------- 
   1  :   -0.000000000    0.000012135    0.000007202
   2  :   -0.000000000   -0.000012195    0.000007250
   3  :    0.000000000    0.000008679   -0.000004805
   4  :    0.000000000   -0.000008576   -0.000004722
   5  :    0.000000000   -0.000000012    0.000016154
   6  :   -0.000000000    0.000036812   -0.000041053
   7  :   -0.000000000   -0.000036810   -0.000041053
   8  :   -0.000000000    0.000044890    0.000018139
   9  :    0.000000000   -0.000044911    0.000018155
  10  :   -0.000000000    0.000008391    0.000005813
  11  :    0.000000000   -0.000008395    0.000005813
  12  :    0.000000022    0.000007321    0.000003276
  13  :    0.000000023   -0.000007325    0.000003277
  14  :   -0.000000023   -0.000007325    0.000003277
  15  :   -0.000000022    0.000007321    0.000003276

  |G| =    0.000086847

Starting D4


------------------- 
Dispersion Gradient 
------------------- 
   1  :   -0.000000000    0.000012144    0.000007200
   2  :   -0.000000000   -0.000012081    0.000007150
   3  :    0.000000000    0.000008467   -0.000004616
   4  :    0.000000000   -0.000008572   -0.000004703
   5  :    0.000000000    0.000000012    0.000016043
   6  :   -0.000000000    0.000036815   -0.000041061
   7  :   -0.000000000   -0.000036816   -0.000041061
   8  :   -0.000000000    0.000044912    0.000018165
   9  :    0.000000000   -0.000044892    0.000018148
  10  :   -0.000000000    0.000008396    0.000005812
  11  :    0.000000000   -0.000008392    0.000005813
  12  :    0.000000025    0.000007324    0.000003278
  13  :    0.000000024   -0.000007320    0.000003277
  14  :   -0.000000024   -0.000007320    0.000003277
  15  :   -0.000000025    0.000007324    0.000003278

  |G| =    0.000086816

Starting D4


------------------- 
Dispersion Gradient 
------------------- 
   1  :   -0.000000000    0.000012139    0.000007209
   2  :   -0.000000000   -0.000012082    0.000007159
   3  :    0.000000000    0.000008478   -0.000004557
   4  :    0.000000000   -0.000008565   -0.000004693
   5  :    0.000000000    0.000000024    0.000015988
   6  :   -0.000000000    0.000036816   -0.000041059
   7  :   -0.000000000   -0.000036799   -0.000041053
   8  :   -0.000000000    0.000044886    0.000018136
   9  :    0.000000000   -0.000044896    0.000018148
  10  :   -0.000000000    0.000008392    0.000005810
  11  :    0.000000000   -0.000008394    0.000005811
  12  :    0.000000023    0.000007322    0.000003276
  13  :    0.000000024   -0.000007322    0.000003275
  14  :   -0.000000024   -0.000007322    0.000003275
  15  :   -0.000000023    0.000007323    0.000003276

  |G| =    0.000086798

Starting D4


------------------- 
Dispersion Gradient 
------------------- 
   1  :   -0.000000000    0.000012139    0.000007194
   2  :   -0.000000000   -0.000012194    0.000007242
   3  :    0.000000000    0.000008667   -0.000004861
   4  :    0.000000000   -0.000008583   -0.000004731
   5  :    0.000000000   -0.000000023    0.000016204
   6  :   -0.000000000    0.000036810   -0.000041055
   7  :   -0.000000000   -0.000036827   -0.000041061
   8  :   -0.000000000    0.000044916    0.000018167
   9  :    0.000000000   -0.000044907    0.000018156
  10  :   -0.000000000    0.000008395    0.000005815
  11  :    0.000000000   -0.000008393    0.000005814
  12  :    0.000000024    0.000007322    0.000003279
  13  :    0.000000023   -0.000007323    0.000003279
  14  :   -0.000000023   -0.000007323    0.000003279
  15  :   -0.000000024    0.000007322    0.000003279

  |G| =    0.000086865

Starting D4


------------------- 
Dispersion Gradient 
------------------- 
   1  :    0.000000003    0.000012139    0.000007201
   2  :   -0.000000001   -0.000012139    0.000007201
   3  :   -0.000000001    0.000008574   -0.000004713
   4  :    0.000000008   -0.000008574   -0.000004713
   5  :    0.000000002    0.000000000    0.000016100
   6  :   -0.000000002    0.000036813   -0.000041057
   7  :    0.000000002   -0.000036813   -0.000041057
   8  :   -0.000000002    0.000044901    0.000018152
   9  :    0.000000002   -0.000044901    0.000018152
  10  :   -0.000000002    0.000008393    0.000005813
  11  :   -0.000000002   -0.000008393    0.000005813
  12  :    0.000000022    0.000007322    0.000003277
  13  :    0.000000022   -0.000007322    0.000003277
  14  :   -0.000000025   -0.000007323    0.000003277
  15  :   -0.000000026    0.000007322    0.000003277

  |G| =    0.000086832

Starting D4


------------------- 
Dispersion Gradient 
------------------- 
   1  :   -0.000000003    0.000012139    0.000007201
   2  :    0.000000001   -0.000012139    0.000007201
   3  :    0.000000001    0.000008574   -0.000004713
   4  :   -0.000000008   -0.000008574   -0.000004713
   5  :   -0.000000002    0.000000000    0.000016100
   6  :    0.000000002    0.000036813   -0.000041057
   7  :   -0.000000002   -0.000036813   -0.000041057
   8  :    0.000000002    0.000044901    0.000018152
   9  :   -0.000000002   -0.000044901    0.000018152
  10  :    0.000000002    0.000008393    0.000005813
  11  :    0.000000002   -0.000008393    0.000005813
  12  :    0.000000026    0.000007322    0.000003277
  13  :    0.000000025   -0.000007323    0.000003277
  14  :   -0.000000022   -0.000007322    0.000003277
  15  :   -0.000000022    0.000007323    0.000003277

  |G| =    0.000086832

Starting D4


------------------- 
Dispersion Gradient 
------------------- 
   1  :   -0.000000000    0.000012081    0.000007150
   2  :   -0.000000000   -0.000012144    0.000007200
   3  :    0.000000000    0.000008572   -0.000004703
   4  :    0.000000000   -0.000008467   -0.000004616
   5  :    0.000000000   -0.000000012    0.000016043
[...]
      0      -0.000000   0.000000  -0.000001   0.011714   0.011827  -0.000000
      1       0.049773  -0.046231   0.382657   0.000002   0.000001  -0.115615
      2       0.005412   0.032150   0.157517   0.000001   0.000000  -0.092160
      3       0.000000   0.000000   0.000000  -0.011715   0.011826  -0.000000
      4       0.049768   0.046233  -0.382653  -0.000002  -0.000000  -0.115620
      5      -0.005413   0.032149   0.157514   0.000001   0.000000   0.092157
      6       0.000000  -0.000000   0.000000  -0.000658  -0.000544   0.000000
      7      -0.019819  -0.014746   0.061629   0.000000   0.000000   0.035241
      8      -0.002571  -0.019128  -0.213789  -0.000001  -0.000000   0.110560
      9       0.000000  -0.000000  -0.000000   0.000658  -0.000544  -0.000000
     10      -0.019820   0.014745  -0.061630  -0.000000  -0.000000   0.035238
     11       0.002571  -0.019127  -0.213783  -0.000001  -0.000000  -0.110560
     12      -0.000000  -0.000000   0.000000  -0.000000   0.000458  -0.000000
     13      -0.028127   0.000000  -0.000003  -0.000000  -0.000000   0.093229
     14       0.000002  -0.030805   0.079623   0.000000   0.000000   0.000002
     15       0.000000   0.000000   0.000000   0.000017  -0.000098   0.000000
     16       0.001310  -0.000775  -0.011817  -0.000000  -0.000000   0.001383
     17      -0.000406   0.000176   0.017105   0.000000   0.000000  -0.004980
     18       0.000000  -0.000000  -0.000000  -0.000017  -0.000098   0.000000
     19       0.001310   0.000775   0.011816   0.000000   0.000000   0.001383
     20       0.000406   0.000176   0.017105   0.000000   0.000000   0.004981
     21      -0.000001   0.000001  -0.000002   0.034018   0.033979   0.000000
     22      -0.104615   0.103476  -0.114269  -0.000001  -0.000001   0.057039
     23      -0.043582   0.034365  -0.042624  -0.000001  -0.000001  -0.005264
     24      -0.000000  -0.000000   0.000001  -0.034021   0.033976  -0.000000
     25      -0.104609  -0.103481   0.114272   0.000001   0.000000   0.057039
     26       0.043581   0.034368  -0.042626  -0.000000  -0.000000   0.005262
     27       0.000005  -0.000006   0.000023  -0.502144  -0.502007  -0.000001
     28       0.486015  -0.493472  -0.249760   0.000002   0.000003   0.331688
     29      -0.043939   0.035876  -0.044754  -0.000001  -0.000001  -0.002307
     30       0.000001   0.000001  -0.000014   0.502194  -0.501957   0.000001
     31       0.485993   0.493498   0.249735   0.000000   0.000000   0.331672
     32       0.043937   0.035878  -0.044756  -0.000001   0.000000   0.002305
     33       0.050531  -0.077623  -0.085051  -0.029881  -0.030012  -0.252596
     34       0.213287  -0.232902  -0.290157   0.136900   0.136963  -0.214380
     35       0.273535  -0.243429  -0.082385   0.321901   0.322047   0.252492
     36      -0.050525  -0.077621  -0.085056   0.029882  -0.030008   0.252576
     37       0.213274   0.232910   0.290143   0.136916  -0.136949  -0.214356
     38      -0.273528  -0.243449  -0.082346  -0.321930   0.322012  -0.252479
     39       0.050524   0.077621   0.085054   0.029884  -0.030009  -0.252577
     40       0.213275   0.232910   0.290151  -0.136913   0.136949  -0.214356
     41      -0.273528  -0.243449  -0.082364   0.321931  -0.322013  -0.252477
     42      -0.050530   0.077622   0.085053  -0.029879  -0.030010   0.252595
     43       0.213286  -0.232902  -0.290144  -0.136901  -0.136962  -0.214378
     44       0.273539  -0.243434  -0.082355  -0.321896  -0.322041   0.252491
                 36         37         38         39         40         41    
      0       0.000000   0.000000  -0.000000  -0.000000   0.000000   0.000350
      1      -0.007608  -0.135427  -0.121632  -0.000127  -0.000234   0.000000
      2       0.060921   0.003593   0.026216   0.000075   0.000339  -0.000000
      3       0.000000  -0.000000   0.000000  -0.000000  -0.000000  -0.000390
      4       0.007605  -0.135428   0.121633  -0.000126   0.000235  -0.000000
      5       0.060923  -0.003590   0.026215  -0.000073   0.000340   0.000000
      6      -0.000000   0.000000   0.000000  -0.000000   0.000000   0.000212
      7      -0.016931   0.034074   0.670961  -0.000207  -0.000060   0.000000
      8      -0.023561   0.046655  -0.057231   0.000698  -0.000817   0.000000
      9       0.000000   0.000000  -0.000000   0.000000  -0.000000  -0.000221
     10       0.016932   0.034074  -0.670961  -0.000207   0.000061  -0.000000
     11      -0.023563  -0.046656  -0.057230  -0.000703  -0.000814   0.000000
     12      -0.000000   0.000000  -0.000000   0.000000  -0.000000   0.000013
     13       0.000001   0.139721  -0.000000   0.001489  -0.000004   0.000000
     14      -0.049660  -0.000002  -0.023284   0.000001   0.000506  -0.000000
     15      -0.000000  -0.000000  -0.000000   0.000000   0.000000   0.000004
     16      -0.000194  -0.000639  -0.024601   0.000041  -0.000084   0.000000
     17      -0.000225  -0.002500   0.020037  -0.000020   0.000057  -0.000000
     18       0.000000  -0.000000   0.000000  -0.000000  -0.000000  -0.000004
     19       0.000194  -0.000639   0.024600   0.000041   0.000083  -0.000000
     20      -0.000225   0.002500   0.020037   0.000021   0.000057  -0.000000
     21      -0.000000  -0.000000   0.000000   0.000003  -0.000003  -0.063388
     22      -0.035511  -0.006387   0.024417  -0.035146   0.035404  -0.000001
     23       0.008296   0.013111  -0.021369  -0.000895   0.001014  -0.000003
     24       0.000000   0.000000  -0.000000   0.000001   0.000001   0.071291
     25       0.035514  -0.006386  -0.024418  -0.035339  -0.035212   0.000000
     26       0.008296  -0.013111  -0.021369   0.000900   0.001008  -0.000001
     27      -0.000001  -0.000002  -0.000000   0.000000  -0.000000  -0.007596
     28      -0.205852  -0.046733  -0.091268   0.000180  -0.000131   0.000000
     29       0.004200   0.009283  -0.024722   0.308673  -0.310568   0.000046
     30       0.000001  -0.000000   0.000000  -0.000000  -0.000000   0.008551
     31       0.205864  -0.046726   0.091268   0.000181   0.000130  -0.000000
     32       0.004200  -0.009284  -0.024722  -0.310356  -0.308874   0.000014
     33       0.282570   0.264949   0.022577  -0.368494   0.370302   0.379568
     34       0.334725   0.394376   0.095611   0.206278  -0.207689  -0.219628
     35      -0.182534  -0.085463   0.015492  -0.148527   0.149237   0.162533
     36       0.282584  -0.264944   0.022577   0.370486   0.368266  -0.426881
     37      -0.334738   0.394369  -0.095611   0.207395   0.206548  -0.247003
     38      -0.182546   0.085462   0.015493   0.149328   0.148415  -0.182798
     39      -0.282584   0.264944  -0.022577  -0.370496  -0.368275  -0.426876
     40      -0.334739   0.394369  -0.095612   0.207401   0.206554   0.247000
     41      -0.182545   0.085461   0.015493   0.149333   0.148420   0.182797
     42      -0.282569  -0.264948  -0.022577   0.368458  -0.370265   0.379584
     43       0.334721   0.394372   0.095611   0.206257  -0.207667   0.219636
     44      -0.182536  -0.085466   0.015492  -0.148510   0.149221  -0.162540
                 42         43         44    
      0      -0.000371   0.000000  -0.000000
      1      -0.000000  -0.000198   0.000215
      2       0.000000  -0.000165  -0.000278
      3      -0.000327  -0.000000  -0.000000
      4       0.000000   0.000199   0.000214
      5      -0.000000  -0.000164   0.000279
      6      -0.000088   0.000000  -0.000000
      7      -0.000000  -0.000408   0.000455
      8      -0.000000   0.000048  -0.000005
      9      -0.000063  -0.000000   0.000000
     10       0.000000   0.000410   0.000453
     11       0.000000   0.000048   0.000004
     12       0.000226  -0.000000   0.000000
     13      -0.000000   0.000000   0.000081
     14       0.000000   0.000189  -0.000000
     15       0.000001  -0.000000  -0.000000
     16      -0.000000   0.000031  -0.000021
     17       0.000000  -0.000035   0.000008
     18       0.000001  -0.000000   0.000000
     19       0.000000  -0.000031  -0.000020
     20      -0.000000  -0.000035  -0.000008
     21       0.071312  -0.000004   0.000004
     22       0.000001  -0.015607   0.015625
     23       0.000004   0.064843  -0.065049
     24       0.063412   0.000001   0.000001
     25       0.000000   0.015661   0.015570
     26      -0.000001   0.065070   0.064822
     27       0.008615   0.000000  -0.000000
     28      -0.000000  -0.000077   0.000054
     29      -0.000052  -0.635063   0.637421
     30       0.007668  -0.000000  -0.000000
     31      -0.000000   0.000076   0.000053
     32       0.000013  -0.637286  -0.635206
     33      -0.426859  -0.176765   0.177187
     34       0.246984   0.096888  -0.097187
     35      -0.182835  -0.067873   0.068037
     36      -0.379564  -0.177406  -0.176594
     37      -0.219618  -0.097240  -0.096862
     38      -0.162581  -0.068120  -0.067810
     39      -0.379559   0.177394   0.176582
     40       0.219615  -0.097234  -0.096856
     41       0.162580  -0.068115  -0.067805
     42      -0.426877   0.176808  -0.177231
     43      -0.246994   0.096913  -0.097212
     44       0.182842  -0.067891   0.068055


-----------
IR SPECTRUM
-----------

 Mode   freq       eps      Int      T**2         TX        TY        TZ
       cm**-1   L/(mol*cm) km/mol    a.u.
----------------------------------------------------------------------------
  6:     92.11   0.000000    0.00  0.000000  (-0.000116  0.000000 -0.000000)
  7:     93.66   0.000184    0.93  0.000612  (-0.024742  0.000000 -0.000000)
  8:    119.67   0.000000    0.00  0.000000  (-0.000006 -0.000000  0.000000)
  9:    168.61   0.000076    0.39  0.000141  (-0.000000 -0.000000  0.011876)
 10:    171.72   0.001119    5.65  0.002033  (-0.045092 -0.000000  0.000000)
 11:    236.17   0.000027    0.13  0.000035  ( 0.000000 -0.005937 -0.000000)
 12:    266.70   0.000991    5.01  0.001160  ( 0.034053 -0.000000 -0.000000)
 13:    285.67   0.001067    5.39  0.001166  (-0.000000 -0.000000 -0.034143)
 14:    325.02   0.000000    0.00  0.000000  ( 0.000000  0.000000  0.000000)
 15:    440.49   0.001257    6.35  0.000891  ( 0.000000  0.029847  0.000000)
 16:    543.89   0.000894    4.52  0.000513  ( 0.000000  0.000000 -0.022642)
 17:    576.30   0.001791    9.05  0.000970  (-0.000000  0.031141  0.000000)
 18:    630.05   0.000440    2.23  0.000218  (-0.014768  0.000000  0.000000)
 19:    652.75   0.000910    4.60  0.000435  ( 0.000000 -0.000000 -0.020859)
 20:    665.84   0.000000    0.00  0.000000  (-0.000000  0.000000 -0.000000)
 21:    893.14   0.000284    1.43  0.000099  (-0.000000  0.009960 -0.000000)
 22:   1078.67   0.000266    1.35  0.000077  (-0.000000 -0.000000  0.008780)
 23:   1088.66   0.000004    0.02  0.000001  ( 0.000000  0.001057  0.000000)
 24:   1114.48   0.007482   37.81  0.002095  (-0.000000  0.000000  0.045773)
 25:   1146.17   0.000000    0.00  0.000000  ( 0.000223 -0.000000 -0.000000)
 26:   1147.81   0.000000    0.00  0.000000  (-0.000000 -0.000000 -0.000000)
 27:   1182.39   0.011314   57.17  0.002986  (-0.000000  0.054644  0.000000)
 28:   1383.04   0.002430   12.28  0.000548  (-0.000000 -0.023414 -0.000001)
 29:   1397.34   0.000556    2.81  0.000124  ( 0.000000  0.000001 -0.011144)
 30:   1423.31   0.003726   18.83  0.000817  ( 0.000000 -0.028584 -0.000000)
 31:   1432.95   0.000640    3.24  0.000139  (-0.000000 -0.000000 -0.011809)
 32:   1465.01   0.006066   30.65  0.001292  ( 0.000000 -0.000000 -0.035946)
 33:   1465.79   0.000000    0.00  0.000000  ( 0.000002 -0.000000 -0.000000)
 34:   1466.62   0.004997   25.26  0.001063  (-0.032609 -0.000000 -0.000000)
 35:   1482.60   0.010733   54.24  0.002259  (-0.000000  0.047531  0.000001)
 36:   1490.00   0.009027   45.62  0.001891  (-0.000000  0.000001 -0.043481)
 37:   1494.00   0.004759   24.05  0.000994  (-0.000000  0.031529 -0.000001)
 38:   1701.60   0.003239   16.37  0.000594  (-0.000000 -0.000000 -0.024374)
 39:   3083.49   0.011768   59.47  0.001191  ( 0.000001 -0.034510  0.000011)
 40:   3084.05   0.000148    0.75  0.000015  (-0.000000  0.000094  0.003875)
 41:   3182.70   0.000013    0.06  0.000001  ( 0.001119 -0.000000 -0.000000)
 42:   3182.74   0.003711   18.75  0.000364  ( 0.019075  0.000001  0.000000)
 43:   3226.18   0.000087    0.44  0.000008  (-0.000000  0.000004  0.002900)
 44:   3226.37   0.000061    0.31  0.000006  ( 0.000001  0.002432 -0.000005)

* The epsilon (eps) is given for a Dirac delta lineshape.
** The dipole moment derivative (T) already includes vibrational overlap.

The first frequency considered to be a vibration is 6
The total number of vibrations considered is 39


--------------------------
THERMOCHEMISTRY AT 298.15K
--------------------------

Temperature         ... 298.15 K
Pressure            ... 1.00 atm
Total Mass          ... 165.02 AMU

Throughout the following assumptions are being made:
  (1) The electronic state is orbitally nondegenerate
  (2) There are no thermally accessible electronically excited states
  (3) Hindered rotations indicated by low frequency modes are not
      treated as such but are treated as vibrations and this may
      cause some error
  (4) All equations used are the standard statistical mechanics
      equations for an ideal gas
  (5) All vibrations are strictly harmonic

freq.      92.11  E(vib)   ...       0.47 
freq.      93.66  E(vib)   ...       0.47 
freq.     119.67  E(vib)   ...       0.44 
freq.     168.61  E(vib)   ...       0.38 
freq.     171.72  E(vib)   ...       0.38 
freq.     236.17  E(vib)   ...       0.32 
freq.     266.70  E(vib)   ...       0.29 
freq.     285.67  E(vib)   ...       0.28 
freq.     325.02  E(vib)   ...       0.24 
freq.     440.49  E(vib)   ...       0.17 
freq.     543.89  E(vib)   ...       0.12 
freq.     576.30  E(vib)   ...       0.11 
freq.     630.05  E(vib)   ...       0.09 
freq.     652.75  E(vib)   ...       0.08 
freq.     665.84  E(vib)   ...       0.08 
freq.     893.14  E(vib)   ...       0.03 
freq.    1078.67  E(vib)   ...       0.02 
freq.    1088.66  E(vib)   ...       0.02 
freq.    1114.48  E(vib)   ...       0.01 
freq.    1146.17  E(vib)   ...       0.01 
freq.    1147.81  E(vib)   ...       0.01 
freq.    1182.39  E(vib)   ...       0.01 
freq.    1383.04  E(vib)   ...       0.01 
freq.    1397.34  E(vib)   ...       0.00 
freq.    1423.31  E(vib)   ...       0.00 
freq.    1432.95  E(vib)   ...       0.00 
freq.    1465.01  E(vib)   ...       0.00 
freq.    1465.79  E(vib)   ...       0.00 
freq.    1466.62  E(vib)   ...       0.00 
freq.    1482.60  E(vib)   ...       0.00 
freq.    1490.00  E(vib)   ...       0.00 
freq.    1494.00  E(vib)   ...       0.00 
freq.    1701.60  E(vib)   ...       0.00 
freq.    3083.49  E(vib)   ...       0.00 
freq.    3084.05  E(vib)   ...       0.00 
freq.    3182.70  E(vib)   ...       0.00 
freq.    3182.74  E(vib)   ...       0.00 
freq.    3226.18  E(vib)   ...       0.00 
freq.    3226.37  E(vib)   ...       0.00 

------------
INNER ENERGY
------------

The inner energy is: U= E(el) + E(ZPE) + E(vib) + E(rot) + E(trans)
    E(el)   - is the total energy from the electronic structure calculation
              = E(kin-el) + E(nuc-el) + E(el-el) + E(nuc-nuc)
    E(ZPE)  - the the zero temperature vibrational energy from the frequency calculation
    E(vib)  - the the finite temperature correction to E(ZPE) due to population
              of excited vibrational states
    E(rot)  - is the rotational thermal energy
    E(trans)- is the translational thermal energy

Summary of contributions to the inner energy U:
Electronic energy                ...  -1223.40615638 Eh
Zero point energy                ...      0.10959756 Eh      68.77 kcal/mol
Thermal vibrational correction   ...      0.00650888 Eh       4.08 kcal/mol
Thermal rotational correction    ...      0.00141627 Eh       0.89 kcal/mol
Thermal translational correction ...      0.00141627 Eh       0.89 kcal/mol
-----------------------------------------------------------------------
Total thermal energy                  -1223.28721739 Eh


Summary of corrections to the electronic energy:
(perhaps to be used in another calculation)
Total thermal correction                  0.00934142 Eh       5.86 kcal/mol
Non-thermal (ZPE) correction              0.10959756 Eh      68.77 kcal/mol
-----------------------------------------------------------------------
Total correction                          0.11893899 Eh      74.64 kcal/mol


--------
ENTHALPY
--------

The enthalpy is H = U + kB*T
                kB is Boltzmann's constant
Total free energy                 ...  -1223.28721739 Eh 
Thermal Enthalpy correction       ...      0.00094421 Eh       0.59 kcal/mol
-----------------------------------------------------------------------
Total Enthalpy                    ...  -1223.28627319 Eh


Note: Rotational entropy computed according to Herzberg 
Infrared and Raman Spectra, Chapter V,1, Van Nostrand Reinhold, 1945 
Point Group:  C2v, Symmetry Number:   2  
Rotational constants in cm-1:     0.051589     0.036741     0.021637 

Vibrational entropy computed according to the QRRHO of S. Grimme
Chem.Eur.J. 2012 18 9955


-------
ENTROPY
-------

The entropy contributions are T*S = T*(S(el)+S(vib)+S(rot)+S(trans))
     S(el)   - electronic entropy
     S(vib)  - vibrational entropy
     S(rot)  - rotational entropy
     S(trans)- translational entropy
The entropies will be listed as multiplied by the temperature to get
units of energy

Electronic entropy                ...      0.00000000 Eh      0.00 kcal/mol
Vibrational entropy               ...      0.01146095 Eh      7.19 kcal/mol
Rotational entropy                ...      0.01362526 Eh      8.55 kcal/mol
Translational entropy             ...      0.01958067 Eh     12.29 kcal/mol
-----------------------------------------------------------------------
Final entropy term                ...      0.04466688 Eh     28.03 kcal/mol

In case the symmetry of your molecule has not been determined correctly
or in case you have a reason to use a different symmetry number we print 
out the resulting rotational entropy values for sn=1,12 :
 --------------------------------------------------------
|  sn= 1 | S(rot)=       0.01427971 Eh      8.96 kcal/mol|
|  sn= 2 | S(rot)=       0.01362526 Eh      8.55 kcal/mol|
|  sn= 3 | S(rot)=       0.01324242 Eh      8.31 kcal/mol|
|  sn= 4 | S(rot)=       0.01297080 Eh      8.14 kcal/mol|
|  sn= 5 | S(rot)=       0.01276011 Eh      8.01 kcal/mol|
|  sn= 6 | S(rot)=       0.01258797 Eh      7.90 kcal/mol|
|  sn= 7 | S(rot)=       0.01244242 Eh      7.81 kcal/mol|
|  sn= 8 | S(rot)=       0.01231634 Eh      7.73 kcal/mol|
|  sn= 9 | S(rot)=       0.01220513 Eh      7.66 kcal/mol|
|  sn=10 | S(rot)=       0.01210565 Eh      7.60 kcal/mol|
|  sn=11 | S(rot)=       0.01201566 Eh      7.54 kcal/mol|
|  sn=12 | S(rot)=       0.01193351 Eh      7.49 kcal/mol|
 --------------------------------------------------------


-------------------
GIBBS FREE ENERGY
-------------------

The Gibbs free energy is G = H - T*S

Total enthalpy                    ...  -1223.28627319 Eh 
Total entropy correction          ...     -0.04466688 Eh    -28.03 kcal/mol
-----------------------------------------------------------------------
Final Gibbs free energy         ...  -1223.33094007 Eh

For completeness - the Gibbs free energy minus the electronic energy
G-E(el)                           ...      0.07521631 Eh     47.20 kcal/mol


Timings for individual modules:

Sum of individual times         ...      618.812 sec (=  10.314 min)
GTO integral calculation        ...        0.265 sec (=   0.004 min)   0.0 %
SCF iterations                  ...      164.885 sec (=   2.748 min)  26.6 %
Analytical frequency calculation...      453.662 sec (=   7.561 min)  73.3 %
                             ****ORCA TERMINATED NORMALLY****
TOTAL RUN TIME: 0 days 0 hours 10 minutes 19 seconds 113 msec
