
                                 *****************
                                 * O   R   C   A *
                                 *****************

                                            #,                                       
                                            ###                                      
                                            ####                                     
                                            #####                                    
                                            ######                                   
                                           ########,                                 
                                     ,,################,,,,,                         
                               ,,#################################,,                 
                          ,,##########################################,,             
                       ,#########################################, ''#####,          
                    ,#############################################,,   '####,        
                  ,##################################################,,,,####,       
                ,###########''''           ''''###############################       
              ,#####''   ,,,,##########,,,,          '''####'''          '####       
            ,##' ,,,,###########################,,,                        '##       
           ' ,,###''''                  '''############,,,                           
         ,,##''                                '''############,,,,        ,,,,,,###''
      ,#''                                            '''#######################'''  
     '                                                          ''''####''''         
             ,#######,   #######,   ,#######,      ##                                
            ,#'     '#,  ##    ##  ,#'     '#,    #''#        ######   ,####,        
            ##       ##  ##   ,#'  ##            #'  '#       #        #'  '#        
            ##       ##  #######   ##           ,######,      #####,   #    #        
            '#,     ,#'  ##    ##  '#,     ,#' ,#      #,         ##   #,  ,#        
             '#######'   ##     ##  '#######'  #'      '#     #####' # '####'        



                  #######################################################
                  #                        -***-                        #
                  #          Department of theory and spectroscopy      #
                  #    Directorship and core code : Frank Neese         #
                  #        Max Planck Institute fuer Kohlenforschung    #
                  #                Kaiser Wilhelm Platz 1               #
                  #                 D-45470 Muelheim/Ruhr               #
                  #                      Germany                        #
                  #                                                     #
                  #                  All rights reserved                #
                  #                        -***-                        #
                  #######################################################


                         Program Version 5.0.4 -  RELEASE  -


 With contributions from (in alphabetic order):
   Daniel Aravena         : Magnetic Suceptibility
   Michael Atanasov       : Ab Initio Ligand Field Theory (pilot matlab implementation)
   Alexander A. Auer      : GIAO ZORA, VPT2 properties, NMR spectrum
   Ute Becker             : Parallelization
   Giovanni Bistoni       : ED, misc. LED, open-shell LED, HFLD
   Martin Brehm           : Molecular dynamics
   Dmytro Bykov           : SCF Hessian
   Vijay G. Chilkuri      : MRCI spin determinant printing, contributions to CSF-ICE
   Dipayan Datta          : RHF DLPNO-CCSD density
   Achintya Kumar Dutta   : EOM-CC, STEOM-CC
   Dmitry Ganyushin       : Spin-Orbit,Spin-Spin,Magnetic field MRCI
   Miquel Garcia          : C-PCM and meta-GGA Hessian, CC/C-PCM, Gaussian charge scheme
   Yang Guo               : DLPNO-NEVPT2, F12-NEVPT2, CIM, IAO-localization
   Andreas Hansen         : Spin unrestricted coupled pair/coupled cluster methods
   Benjamin Helmich-Paris : MC-RPA, TRAH-SCF, COSX integrals
   Lee Huntington         : MR-EOM, pCC
   Robert Izsak           : Overlap fitted RIJCOSX, COSX-SCS-MP3, EOM
   Marcus Kettner         : VPT2
   Christian Kollmar      : KDIIS, OOCD, Brueckner-CCSD(T), CCSD density, CASPT2, CASPT2-K
   Simone Kossmann        : Meta GGA functionals, TD-DFT gradient, OOMP2, MP2 Hessian
   Martin Krupicka        : Initial AUTO-CI
   Lucas Lang             : DCDCAS
   Marvin Lechner         : AUTO-CI (C++ implementation), FIC-MRCC
   Dagmar Lenk            : GEPOL surface, SMD
   Dimitrios Liakos       : Extrapolation schemes; Compound Job, initial MDCI parallelization
   Dimitrios Manganas     : Further ROCIS development; embedding schemes
   Dimitrios Pantazis     : SARC Basis sets
   Anastasios Papadopoulos: AUTO-CI, single reference methods and gradients
   Taras Petrenko         : DFT Hessian,TD-DFT gradient, ASA, ECA, R-Raman, ABS, FL, XAS/XES, NRVS
   Peter Pinski           : DLPNO-MP2, DLPNO-MP2 Gradient
   Christoph Reimann      : Effective Core Potentials
   Marius Retegan         : Local ZFS, SOC
   Christoph Riplinger    : Optimizer, TS searches, QM/MM, DLPNO-CCSD(T), (RO)-DLPNO pert. Triples
   Tobias Risthaus        : Range-separated hybrids, TD-DFT gradient, RPA, STAB
   Michael Roemelt        : Original ROCIS implementation
   Masaaki Saitow         : Open-shell DLPNO-CCSD energy and density
   Barbara Sandhoefer     : DKH picture change effects
   Avijit Sen             : IP-ROCIS
   Kantharuban Sivalingam : CASSCF convergence, NEVPT2, FIC-MRCI
   Bernardo de Souza      : ESD, SOC TD-DFT
   Georgi Stoychev        : AutoAux, RI-MP2 NMR, DLPNO-MP2 response
   Willem Van den Heuvel  : Paramagnetic NMR
   Boris Wezisla          : Elementary symmetry handling
   Frank Wennmohs         : Technical directorship


 We gratefully acknowledge several colleagues who have allowed us to
 interface, adapt or use parts of their codes:
   Stefan Grimme, W. Hujo, H. Kruse, P. Pracht,  : VdW corrections, initial TS optimization,
                  C. Bannwarth, S. Ehlert          DFT functionals, gCP, sTDA/sTD-DF
   Ed Valeev, F. Pavosevic, A. Kumar             : LibInt (2-el integral package), F12 methods
   Garnet Chan, S. Sharma, J. Yang, R. Olivares  : DMRG
   Ulf Ekstrom                                   : XCFun DFT Library
   Mihaly Kallay                                 : mrcc  (arbitrary order and MRCC methods)
   Jiri Pittner, Ondrej Demel                    : Mk-CCSD
   Frank Weinhold                                : gennbo (NPA and NBO analysis)
   Christopher J. Cramer and Donald G. Truhlar   : smd solvation model
   Lars Goerigk                                  : TD-DFT with DH, B97 family of functionals
   V. Asgeirsson, H. Jonsson                     : NEB implementation
   FAccTs GmbH                                   : IRC, NEB, NEB-TS, DLPNO-Multilevel, CI-OPT
                                                   MM, QMMM, 2- and 3-layer-ONIOM, Crystal-QMMM,
                                                   LR-CPCM, SF, NACMEs, symmetry and pop. for TD-DFT,
                                                   nearIR, NL-DFT gradient (VV10), updates on ESD,
                                                   ML-optimized integration grids
   S Lehtola, MJT Oliveira, MAL Marques          : LibXC Library
   Liviu Ungur et al                             : ANISO software


 Your calculation uses the libint2 library for the computation of 2-el integrals
 For citations please refer to: http://libint.valeyev.net

 Your ORCA version has been built with support for libXC version: 5.1.0
 For citations please refer to: https://tddft.org/programs/libxc/

 This ORCA versions uses:
   CBLAS   interface :  Fast vector & matrix operations
   LAPACKE interface :  Fast linear algebra routines
   SCALAPACK package :  Parallel linear algebra routines
   Shared memory     :  Shared parallel matrices
   BLAS/LAPACK       :  OpenBLAS 0.3.15  USE64BITINT DYNAMIC_ARCH NO_AFFINITY SkylakeX SINGLE_THREADED
        Core in use  :  SkylakeX
   Copyright (c) 2011-2014, The OpenBLAS Project




***************************************
The coordinates will be read from file: 4+.xyz
***************************************


Your calculation utilizes the atom-pairwise dispersion correction
based on tight binding partial charges (D4)
Cite in your paper:
E.Caldeweyher, C.Bannwarth, S.Grimme, J.Chem.Phys., (2017), 147, 034112.
E.Caldeweyher, S.Ehlert, A.Hansen, H.Neugebauer, S.Grimme, J.Chem.Phys., (2018), in progress.
   

XCFun DFT library Copyright 2009-2010 Ulf Ekstrom and contributors.
See http://admol.org/xcfun for more information.
This is free software; see the source code for copying conditions.
There is ABSOLUTELY NO WARRANTY; not even for MERCHANTABILITY or FITNESS FOR A PARTICULAR PURPOSE.
For details see the documentation.
Scientific users of this library should cite U. Ekstrom, L. Visscher, R. Bast, A. J. Thorvaldsen and K. Ruud;
J.Chem.Theor.Comp. 2010, DOI: 10.1021/ct100117s
XCFun Version 0.99 

================================================================================

----- Orbital basis set information -----
Your calculation utilizes the basis: def2-SVP
   F. Weigend and R. Ahlrichs, Phys. Chem. Chem. Phys. 7, 3297 (2005).

----- AuxJ basis set information -----
Your calculation utilizes the auxiliary basis: def2/J
   F. Weigend, Phys. Chem. Chem. Phys. 8, 1057 (2006).

================================================================================
                                        WARNINGS
                       Please study these warnings very carefully!
================================================================================


INFO   : the flag for use of the SHARK integral package has been found!

================================================================================
                                       INPUT FILE
================================================================================
NAME = 4+.inp
|  1> # ORCA 5.0.4 - 4+.inp # write input file
|  2> # Basic Mode
|  3> #
|  4> ! Freq wB97X Def2-SVP D4 SlowConv TightSCF DEFGRID2 Def2/J RIJCOSX 
|  5> 
|  6> 
|  7> 
|  8> %maxcore 4500
|  9> 
| 10> %geom
| 11> Maxiter 150
| 12> END
| 13> 
| 14> * xyzfile 1 1 4+.xyz
| 15> 
| 16>                          ****END OF INPUT****
================================================================================

                       ****************************
                       * Single Point Calculation *
                       ****************************

---------------------------------
CARTESIAN COORDINATES (ANGSTROEM)
---------------------------------
  C      1.253015   -0.198578   -0.585770
  C      0.269589   -1.119170   -0.781927
  N      0.702982    0.827807    0.151649
  N     -0.862504   -0.638381   -0.159720
  C     -0.572018    0.535621    0.393942
  H      2.292199   -0.192804   -0.909670
  H      0.284097   -2.070071   -1.311411
  C      1.397421    2.057505    0.590973
  C     -2.182254   -1.303648   -0.111854
  H      0.648379    2.604577    1.183378
  H     -2.809513   -0.634603    0.496329
  H     -1.266152    1.158273    0.958979
  C      1.789779    2.892797   -0.620012
  C     -2.766027   -1.403662   -1.514155
  C     -2.060971   -2.651218    0.585411
  C      2.579443    1.700527    1.480403
  H      2.531700    2.364613   -1.239448
  H     -2.151791   -2.058529   -2.152297
  H     -1.437007   -3.345042    0.000281
  H      3.352229    1.157191    0.914254
  H      0.911950    3.128522   -1.239436
  H     -2.835882   -0.412214   -1.985058
  H     -1.624407   -2.540117    1.588840
  H      2.262385    1.082681    2.333275
  H      2.239303    3.836543   -0.279102
  H     -3.776055   -1.834253   -1.456753
  H     -3.060628   -3.097552    0.686977
  H      3.030507    2.624924    1.868701

----------------------------
CARTESIAN COORDINATES (A.U.)
----------------------------
  NO LB      ZA    FRAG     MASS         X           Y           Z
   0 C     6.0000    0    12.011    2.367855   -0.375258   -1.106945
   1 C     6.0000    0    12.011    0.509449   -2.114925   -1.477628
   2 N     7.0000    0    14.007    1.328443    1.564329    0.286575
   3 N     7.0000    0    14.007   -1.629896   -1.206365   -0.301827
   4 C     6.0000    0    12.011   -1.080957    1.012177    0.744442
   5 H     1.0000    0     1.008    4.331628   -0.364347   -1.719027
   6 H     1.0000    0     1.008    0.536866   -3.911867   -2.478208
   7 C     6.0000    0    12.011    2.640743    3.888121    1.116777
   8 C     6.0000    0    12.011   -4.123862   -2.463538   -0.211373
   9 H     1.0000    0     1.008    1.225259    4.921937    2.236260
  10 H     1.0000    0     1.008   -5.309210   -1.199226    0.937926
  11 H     1.0000    0     1.008   -2.392681    2.188819    1.812208
  12 C     6.0000    0    12.011    3.382192    5.466594   -1.171653
  13 C     6.0000    0    12.011   -5.227034   -2.652537   -2.861338
  14 C     6.0000    0    12.011   -3.894671   -5.010076    1.106266
  15 C     6.0000    0    12.011    4.874441    3.213530    2.797556
  16 H     1.0000    0     1.008    4.784220    4.468471   -2.342217
  17 H     1.0000    0     1.008   -4.066296   -3.890056   -4.067252
  18 H     1.0000    0     1.008   -2.715550   -6.321213    0.000531
  19 H     1.0000    0     1.008    6.334795    2.186774    1.727690
  20 H     1.0000    0     1.008    1.723336    5.912050   -2.342195
  21 H     1.0000    0     1.008   -5.359040   -0.778972   -3.751216
  22 H     1.0000    0     1.008   -3.069684   -4.800125    3.002472
  23 H     1.0000    0     1.008    4.275288    2.045971    4.409251
  24 H     1.0000    0     1.008    4.231669    7.250016   -0.527426
  25 H     1.0000    0     1.008   -7.135710   -3.466236   -2.752864
  26 H     1.0000    0     1.008   -5.783749   -5.853525    1.298198
  27 H     1.0000    0     1.008    5.726828    4.960387    3.531333

--------------------------------
INTERNAL COORDINATES (ANGSTROEM)
--------------------------------
 C      0   0   0     0.000000000000     0.00000000     0.00000000
 C      1   0   0     1.361283914762     0.00000000     0.00000000
 N      1   2   0     1.378328426347   107.00124577     0.00000000
 N      2   1   3     1.378380997409   107.00230060   359.95277398
 C      4   2   1     1.330114439604   108.44512980     0.03220274
 H      1   2   3     1.088507204814   130.57173267   179.98123668
 H      2   1   3     1.088474391119   130.63664704   179.86698768
 C      3   1   2     1.478988936031   126.20613854   180.72079591
 C      4   2   1     1.478719512871   126.20744837   179.88867287
 H      8   3   1     1.100588649302   104.69164735   182.26163398
 H      9   4   2     1.100437016187   104.66062759   178.14295676
 H      5   4   2     1.090313869686   125.50184677   180.17839603
 C      8   3   1     1.522544644880   109.93071792    64.94935467
 C      9   4   2     1.522248931787   109.99912407   295.44829315
 C      9   4   2     1.522114631430   109.99982643    60.83506618
 C      8   3   1     1.521740788002   110.07727086   299.63396817
 H     13   8   3     1.101420022604   110.96594444   295.03342626
 H     14   9   4     1.101527059835   111.03213305    64.92581477
 H     15   9   4     1.101408159209   111.06843726   294.40779710
 H     16   8   3     1.101334145885   111.11921235    65.94632026
 H     13   8   3     1.099925506860   111.08927929    56.31543534
 H     14   9   4     1.099817481739   111.07297932   303.63639383
 H     15   9   4     1.099909685537   111.10677824    55.75538419
 H     16   8   3     1.099840944621   111.16756733   304.49631739
 H     13   8   3     1.099521699282   109.24693374   175.94954040
 H     14   9   4     1.099481768684   109.26447052   183.99329784
 H     15   9   4     1.099474333289   109.22452529   175.43557577
 H     16   8   3     1.099428889246   109.13956391   184.89914394

---------------------------
INTERNAL COORDINATES (A.U.)
---------------------------
 C      0   0   0     0.000000000000     0.00000000     0.00000000
 C      1   0   0     2.572453789412     0.00000000     0.00000000
 N      1   2   0     2.604663248394   107.00124577     0.00000000
 N      2   1   3     2.604762593305   107.00230060   359.95277398
 C      4   2   1     2.513552017626   108.44512980     0.03220274
 H      1   2   3     2.056980511899   130.57173267   179.98123668
 H      2   1   3     2.056918503001   130.63664704   179.86698768
 C      3   1   2     2.794884044197   126.20613854   180.72079591
 C      4   2   1     2.794374908211   126.20744837   179.88867287
 H      8   3   1     2.079811133284   104.69164735   182.26163398
 H      9   4   2     2.079524588223   104.66062759   178.14295676
 H      5   4   2     2.060394613722   125.50184677   180.17839603
 C      8   3   1     2.877192405492   109.93071792    64.94935467
 C      9   4   2     2.876633588731   109.99912407   295.44829315
 C      9   4   2     2.876379797838   109.99982643    60.83506618
 C      8   3   1     2.875673336141   110.07727086   299.63396817
 H     13   8   3     2.081382201139   110.96594444   295.03342626
 H     14   9   4     2.081584472192   111.03213305    64.92581477
 H     15   9   4     2.081359782571   111.06843726   294.40779710
 H     16   8   3     2.081219917659   111.11921235    65.94632026
 H     13   8   3     2.078557975681   111.08927929    56.31543534
 H     14   9   4     2.078353837785   111.07297932   303.63639383
 H     15   9   4     2.078528077712   111.10677824    55.75538419
 H     16   8   3     2.078398176206   111.16756733   304.49631739
 H     13   8   3     2.077794889947   109.24693374   175.94954040
 H     14   9   4     2.077719432053   109.26447052   183.99329784
 H     15   9   4     2.077705381192   109.22452529   175.43557577
 H     16   8   3     2.077619504396   109.13956391   184.89914394

---------------------
BASIS SET INFORMATION
---------------------
There are 3 groups of distinct atoms

 Group   1 Type C   : 7s4p1d contracted to 3s2p1d pattern {511/31/1}
 Group   2 Type N   : 7s4p1d contracted to 3s2p1d pattern {511/31/1}
 Group   3 Type H   : 4s1p contracted to 2s1p pattern {31/1}

Atom   0C    basis set group =>   1
Atom   1C    basis set group =>   1
Atom   2N    basis set group =>   2
Atom   3N    basis set group =>   2
Atom   4C    basis set group =>   1
Atom   5H    basis set group =>   3
Atom   6H    basis set group =>   3
Atom   7C    basis set group =>   1
Atom   8C    basis set group =>   1
Atom   9H    basis set group =>   3
Atom  10H    basis set group =>   3
Atom  11H    basis set group =>   3
Atom  12C    basis set group =>   1
Atom  13C    basis set group =>   1
Atom  14C    basis set group =>   1
Atom  15C    basis set group =>   1
Atom  16H    basis set group =>   3
Atom  17H    basis set group =>   3
Atom  18H    basis set group =>   3
Atom  19H    basis set group =>   3
Atom  20H    basis set group =>   3
Atom  21H    basis set group =>   3
Atom  22H    basis set group =>   3
Atom  23H    basis set group =>   3
Atom  24H    basis set group =>   3
Atom  25H    basis set group =>   3
Atom  26H    basis set group =>   3
Atom  27H    basis set group =>   3
---------------------------------
AUXILIARY/J BASIS SET INFORMATION
---------------------------------
There are 3 groups of distinct atoms

 Group   1 Type C   : 12s5p4d2f1g contracted to 6s4p3d1f1g pattern {711111/2111/211/2/1}
 Group   2 Type N   : 12s5p4d2f1g contracted to 6s4p3d1f1g pattern {711111/2111/211/2/1}
 Group   3 Type H   : 5s2p1d contracted to 3s1p1d pattern {311/2/1}

Atom   0C    basis set group =>   1
Atom   1C    basis set group =>   1
Atom   2N    basis set group =>   2
Atom   3N    basis set group =>   2
Atom   4C    basis set group =>   1
Atom   5H    basis set group =>   3
Atom   6H    basis set group =>   3
Atom   7C    basis set group =>   1
Atom   8C    basis set group =>   1
Atom   9H    basis set group =>   3
Atom  10H    basis set group =>   3
Atom  11H    basis set group =>   3
Atom  12C    basis set group =>   1
Atom  13C    basis set group =>   1
Atom  14C    basis set group =>   1
Atom  15C    basis set group =>   1
Atom  16H    basis set group =>   3
Atom  17H    basis set group =>   3
Atom  18H    basis set group =>   3
Atom  19H    basis set group =>   3
Atom  20H    basis set group =>   3
Atom  21H    basis set group =>   3
Atom  22H    basis set group =>   3
Atom  23H    basis set group =>   3
Atom  24H    basis set group =>   3
Atom  25H    basis set group =>   3
Atom  26H    basis set group =>   3
Atom  27H    basis set group =>   3
------------------------------------------------------------------------------
                           ORCA GTO INTEGRAL CALCULATION
                           -- RI-GTO INTEGRALS CHOSEN --
------------------------------------------------------------------------------
------------------------------------------------------------------------------
                   ___                                                        
                  /   \      - P O W E R E D   B Y -                         
                 /     \                                                     
                 |  |  |   _    _      __       _____    __    __             
                 |  |  |  | |  | |    /  \     |  _  \  |  |  /  |          
                  \  \/   | |  | |   /    \    | | | |  |  | /  /          
                 / \  \   | |__| |  /  /\  \   | |_| |  |  |/  /          
                |  |  |   |  __  | /  /__\  \  |    /   |      \           
                |  |  |   | |  | | |   __   |  |    \   |  |\   \          
                \     /   | |  | | |  |  |  |  | |\  \  |  | \   \       
                 \___/    |_|  |_| |__|  |__|  |_| \__\ |__|  \__/        
                                                                              
                      - O R C A' S   B I G   F R I E N D -                    
                                      &                                       
                       - I N T E G R A L  F E E D E R -                       
                                                                              
 v1 FN, 2020, v2 2021                                                         
------------------------------------------------------------------------------


Reading SHARK input file 4+.SHARKINP.tmp ... ok
----------------------
SHARK INTEGRAL PACKAGE
----------------------

Number of atoms                             ...     28
Number of basis functions                   ...    239
Number of shells                            ...    117
Maximum angular momentum                    ...      2
Integral batch strategy                     ... SHARK/LIBINT Hybrid
RI-J (if used) integral strategy            ... SPLIT-RIJ (Revised 2003 algorithm where possible)
Printlevel                                  ...      1
Contraction scheme used                     ... SEGMENTED contraction
Coulomb Range Separation                    ... NOT USED
Exchange Range Separation                   ... Long Range
   Mu parameter                             ...  0.300000
   Scaling (regular/separated)              ...  0.157706  0.842294
Finite Nucleus Model                        ... NOT USED
Auxiliary Coulomb fitting basis             ... AVAILABLE
   # of basis functions in Aux-J            ...    726
   # of shells in Aux-J                     ...    250
   Maximum angular momentum in Aux-J        ...      4
Auxiliary J/K fitting basis                 ... NOT available
Auxiliary Correlation fitting basis         ... NOT available
Auxiliary 'external' fitting basis          ... NOT available
Integral threshold                          ...     2.500000e-11
Primitive cut-off                           ...     2.500000e-12
Primitive pair pre-selection threshold      ...     2.500000e-12

Calculating pre-screening integrals         ... done (  0.1 sec) Dimension = 117
Organizing shell pair data                  ... done (  0.0 sec)
Shell pair information
Total number of shell pairs                 ...      6903
Shell pairs after pre-screening             ...      6004
Total number of primitive shell pairs       ...     23847
Primitive shell pairs kept                  ...     14747
          la=0 lb=0:   2041 shell pairs
          la=1 lb=0:   2267 shell pairs
          la=1 lb=1:    652 shell pairs
          la=2 lb=0:    632 shell pairs
          la=2 lb=1:    355 shell pairs
          la=2 lb=2:     57 shell pairs

Calculating one electron integrals          ... done (  0.0 sec)
Calculating RI/J V-Matrix + Cholesky decomp.... done (  0.0 sec)
Calculating Nuclear repulsion               ... done (  0.0 sec) ENN=    647.119547085749 Eh

SHARK setup successfully completed in   0.3 seconds

Maximum memory used throughout the entire GTOINT-calculation: 36.2 MB
-------------------------------------------------------------------------------
                                 ORCA SCF
-------------------------------------------------------------------------------

------------
SCF SETTINGS
------------
Hamiltonian:
 Density Functional     Method          .... DFT(GTOs)
 Exchange Functional    Exchange        .... WB97X
 Correlation Functional Correlation     .... WB97X
 Gradients option       PostSCFGGA      .... off
 Hybrid DFT is turned on
   Fraction HF Exchange ScalHFX         ....  0.157706
   Scaling of DF-GGA-X  ScalDFX         ....  0.000000
   Scaling of DF-GGA-C  ScalDFC         ....  1.000000
   Scaling of DF-LDA-C  ScalLDAC        ....  1.000000
   Perturbative correction              ....  0.000000
   Density functional embedding theory  .... OFF
 Long-range corrected/Screened/Range-Separated Hybrid DFT is turned on
   Amount of maximum screened exact exchange              ....  0.842294
   Range separation parameter mu (erf(mu*r12)/r12)        ....  0.300000
 RI-approximation to the Coulomb term is turned on
   Number of AuxJ basis functions       .... 726
   RIJ-COSX (HFX calculated with COS-X)).... on


General Settings:
 Integral files         IntName         .... 4+
 Hartree-Fock type      HFTyp           .... RHF
 Total Charge           Charge          ....    1
 Multiplicity           Mult            ....    1
 Number of Electrons    NEL             ....   84
 Basis Dimension        Dim             ....  239
 Nuclear Repulsion      ENuc            ....    647.1195470857 Eh

Convergence Acceleration:
 DIIS                   CNVDIIS         .... on
   Start iteration      DIISMaxIt       ....     0
   Startup error        DIISStart       ....  0.200000
   # of expansion vecs  DIISMaxEq       ....     5
   Bias factor          DIISBfac        ....   1.050
   Max. coefficient     DIISMaxC        ....  10.000
 Trust-Rad. Augm. Hess. CNVTRAH         .... auto
   Auto Start mean grad. ratio tolernc. ....  1.125000
   Auto Start start iteration           ....    20
   Auto Start num. interpolation iter.  ....    10
   Max. Number of Micro iterations      ....    16
   Max. Number of Macro iterations      .... Maxiter - #DIIS iter
   Number of Davidson start vectors     ....     2
   Converg. threshold I  (grad. norm)   ....   1.000e-05
   Converg. threshold II (energy diff.) ....   1.000e-08
   Grad. Scal. Fac. for Micro threshold ....   0.100
   Minimum threshold for Micro iter.    ....   0.010
   NR start threshold (gradient norm)   ....   0.001
   Initial trust radius                 ....   0.400
   Minimum AH scaling param. (alpha)    ....   1.000
   Maximum AH scaling param. (alpha)    .... 1000.000
   Orbital update algorithm             .... Taylor
   White noise on init. David. guess    .... on
   Maximum white noise                  ....   0.010
   Quad. conv. algorithm                .... NR
 SOSCF                  CNVSOSCF        .... on
   Start iteration      SOSCFMaxIt      ....   150
   Startup grad/error   SOSCFStart      ....  0.001000
 Level Shifting         CNVShift        .... on
   Level shift para.    LevelShift      ....    0.2500
   Turn off err/grad.   ShiftErr        ....    0.0000
 Zerner damping         CNVZerner       .... off
 Static damping         CNVDamp         .... on
   Fraction old density DampFac         ....    0.8500
   Max. Damping (<1)    DampMax         ....    0.9800
   Min. Damping (>=0)   DampMin         ....    0.0000
   Turn off err/grad.   DampErr         ....    0.0300
 Fernandez-Rico         CNVRico         .... off

SCF Procedure:
 Maximum # iterations   MaxIter         ....   125
 SCF integral mode      SCFMode         .... Direct
   Integral package                     .... SHARK and LIBINT hybrid scheme
 Reset frequency        DirectResetFreq ....    20
 Integral Threshold     Thresh          ....  2.500e-11 Eh
 Primitive CutOff       TCut            ....  2.500e-12 Eh

Convergence Tolerance:
 Convergence Check Mode ConvCheckMode   .... Total+1el-Energy
 Convergence forced     ConvForced      .... 0
 Energy Change          TolE            ....  1.000e-08 Eh
 1-El. energy change                    ....  1.000e-05 Eh
 Orbital Gradient       TolG            ....  1.000e-05
 Orbital Rotation angle TolX            ....  1.000e-05
 DIIS Error             TolErr          ....  5.000e-07


Diagonalization of the overlap matrix:
Smallest eigenvalue                        ... 1.196e-03
Time for diagonalization                   ...    0.010 sec
Threshold for overlap eigenvalues          ... 1.000e-08
Number of eigenvalues below threshold      ... 0
Time for construction of square roots      ...    0.005 sec
Total time needed                          ...    0.015 sec

Time for model grid setup =    0.514 sec

------------------------------
INITIAL GUESS: MODEL POTENTIAL
------------------------------
Loading Hartree-Fock densities                     ... done
Calculating cut-offs                               ... done
Initializing the effective Hamiltonian             ... done
Setting up the integral package (SHARK)            ... done
Starting the Coulomb interaction                   ... done (   0.5 sec)
Reading the grid                                   ... done
Mapping shells                                     ... done
Starting the XC term evaluation                    ... done (   0.6 sec)
  promolecular density results
     # of electrons  =     84.992600508
     EX              =    -64.200907149
     EC              =     -2.812810044
     EX+EC           =    -67.013717192
Transforming the Hamiltonian                       ... done (   0.0 sec)
Diagonalizing the Hamiltonian                      ... done (   0.0 sec)
Back transforming the eigenvectors                 ... done (   0.0 sec)
Now organizing SCF variables                       ... done
                      ------------------
                      INITIAL GUESS DONE (   1.6 sec)
                      ------------------
-------------------
DFT GRID GENERATION
-------------------

General Integration Accuracy     IntAcc      ... 4.388
Radial Grid Type                 RadialGrid  ... OptM3 with GC (2021)
Angular Grid (max. ang.)         AngularGrid ... 4 (Lebedev-302)
Angular grid pruning method      GridPruning ... 4 (adaptive)
Weight generation scheme         WeightScheme... Becke
Basis function cutoff            BFCut       ... 1.0000e-11
Integration weight cutoff        WCut        ... 1.0000e-14
Angular grids for H and He will be reduced by one unit
Partially contracted basis set               ... off
Rotationally invariant grid construction     ... off

Total number of grid points                  ...   120194
Total number of batches                      ...     1891
Average number of points per batch           ...       63
Average number of grid points per atom       ...     4293
Time for grid setup =    1.946 sec

--------------------
COSX GRID GENERATION
--------------------

GRIDX 1
-------
General Integration Accuracy     IntAcc      ... 3.816
Radial Grid Type                 RadialGrid  ... OptM3 with GC (2021)
Angular Grid (max. ang.)         AngularGrid ... 1 (Lebedev-50)
Angular grid pruning method      GridPruning ... 4 (adaptive)
Weight generation scheme         WeightScheme... Becke
Basis function cutoff            BFCut       ... 1.0000e-11
Integration weight cutoff        WCut        ... 1.0000e-14
Angular grids for H and He will be reduced by one unit
Partially contracted basis set               ... on
Rotationally invariant grid construction     ... off

Total number of grid points                  ...    15385
Total number of batches                      ...      257
Average number of points per batch           ...       59
Average number of grid points per atom       ...      549
UseSFitting                                  ... on

GRIDX 2
-------
General Integration Accuracy     IntAcc      ... 4.020
Radial Grid Type                 RadialGrid  ... OptM3 with GC (2021)
Angular Grid (max. ang.)         AngularGrid ... 2 (Lebedev-110)
Angular grid pruning method      GridPruning ... 4 (adaptive)
Weight generation scheme         WeightScheme... Becke
Basis function cutoff            BFCut       ... 1.0000e-11
Integration weight cutoff        WCut        ... 1.0000e-14
Angular grids for H and He will be reduced by one unit
Partially contracted basis set               ... on
Rotationally invariant grid construction     ... off

Total number of grid points                  ...    32128
Total number of batches                      ...      519
Average number of points per batch           ...       61
Average number of grid points per atom       ...     1147
UseSFitting                                  ... on

GRIDX 3
-------
General Integration Accuracy     IntAcc      ... 4.338
Radial Grid Type                 RadialGrid  ... OptM3 with GC (2021)
Angular Grid (max. ang.)         AngularGrid ... 3 (Lebedev-194)
Angular grid pruning method      GridPruning ... 4 (adaptive)
Weight generation scheme         WeightScheme... Becke
Basis function cutoff            BFCut       ... 1.0000e-11
Integration weight cutoff        WCut        ... 1.0000e-14
Angular grids for H and He will be reduced by one unit
Partially contracted basis set               ... on
Rotationally invariant grid construction     ... off

Total number of grid points                  ...    70023
Total number of batches                      ...     1106
Average number of points per batch           ...       63
Average number of grid points per atom       ...     2501
UseSFitting                                  ... on

Time for X-Grid setup             =    2.458 sec

--------------
SCF ITERATIONS
--------------
ITER       Energy         Delta-E        Max-DP      RMS-DP      [F,P]     Damp
               ***  Starting incremental Fock matrix formation  ***
  0   -461.8438025571   0.000000000000 0.03281060  0.00065165  0.1499438 0.8500
  1   -461.8882794550  -0.044476897892 0.02956215  0.00061655  0.1203506 0.8500
                               ***Turning on DIIS***
  2   -461.9218452579  -0.033565802889 0.02314150  0.00050437  0.0919319 0.8500
  3   -461.9465949806  -0.024749722698 0.01448108  0.00036292  0.0693050 0.8500
  4   -461.9655960871  -0.019001106464 0.00976846  0.00028113  0.0550324 0.8500
  5   -461.9805100815  -0.014913994423 0.00744852  0.00023150  0.0454613 0.8500
  6   -461.9926101004  -0.012100018864 0.00605145  0.00019537  0.0382308 0.8500
  7   -462.0026127322  -0.010002631860 0.00517378  0.00016775  0.0323812 0.8500
  8   -462.0109740378  -0.008361305606 0.02948173  0.00096061  0.0273808 0.0000
  9   -462.0558402911  -0.044866253213 0.00125553  0.00003435  0.0011935 0.0000
                      *** Initiating the SOSCF procedure ***
                           *** Shutting down DIIS ***
                      *** Re-Reading the Fockian *** 
                      *** Removing any level shift *** 
ITER      Energy       Delta-E        Grad      Rot      Max-DP    RMS-DP
 10   -462.05585751  -0.0000172175  0.000244  0.000244  0.000504  0.000013
               *** Restarting incremental Fock matrix formation ***
 11   -462.05580486   0.0000526437  0.000063  0.000118  0.000446  0.000011
 12   -462.05580523  -0.0000003606  0.000108  0.000244  0.000219  0.000006
 13   -462.05580532  -0.0000000925  0.000018  0.000020  0.000067  0.000002
 14   -462.05580533  -0.0000000142  0.000005  0.000014  0.000011  0.000000
 15   -462.05580534  -0.0000000045  0.000003  0.000010  0.000005  0.000000
                  ***Gradient check signals convergence***
              ***Rediagonalizing the Fockian in SOSCF/NRSCF***

               *****************************************************
               *                     SUCCESS                       *
               *           SCF CONVERGED AFTER  16 CYCLES          *
               *****************************************************

Old exchange energy                            =    -21.395129796 Eh
New exchange energy                            =    -21.395128872 Eh
Exchange energy change after final integration =      0.000000924 Eh
Total energy after final integration           =   -462.055804411 Eh
Final COS-X integration done in                =    59.377 sec

----------------
TOTAL SCF ENERGY
----------------

Total Energy       :         -462.05580441 Eh          -12573.17765 eV

Components:
Nuclear Repulsion  :          647.11954709 Eh           17609.01810 eV
Electronic Energy  :        -1109.17535150 Eh          -30182.19575 eV
One Electron Energy:        -1891.24157871 Eh          -51463.29970 eV
Two Electron Energy:          782.06622722 Eh           21281.10395 eV
Max COSX asymmetry :            0.00000275 Eh               0.00007 eV

Virial components:
Potential Energy   :         -918.48268421 Eh          -24993.18447 eV
Kinetic Energy     :          456.42687980 Eh           12420.00682 eV
Virial Ratio       :            2.01233259


DFT components:
N(Alpha)           :       42.000102917386 electrons
N(Beta)            :       42.000102917386 electrons
N(Total)           :       84.000205834773 electrons
E(XC)              :      -47.179813527393 Eh       
DFET-embed. en.    :        0.000000000000 Eh       

---------------
SCF CONVERGENCE
---------------

  Last Energy change         ...    1.8136e-09  Tolerance :   1.0000e-08
  Last MAX-Density change    ...    4.8850e-15  Tolerance :   1.0000e-07
  Last RMS-Density change    ...    4.7019e-17  Tolerance :   5.0000e-09
  Last Orbital Gradient      ...    5.8908e-07  Tolerance :   1.0000e-05
  Last Orbital Rotation      ...    6.7046e-07  Tolerance :   1.0000e-05

             **** THE GBW FILE WAS UPDATED (4+.gbw) ****
             **** DENSITY 4+.scfp WAS UPDATED ****
             **** ENERGY FILE WAS UPDATED (4+.en.tmp) ****
             **** THE GBW FILE WAS UPDATED (4+.gbw) ****
             **** DENSITY 4+.scfp WAS UPDATED ****
----------------
ORBITAL ENERGIES
----------------

  NO   OCC          E(Eh)            E(eV) 
   0   2.0000     -14.655549      -398.7978 
   1   2.0000     -14.655525      -398.7971 
   2   2.0000     -10.532687      -286.6090 
   3   2.0000     -10.481636      -285.2198 
   4   2.0000     -10.481062      -285.2042 
   5   2.0000     -10.477088      -285.0960 
   6   2.0000     -10.477041      -285.0948 
   7   2.0000     -10.407083      -283.1911 
   8   2.0000     -10.407069      -283.1907 
   9   2.0000     -10.406913      -283.1865 
  10   2.0000     -10.406905      -283.1863 
  11   2.0000      -1.362315       -37.0705 
  12   2.0000      -1.240677       -33.7605 
  13   2.0000      -1.105259       -30.0756 
  14   2.0000      -1.067304       -29.0428 
  15   2.0000      -1.050733       -28.5919 
  16   2.0000      -0.954970       -25.9860 
  17   2.0000      -0.954234       -25.9660 
  18   2.0000      -0.936203       -25.4754 
  19   2.0000      -0.932802       -25.3828 
  20   2.0000      -0.882685       -24.0191 
  21   2.0000      -0.849118       -23.1057 
  22   2.0000      -0.808164       -21.9913 
  23   2.0000      -0.772230       -21.0135 
  24   2.0000      -0.759347       -20.6629 
  25   2.0000      -0.735742       -20.0205 
  26   2.0000      -0.728790       -19.8314 
  27   2.0000      -0.711155       -19.3515 
  28   2.0000      -0.699188       -19.0259 
  29   2.0000      -0.698366       -19.0035 
  30   2.0000      -0.693489       -18.8708 
  31   2.0000      -0.653812       -17.7911 
  32   2.0000      -0.636166       -17.3110 
  33   2.0000      -0.635113       -17.2823 
  34   2.0000      -0.628607       -17.1053 
  35   2.0000      -0.622929       -16.9508 
  36   2.0000      -0.605200       -16.4683 
  37   2.0000      -0.597058       -16.2468 
  38   2.0000      -0.596270       -16.2253 
  39   2.0000      -0.592386       -16.1197 
  40   2.0000      -0.554746       -15.0954 
  41   2.0000      -0.521891       -14.2014 
  42   0.0000      -0.084861        -2.3092 
  43   0.0000      -0.051327        -1.3967 
  44   0.0000      -0.000922        -0.0251 
  45   0.0000       0.009098         0.2476 
  46   0.0000       0.017621         0.4795 
  47   0.0000       0.025026         0.6810 
  48   0.0000       0.028511         0.7758 
  49   0.0000       0.068334         1.8595 
  50   0.0000       0.069173         1.8823 
  51   0.0000       0.076896         2.0924 
  52   0.0000       0.081026         2.2048 
  53   0.0000       0.084081         2.2880 
  54   0.0000       0.087254         2.3743 
  55   0.0000       0.110405         3.0043 
  56   0.0000       0.118256         3.2179 
  57   0.0000       0.122261         3.3269 
  58   0.0000       0.122970         3.3462 
  59   0.0000       0.124807         3.3962 
  60   0.0000       0.133523         3.6334 
  61   0.0000       0.135985         3.7003 
  62   0.0000       0.138993         3.7822 
  63   0.0000       0.141855         3.8601 
  64   0.0000       0.161081         4.3832 
  65   0.0000       0.164567         4.4781 
  66   0.0000       0.185084         5.0364 
  67   0.0000       0.186828         5.0838 
  68   0.0000       0.194988         5.3059 
  69   0.0000       0.214230         5.8295 
  70   0.0000       0.260311         7.0834 
  71   0.0000       0.275711         7.5025 
  72   0.0000       0.307621         8.3708 
  73   0.0000       0.337720         9.1898 
  74   0.0000       0.339924         9.2498 
  75   0.0000       0.364485         9.9181 
  76   0.0000       0.370588        10.0842 
  77   0.0000       0.374376        10.1873 
  78   0.0000       0.383686        10.4406 
  79   0.0000       0.392686        10.6855 
  80   0.0000       0.401085        10.9141 
  81   0.0000       0.406366        11.0578 
  82   0.0000       0.455965        12.4074 
  83   0.0000       0.464772        12.6471 
  84   0.0000       0.483510        13.1570 
  85   0.0000       0.507392        13.8069 
  86   0.0000       0.526854        14.3364 
  87   0.0000       0.535973        14.5846 
  88   0.0000       0.537218        14.6184 
  89   0.0000       0.558074        15.1860 
  90   0.0000       0.563293        15.3280 
  91   0.0000       0.570394        15.5212 
  92   0.0000       0.588602        16.0167 
  93   0.0000       0.591808        16.1039 
  94   0.0000       0.596535        16.2325 
  95   0.0000       0.596951        16.2439 
  96   0.0000       0.617912        16.8142 
  97   0.0000       0.620748        16.8914 
  98   0.0000       0.628372        17.0989 
  99   0.0000       0.633239        17.2313 
 100   0.0000       0.635945        17.3049 
 101   0.0000       0.637825        17.3561 
 102   0.0000       0.640843        17.4382 
 103   0.0000       0.656176        17.8554 
 104   0.0000       0.657091        17.8804 
 105   0.0000       0.672995        18.3131 
 106   0.0000       0.673425        18.3248 
 107   0.0000       0.674642        18.3580 
 108   0.0000       0.675036        18.3687 
 109   0.0000       0.676706        18.4141 
 110   0.0000       0.680262        18.5109 
 111   0.0000       0.688829        18.7440 
 112   0.0000       0.693140        18.8613 
 113   0.0000       0.695797        18.9336 
 114   0.0000       0.708571        19.2812 
 115   0.0000       0.721161        19.6238 
 116   0.0000       0.747538        20.3415 
 117   0.0000       0.780167        21.2294 
 118   0.0000       0.819378        22.2964 
 119   0.0000       0.880190        23.9512 
 120   0.0000       0.891188        24.2505 
 121   0.0000       0.916858        24.9490 
 122   0.0000       0.929024        25.2800 
 123   0.0000       0.997310        27.1382 
 124   0.0000       0.998969        27.1833 
 125   0.0000       1.012788        27.5594 
 126   0.0000       1.029577        28.0162 
 127   0.0000       1.052694        28.6453 
 128   0.0000       1.066598        29.0236 
 129   0.0000       1.084525        29.5114 
 130   0.0000       1.117886        30.4192 
 131   0.0000       1.131968        30.8024 
 132   0.0000       1.178524        32.0693 
 133   0.0000       1.183488        32.2044 
 134   0.0000       1.198342        32.6085 
 135   0.0000       1.252564        34.0840 
 136   0.0000       1.255108        34.1532 
 137   0.0000       1.284587        34.9554 
 138   0.0000       1.307711        35.5846 
 139   0.0000       1.317127        35.8408 
 140   0.0000       1.339830        36.4586 
 141   0.0000       1.351510        36.7765 
 142   0.0000       1.406741        38.2794 
 143   0.0000       1.492163        40.6038 
 144   0.0000       1.494954        40.6798 
 145   0.0000       1.509125        41.0654 
 146   0.0000       1.510518        41.1033 
 147   0.0000       1.514156        41.2023 
 148   0.0000       1.519448        41.3463 
 149   0.0000       1.526613        41.5412 
 150   0.0000       1.612482        43.8779 
 151   0.0000       1.629153        44.3315 
 152   0.0000       1.650716        44.9183 
 153   0.0000       1.651734        44.9460 
 154   0.0000       1.668732        45.4085 
 155   0.0000       1.688483        45.9460 
 156   0.0000       1.700848        46.2824 
 157   0.0000       1.707305        46.4581 
 158   0.0000       1.714251        46.6471 
 159   0.0000       1.739999        47.3478 
 160   0.0000       1.750828        47.6425 
 161   0.0000       1.752905        47.6990 
 162   0.0000       1.765649        48.0458 
 163   0.0000       1.770674        48.1825 
 164   0.0000       1.774856        48.2963 
 165   0.0000       1.779008        48.4093 
 166   0.0000       1.791775        48.7567 
 167   0.0000       1.795583        48.8603 
 168   0.0000       1.809958        49.2515 
 169   0.0000       1.811128        49.2833 
 170   0.0000       1.821600        49.5682 
 171   0.0000       1.823367        49.6163 
 172   0.0000       1.825461        49.6733 
 173   0.0000       1.832904        49.8758 
 174   0.0000       1.840218        50.0749 
 175   0.0000       1.845150        50.2091 
 176   0.0000       1.865920        50.7743 
 177   0.0000       1.873023        50.9676 
 178   0.0000       1.876379        51.0589 
 179   0.0000       1.891503        51.4704 
 180   0.0000       1.912948        52.0539 
 181   0.0000       1.932964        52.5986 
 182   0.0000       1.933271        52.6070 
 183   0.0000       1.988581        54.1120 
 184   0.0000       1.989430        54.1352 
 185   0.0000       2.015417        54.8423 
 186   0.0000       2.035415        55.3864 
 187   0.0000       2.104226        57.2589 
 188   0.0000       2.109677        57.4072 
 189   0.0000       2.111100        57.4460 
 190   0.0000       2.122263        57.7497 
 191   0.0000       2.200602        59.8814 
 192   0.0000       2.214060        60.2476 
 193   0.0000       2.218471        60.3677 
 194   0.0000       2.229375        60.6644 
 195   0.0000       2.285590        62.1941 
 196   0.0000       2.298297        62.5398 
 197   0.0000       2.306793        62.7710 
 198   0.0000       2.341112        63.7049 
 199   0.0000       2.357358        64.1470 
 200   0.0000       2.364398        64.3386 
 201   0.0000       2.371073        64.5202 
 202   0.0000       2.398655        65.2707 
 203   0.0000       2.405297        65.4515 
 204   0.0000       2.437217        66.3200 
 205   0.0000       2.445971        66.5583 
 206   0.0000       2.446836        66.5818 
 207   0.0000       2.459318        66.9214 
 208   0.0000       2.500329        68.0374 
 209   0.0000       2.528529        68.8048 
 210   0.0000       2.531281        68.8797 
 211   0.0000       2.546110        69.2832 
 212   0.0000       2.625742        71.4501 
 213   0.0000       2.643420        71.9311 
 214   0.0000       2.652718        72.1841 
 215   0.0000       2.673866        72.7596 
 216   0.0000       2.692938        73.2786 
 217   0.0000       2.694037        73.3085 
 218   0.0000       2.748231        74.7832 
 219   0.0000       2.787097        75.8408 
 220   0.0000       2.810963        76.4902 
 221   0.0000       2.813071        76.5476 
 222   0.0000       2.832657        77.0805 
 223   0.0000       2.834924        77.1422 
 224   0.0000       2.838583        77.2418 
 225   0.0000       2.870425        78.1082 
 226   0.0000       2.876618        78.2768 
 227   0.0000       2.881099        78.3987 
 228   0.0000       2.908261        79.1378 
 229   0.0000       2.933992        79.8380 
 230   0.0000       2.974688        80.9454 
 231   0.0000       2.987181        81.2853 
 232   0.0000       2.988769        81.3285 
 233   0.0000       2.994084        81.4732 
 234   0.0000       3.013995        82.0150 
 235   0.0000       3.129938        85.1700 
 236   0.0000       3.303666        89.8973 
 237   0.0000       3.430311        93.3435 
 238   0.0000       3.445292        93.7512 

                    ********************************
                    * MULLIKEN POPULATION ANALYSIS *
                    ********************************

-----------------------
MULLIKEN ATOMIC CHARGES
-----------------------
   0 C :    0.071096
   1 C :    0.070856
   2 N :   -0.184252
   3 N :   -0.184139
   4 C :    0.197775
   5 H :    0.098049
   6 H :    0.098036
   7 C :   -0.086096
   8 C :   -0.086218
   9 H :    0.062809
  10 H :    0.062595
  11 H :    0.117184
  12 C :   -0.000307
  13 C :   -0.000998
  14 C :   -0.005225
  15 C :   -0.006263
  16 H :    0.050964
  17 H :    0.051038
  18 H :    0.050825
  19 H :    0.051001
  20 H :    0.059703
  21 H :    0.060080
  22 H :    0.061760
  23 H :    0.062106
  24 H :    0.081797
  25 H :    0.081678
  26 H :    0.082089
  27 H :    0.082056
Sum of atomic charges:    1.0000000

--------------------------------
MULLIKEN REDUCED ORBITAL CHARGES
--------------------------------
  0 C s       :     3.141699  s :     3.141699
      pz      :     0.956069  p :     2.740039
      px      :     0.925547
      py      :     0.858423
      dz2     :     0.007095  d :     0.047166
      dxz     :     0.007422
      dyz     :     0.009546
      dx2y2   :     0.010985
      dxy     :     0.012117
  1 C s       :     3.141924  s :     3.141924
      pz      :     0.972604  p :     2.740063
      px      :     0.823535
      py      :     0.943923
      dz2     :     0.005560  d :     0.047157
      dxz     :     0.011919
      dyz     :     0.006043
      dx2y2   :     0.011065
      dxy     :     0.012571
  2 N s       :     3.392786  s :     3.392786
      pz      :     1.368994  p :     3.758649
      px      :     1.142590
      py      :     1.247064
      dz2     :     0.004992  d :     0.032817
      dxz     :     0.005870
      dyz     :     0.005496
      dx2y2   :     0.008886
      dxy     :     0.007574
  3 N s       :     3.392645  s :     3.392645
      pz      :     1.356820  p :     3.758661
      px      :     1.210802
      py      :     1.191039
      dz2     :     0.005502  d :     0.032834
      dxz     :     0.006089
      dyz     :     0.004705
      dx2y2   :     0.009287
      dxy     :     0.007251
  4 C s       :     3.090679  s :     3.090679
      pz      :     0.937318  p :     2.643942
      px      :     0.846358
      py      :     0.860266
      dz2     :     0.007439  d :     0.067604
      dxz     :     0.013443
      dyz     :     0.011500
      dx2y2   :     0.020472
      dxy     :     0.014749
  5 H s       :     0.877726  s :     0.877726
      pz      :     0.005313  p :     0.024225
      px      :     0.016345
      py      :     0.002567
  6 H s       :     0.877743  s :     0.877743
      pz      :     0.007599  p :     0.024221
      px      :     0.002176
      py      :     0.014446
  7 C s       :     3.129068  s :     3.129068
      pz      :     1.046292  p :     2.901081
      px      :     1.020394
      py      :     0.834396
      dz2     :     0.009315  d :     0.055946
      dxz     :     0.012095
      dyz     :     0.011637
      dx2y2   :     0.008760
      dxy     :     0.014139
  8 C s       :     3.129036  s :     3.129036
      pz      :     1.079356  p :     2.901218
      px      :     0.798932
      py      :     1.022930
      dz2     :     0.011634  d :     0.055963
      dxz     :     0.009156
      dyz     :     0.010955
      dx2y2   :     0.009891
      dxy     :     0.014328
  9 H s       :     0.916485  s :     0.916485
      pz      :     0.006898  p :     0.020706
      px      :     0.007764
      py      :     0.006044
 10 H s       :     0.916694  s :     0.916694
      pz      :     0.006912  p :     0.020712
      px      :     0.006997
      py      :     0.006803
 11 H s       :     0.859011  s :     0.859011
      pz      :     0.008029  p :     0.023804
      px      :     0.008321
      py      :     0.007454
 12 C s       :     3.022382  s :     3.022382
      pz      :     0.945795  p :     2.952082
      px      :     1.020014
      py      :     0.986273
      dz2     :     0.002710  d :     0.025843
      dxz     :     0.008082
      dyz     :     0.006659
      dx2y2   :     0.003624
      dxy     :     0.004769
 13 C s       :     3.022642  s :     3.022642
      pz      :     0.910857  p :     2.952505
      px      :     1.013837
      py      :     1.027811
      dz2     :     0.005861  d :     0.025851
      dxz     :     0.005003
      dyz     :     0.006273
      dx2y2   :     0.004612
      dxy     :     0.004102
 14 C s       :     3.024241  s :     3.024241
      pz      :     0.988585  p :     2.955149
      px      :     1.046046
      py      :     0.920517
      dz2     :     0.005507  d :     0.025836
      dxz     :     0.004000
      dyz     :     0.005963
      dx2y2   :     0.005285
      dxy     :     0.005081
 15 C s       :     3.024543  s :     3.024543
      pz      :     0.969072  p :     2.955878
      px      :     0.947084
      py      :     1.039722
      dz2     :     0.002985  d :     0.025842
      dxz     :     0.007428
      dyz     :     0.006008
      dx2y2   :     0.003919
      dxy     :     0.005501
 16 H s       :     0.925306  s :     0.925306
      pz      :     0.007728  p :     0.023730
      px      :     0.009616
      py      :     0.006387
 17 H s       :     0.925232  s :     0.925232
      pz      :     0.007825  p :     0.023730
      px      :     0.007425
      py      :     0.008481
 18 H s       :     0.925424  s :     0.925424
      pz      :     0.007087  p :     0.023750
      px      :     0.007961
      py      :     0.008702
 19 H s       :     0.925248  s :     0.925248
      pz      :     0.006666  p :     0.023751
      px      :     0.009882
      py      :     0.007203
 20 H s       :     0.916765  s :     0.916765
      pz      :     0.007693  p :     0.023532
      px      :     0.010992
      py      :     0.004847
 21 H s       :     0.916385  s :     0.916385
      pz      :     0.006014  p :     0.023534
      px      :     0.004486
      py      :     0.013034
 22 H s       :     0.914716  s :     0.914716
      pz      :     0.013478  p :     0.023524
      px      :     0.006245
      py      :     0.003802
 23 H s       :     0.914365  s :     0.914365
      pz      :     0.010934  p :     0.023529
      px      :     0.004645
      py      :     0.007950
 24 H s       :     0.894172  s :     0.894172
      pz      :     0.004876  p :     0.024031
      px      :     0.006484
      py      :     0.012671
 25 H s       :     0.894284  s :     0.894284
      pz      :     0.003848  p :     0.024038
      px      :     0.013869
      py      :     0.006321
 26 H s       :     0.893886  s :     0.893886
      pz      :     0.004592  p :     0.024025
      px      :     0.013438
      py      :     0.005995
 27 H s       :     0.893907  s :     0.893907
      pz      :     0.005870  p :     0.024038
      px      :     0.006177
      py      :     0.011990


                     *******************************
                     * LOEWDIN POPULATION ANALYSIS *
                     *******************************

----------------------
LOEWDIN ATOMIC CHARGES
----------------------
   0 C :    0.024751
   1 C :    0.024716
   2 N :    0.099878
   3 N :    0.100003
   4 C :    0.105977
   5 H :    0.057114
   6 H :    0.057060
   7 C :    0.035121
   8 C :    0.035058
   9 H :    0.040718
  10 H :    0.040654
  11 H :    0.059332
  12 C :   -0.049649
  13 C :   -0.049723
  14 C :   -0.049868
  15 C :   -0.049981
  16 H :    0.036424
  17 H :    0.036432
  18 H :    0.036097
  19 H :    0.036107
  20 H :    0.039268
  21 H :    0.039420
  22 H :    0.039995
  23 H :    0.040109
  24 H :    0.053577
  25 H :    0.053599
  26 H :    0.053862
  27 H :    0.053951

-------------------------------
LOEWDIN REDUCED ORBITAL CHARGES
-------------------------------
  0 C s       :     2.854873  s :     2.854873
      pz      :     0.991004  p :     3.004858
      px      :     1.053670
      py      :     0.960183
      dz2     :     0.015331  d :     0.115518
      dxz     :     0.015455
      dyz     :     0.023004
      dx2y2   :     0.028732
      dxy     :     0.032995
  1 C s       :     2.854908  s :     2.854908
      pz      :     1.008560  p :     3.004872
      px      :     0.945336
      py      :     1.050977
      dz2     :     0.011240  d :     0.115504
      dxz     :     0.028316
      dyz     :     0.012423
      dx2y2   :     0.029243
      dxy     :     0.034282
  2 N s       :     3.055878  s :     3.055878
      pz      :     1.326282  p :     3.769345
      px      :     1.204886
      py      :     1.238177
      dz2     :     0.010064  d :     0.074899
      dxz     :     0.012399
      dyz     :     0.011325
      dx2y2   :     0.021822
      dxy     :     0.019289
  3 N s       :     3.055762  s :     3.055762
      pz      :     1.323825  p :     3.769300
      px      :     1.214021
      py      :     1.231453
      dz2     :     0.010823  d :     0.074936
      dxz     :     0.012809
      dyz     :     0.010550
      dx2y2   :     0.022280
      dxy     :     0.018475
  4 C s       :     2.837981  s :     2.837981
      pz      :     0.983920  p :     2.897942
      px      :     0.956884
      py      :     0.957138
      dz2     :     0.014959  d :     0.158100
      dxz     :     0.028925
      dyz     :     0.025839
      dx2y2   :     0.051819
      dxy     :     0.036558
  5 H s       :     0.870958  s :     0.870958
      pz      :     0.016774  p :     0.071928
      px      :     0.045408
      py      :     0.009746
  6 H s       :     0.871012  s :     0.871012
      pz      :     0.022711  p :     0.071929
      px      :     0.008807
      py      :     0.040410
  7 C s       :     2.840075  s :     2.840075
      pz      :     1.057036  p :     2.995725
      px      :     1.037174
      py      :     0.901516
      dz2     :     0.018562  d :     0.129079
      dxz     :     0.029588
      dyz     :     0.027926
      dx2y2   :     0.019650
      dxy     :     0.033353
  8 C s       :     2.839990  s :     2.839990
      pz      :     1.082063  p :     2.995826
      px      :     0.873735
      py      :     1.040027
      dz2     :     0.026356  d :     0.129126
      dxz     :     0.021401
      dyz     :     0.024459
      dx2y2   :     0.023669
      dxy     :     0.033241
  9 H s       :     0.893759  s :     0.893759
      pz      :     0.022363  p :     0.065523
      px      :     0.024588
      py      :     0.018571
 10 H s       :     0.893803  s :     0.893803
      pz      :     0.022740  p :     0.065543
      px      :     0.020595
      py      :     0.022208
 11 H s       :     0.868371  s :     0.868371
      pz      :     0.024029  p :     0.072297
      px      :     0.025348
      py      :     0.022921
 12 C s       :     2.838914  s :     2.838914
      pz      :     1.020105  p :     3.141788
      px      :     1.068537
      py      :     1.053146
      dz2     :     0.007273  d :     0.068946
      dxz     :     0.021079
      dyz     :     0.018695
      dx2y2   :     0.009328
      dxy     :     0.012572
 13 C s       :     2.838779  s :     2.838779
      pz      :     1.000538  p :     3.141980
      px      :     1.068314
      py      :     1.073128
      dz2     :     0.016385  d :     0.068964
      dxz     :     0.013728
      dyz     :     0.016128
      dx2y2   :     0.012151
      dxy     :     0.010572
 14 C s       :     2.838612  s :     2.838612
      pz      :     1.052067  p :     3.142306
      px      :     1.082116
      py      :     1.008123
      dz2     :     0.014229  d :     0.068950
      dxz     :     0.010446
      dyz     :     0.016575
      dx2y2   :     0.014463
      dxy     :     0.013237
 15 C s       :     2.838432  s :     2.838432
      pz      :     1.041746  p :     3.142575
      px      :     1.023909
      py      :     1.076919
      dz2     :     0.007086  d :     0.068975
      dxz     :     0.020883
      dyz     :     0.016242
      dx2y2   :     0.010327
      dxy     :     0.014437
 16 H s       :     0.897839  s :     0.897839
      pz      :     0.021636  p :     0.065737
      px      :     0.026075
      py      :     0.018026
 17 H s       :     0.897848  s :     0.897848
      pz      :     0.022420  p :     0.065720
      px      :     0.020484
      py      :     0.022817
 18 H s       :     0.898147  s :     0.898147
      pz      :     0.019528  p :     0.065756
      px      :     0.021330
      py      :     0.024898
 19 H s       :     0.898128  s :     0.898128
      pz      :     0.018742  p :     0.065765
      px      :     0.027790
      py      :     0.019233
 20 H s       :     0.894925  s :     0.894925
      pz      :     0.021882  p :     0.065808
      px      :     0.029951
      py      :     0.013974
 21 H s       :     0.894747  s :     0.894747
      pz      :     0.017830  p :     0.065833
      px      :     0.012583
      py      :     0.035420
 22 H s       :     0.894147  s :     0.894147
      pz      :     0.037261  p :     0.065858
      px      :     0.016810
      py      :     0.011787
 23 H s       :     0.894016  s :     0.894016
      pz      :     0.030724  p :     0.065875
      px      :     0.013666
      py      :     0.021485
 24 H s       :     0.880271  s :     0.880271
      pz      :     0.014042  p :     0.066152
      px      :     0.017384
      py      :     0.034726
 25 H s       :     0.880244  s :     0.880244
      pz      :     0.011496  p :     0.066157
      px      :     0.037815
      py      :     0.016845
 26 H s       :     0.879965  s :     0.879965
      pz      :     0.012290  p :     0.066173
      px      :     0.036632
      py      :     0.017252
 27 H s       :     0.879864  s :     0.879864
      pz      :     0.015955  p :     0.066186
      px      :     0.017442
      py      :     0.032789


                      *****************************
                      * MAYER POPULATION ANALYSIS *
                      *****************************

  NA   - Mulliken gross atomic population
  ZA   - Total nuclear charge
  QA   - Mulliken gross atomic charge
  VA   - Mayer's total valence
  BVA  - Mayer's bonded valence
  FA   - Mayer's free valence

  ATOM       NA         ZA         QA         VA         BVA        FA
  0 C      5.9289     6.0000     0.0711     3.8702     3.8702     0.0000
  1 C      5.9291     6.0000     0.0709     3.8703     3.8703     0.0000
  2 N      7.1843     7.0000    -0.1843     3.4071     3.4071    -0.0000
  3 N      7.1841     7.0000    -0.1841     3.4072     3.4072    -0.0000
  4 C      5.8022     6.0000     0.1978     3.8768     3.8768    -0.0000
  5 H      0.9020     1.0000     0.0980     0.9980     0.9980     0.0000
  6 H      0.9020     1.0000     0.0980     0.9980     0.9980     0.0000
  7 C      6.0861     6.0000    -0.0861     4.0476     4.0476    -0.0000
  8 C      6.0862     6.0000    -0.0862     4.0478     4.0478     0.0000
  9 H      0.9372     1.0000     0.0628     0.9753     0.9753     0.0000
 10 H      0.9374     1.0000     0.0626     0.9753     0.9753     0.0000
 11 H      0.8828     1.0000     0.1172     0.9973     0.9973    -0.0000
 12 C      6.0003     6.0000    -0.0003     3.9311     3.9311    -0.0000
 13 C      6.0010     6.0000    -0.0010     3.9312     3.9312    -0.0000
 14 C      6.0052     6.0000    -0.0052     3.9326     3.9326    -0.0000
 15 C      6.0063     6.0000    -0.0063     3.9329     3.9329    -0.0000
 16 H      0.9490     1.0000     0.0510     1.0004     1.0004    -0.0000
 17 H      0.9490     1.0000     0.0510     1.0003     1.0003     0.0000
 18 H      0.9492     1.0000     0.0508     1.0003     1.0003     0.0000
 19 H      0.9490     1.0000     0.0510     1.0002     1.0002    -0.0000
 20 H      0.9403     1.0000     0.0597     0.9918     0.9918    -0.0000
 21 H      0.9399     1.0000     0.0601     0.9918     0.9918    -0.0000
 22 H      0.9382     1.0000     0.0618     0.9913     0.9913    -0.0000
 23 H      0.9379     1.0000     0.0621     0.9913     0.9913     0.0000
 24 H      0.9182     1.0000     0.0818     0.9949     0.9949    -0.0000
 25 H      0.9183     1.0000     0.0817     0.9950     0.9950    -0.0000
 26 H      0.9179     1.0000     0.0821     0.9949     0.9949    -0.0000
 27 H      0.9179     1.0000     0.0821     0.9949     0.9949     0.0000

  Mayer bond orders larger than 0.100000
B(  0-C ,  1-C ) :   1.6116 B(  0-C ,  2-N ) :   1.1748 B(  0-C ,  5-H ) :   0.9828 
B(  1-C ,  3-N ) :   1.1747 B(  1-C ,  6-H ) :   0.9828 B(  2-N ,  4-C ) :   1.3568 
B(  2-N ,  7-C ) :   0.8372 B(  3-N ,  4-C ) :   1.3570 B(  3-N ,  8-C ) :   0.8374 
B(  4-C , 11-H ) :   0.9713 B(  7-C ,  9-H ) :   0.9401 B(  7-C , 12-C ) :   1.0638 
B(  7-C , 15-C ) :   1.0631 B(  8-C , 10-H ) :   0.9400 B(  8-C , 13-C ) :   1.0637 
B(  8-C , 14-C ) :   1.0632 B( 12-C , 16-H ) :   0.9621 B( 12-C , 20-H ) :   0.9667 
B( 12-C , 24-H ) :   0.9682 B( 13-C , 17-H ) :   0.9623 B( 13-C , 21-H ) :   0.9667 
B( 13-C , 25-H ) :   0.9682 B( 14-C , 18-H ) :   0.9624 B( 14-C , 22-H ) :   0.9670 
B( 14-C , 26-H ) :   0.9676 B( 15-C , 19-H ) :   0.9625 B( 15-C , 23-H ) :   0.9671 
B( 15-C , 27-H ) :   0.9675 

-------
TIMINGS
-------

Total SCF time: 0 days 0 hours 6 min 30 sec 

Total time                  ....     390.133 sec
Sum of individual times     ....     389.837 sec  ( 99.9%)

Fock matrix formation       ....     383.584 sec  ( 98.3%)
  Split-RI-J                ....      15.927 sec  (  4.2% of F)
  Chain of spheres X        ....     332.887 sec  ( 86.8% of F)
  XC integration            ....      34.585 sec  (  9.0% of F)
    Basis function eval.    ....      13.069 sec  ( 37.8% of XC)
    Density eval.           ....       8.126 sec  ( 23.5% of XC)
    XC-Functional eval.     ....       4.499 sec  ( 13.0% of XC)
    XC-Potential eval.      ....       7.984 sec  ( 23.1% of XC)
Diagonalization             ....       0.127 sec  (  0.0%)
Density matrix formation    ....       0.019 sec  (  0.0%)
Population analysis         ....       0.013 sec  (  0.0%)
Initial guess               ....       1.075 sec  (  0.3%)
Orbital Transformation      ....       0.000 sec  (  0.0%)
Orbital Orthonormalization  ....       0.000 sec  (  0.0%)
DIIS solution               ....       0.047 sec  (  0.0%)
SOSCF solution              ....       0.055 sec  (  0.0%)
Grid generation             ....       4.918 sec  (  1.3%)

Maximum memory used throughout the entire SCF-calculation: 92.6 MB


-------------------------------------------------------------------------------
                          DFT DISPERSION CORRECTION                            
                                                                               
                                 DFTD4 V2.5                                    
-------------------------------------------------------------------------------
The WB97X functional is recognized
Active option DFTDOPT                   ...         5   

Starting D4
-------------------------   ----------------
Dispersion correction           -0.003981711
-------------------------   ----------------


-------------------------   --------------------
FINAL SINGLE POINT ENERGY      -462.059786122221
-------------------------   --------------------


                            ***************************************
                            *     ORCA property calculations      *
                            ***************************************

                                    ---------------------
                                    Active property flags
                                    ---------------------
   (+) Dipole Moment


------------------------------------------------------------------------------
                       ORCA ELECTRIC PROPERTIES CALCULATION
------------------------------------------------------------------------------

Dipole Moment Calculation                       ... on
Quadrupole Moment Calculation                   ... off
Polarizability Calculation                      ... off
GBWName                                         ... 4+.gbw
Electron density                                ... 4+.scfp
The origin for moment calculation is the CENTER OF MASS  = (-0.088314,  0.130306 -0.091516)

-------------
DIPOLE MOMENT
-------------
                                X             Y             Z
Electronic contribution:      0.40053      -0.40726      -0.10981
Nuclear contribution   :     -0.57661       0.56310       0.26423
                        -----------------------------------------
Total Dipole Moment    :     -0.17608       0.15584       0.15442
                        -----------------------------------------
Magnitude (a.u.)       :      0.28131
Magnitude (Debye)      :      0.71503



--------------------
Rotational spectrum 
--------------------
 
Rotational constants in cm-1:     0.089660     0.018409     0.017771 
Rotational constants in MHz :  2687.933316   551.885975   532.747360 

 Dipole components along the rotational axes: 
x,y,z [a.u.] :    -0.000384    -0.022749    -0.280388 
x,y,z [Debye]:    -0.000977    -0.057822    -0.712689 

 

-------------------------------------------------------------------------------
                               ORCA SCF HESSIAN
-------------------------------------------------------------------------------

                   --------- SHARK INITIALIZATION DONE ---------

Hessian of the Kohn-Sham DFT energy:
Kohn-Sham wavefunction type                      ... RKS
Hartree-Fock exchange scaling                    ...    0.158
Number of operators                              ...    1
Number of atoms                                  ...   28
Basis set dimensions                             ...  239
Integral neglect threshold                       ... 2.5e-11
Integral primitive cutoff                        ... 2.5e-12

Setting up DFT Hessian calculations              ... 

HESS GRID
---------

General Integration Accuracy     IntAcc      ... 4.629
Radial Grid Type                 RadialGrid  ... OptM3 with GC (2021)
Angular Grid (max. ang.)         AngularGrid ... 5 (Lebedev-434)
Angular grid pruning method      GridPruning ... 4 (adaptive)
Weight generation scheme         WeightScheme... Becke
Basis function cutoff            BFCut       ... 1.0000e-11
Integration weight cutoff        WCut        ... 1.0000e-14
Angular grids for H and He will be reduced by one unit
Partially contracted basis set               ... off
Rotationally invariant grid construction     ... off

Total number of grid points                  ...   185863
Total number of batches                      ...     2921
Average number of points per batch           ...       63
Average number of grid points per atom       ...     6638

Building densities                               ... done   (      0.0 sec)
Calculating rho(r) on the grid                   ... done   (      2.1 sec)
Building xc-kernel on the grid                   ... done   (      1.7 sec)
                                                     done   (      7.1 sec)

Nuclear repulsion Hessian  (SHARK)               ... done   (      0.0 sec)

----------------------------------------------
Forming right-hand sides of CP-SCF equations     ...
----------------------------------------------
One electron integral derivatives  (SHARK)       ... done   (      0.8 sec)
Transforming the overlap derivative matrices     ... done   (      0.2 sec)
Making the Q(x) pseudodensities                  ... done   (      0.1 sec)
Adding the E*S(x)*S(y) terms to the Hessian      ... done   (      0.2 sec)
Calculating energy weighted overlap derivatives  ... done   (      0.0 sec)
Two electron integral derivatives (SHARK-RI)     ... done   (     96.2 sec)
Exchange-correlation integral derivatives        ... done   (    241.7 sec)
tr(F(y)Q(x)) contribution to the Hessian         ... done   (      0.1 sec)
Response fock operator R(S(x)) (SHARK-RIJCOSX)   ... done   (     92.5 sec)
XC Response fock operator R(S(x))                ... done   (    107.6 sec)
tr(F(y)S(x)) contribution to the Hessian         ... done   (      0.1 sec)
Transforming and finalizing RHSs                 ... done   (      0.2 sec)

----------------------------------------------
Solving the CP-SCF equations (RIJCOSX)           ...
----------------------------------------------
     CP-SCF ITERATION   0:   1.3071e-01 (  46.9 sec   0/ 84 done)
     CP-SCF ITERATION   1:   8.3643e-02 (  47.8 sec   0/ 84 done)
     CP-SCF ITERATION   2:   2.0615e-02 (  48.1 sec   0/ 84 done)
     CP-SCF ITERATION   3:   9.9017e-03 (  47.6 sec   0/ 84 done)
     CP-SCF ITERATION   4:   5.0800e-03 (  47.5 sec   0/ 84 done)
     CP-SCF ITERATION   5:   1.6411e-03 (  47.9 sec  10/ 84 done)
     CP-SCF ITERATION   6:   5.4145e-04 (  43.7 sec  57/ 84 done)
     CP-SCF ITERATION   7:   1.8551e-04 (  27.1 sec  69/ 84 done)
     CP-SCF ITERATION   8:   6.1815e-05 (  18.3 sec  84/ 84 done)
                    *** THE CP-SCF HAS CONVERGED ***

                                                 ... done   (    375.8 sec)
Forming perturbed density Hessian contributions  ... done   (      0.2 sec)
2nd integral derivative contribs (SHARK-RI)      ... done   (    343.3 sec)
Exchange-correlation Hessian                     ... done   (    181.6 sec)
Dispersion correction in the Hessian             ... Starting D4


------------------- 
Dispersion Gradient 
------------------- 
   1  :    0.000023395   -0.000001933   -0.000007861
   2  :    0.000002412   -0.000021013   -0.000011680
   3  :    0.000015977    0.000012388    0.000002381
   4  :   -0.000013529   -0.000015121   -0.000003333
   5  :   -0.000004382    0.000003700    0.000003765
   6  :    0.000008445   -0.000002070   -0.000003591
   7  :    0.000002391   -0.000007656   -0.000004792
   8  :    0.000020997    0.000032458    0.000011275
   9  :   -0.000034908   -0.000020067    0.000000327
  10  :    0.000009148    0.000008630    0.000001800
  11  :   -0.000009185   -0.000008600   -0.000001788
  12  :   -0.000005047    0.000004480    0.000004304
  13  :    0.000022926    0.000040412   -0.000012988
  14  :   -0.000037711   -0.000016904   -0.000024917
  15  :   -0.000024457   -0.000039099    0.000012979
  16  :    0.000036779    0.000018283    0.000024685
  17  :    0.000005362    0.000011054   -0.000001106
  18  :   -0.000010800   -0.000004163   -0.000004289
  19  :   -0.000008228   -0.000008482    0.000003289
  20  :    0.000007973    0.000006713    0.000006428
  21  :    0.000006509    0.000012919   -0.000002736
  22  :   -0.000012302   -0.000004842   -0.000006439
  23  :   -0.000008497   -0.000010858    0.000004151
  24  :    0.000010152    0.000006612    0.000007727
  25  :    0.000004163    0.000008759   -0.000001709
  26  :   -0.000008357   -0.000003061   -0.000004167
  27  :   -0.000005913   -0.000007172    0.000002932
  28  :    0.000006687    0.000004632    0.000005353

  |G| =    0.000127384

Starting D4


------------------- 
Dispersion Gradient 
------------------- 
   1  :    0.000021933   -0.000001644   -0.000007260
   2  :    0.000002262   -0.000020706   -0.000011465
   3  :    0.000015994    0.000012398    0.000002387
   4  :   -0.000013025   -0.000015022   -0.000003440
   5  :   -0.000003287    0.000003015    0.000003036
   6  :    0.000008327   -0.000002071   -0.000003559
   7  :    0.000002387   -0.000007656   -0.000004791
   8  :    0.000020983    0.000032436    0.000011268
   9  :   -0.000034873   -0.000020044    0.000000331
  10  :    0.000009152    0.000008628    0.000001798
  11  :   -0.000009183   -0.000008602   -0.000001788
  12  :   -0.000005016    0.000004458    0.000004283
  13  :    0.000022931    0.000040412   -0.000012991
  14  :   -0.000037701   -0.000016903   -0.000024919
  15  :   -0.000024445   -0.000039099    0.000012980
  16  :    0.000036787    0.000018282    0.000024688
  17  :    0.000005365    0.000011060   -0.000001106
  18  :   -0.000010797   -0.000004163   -0.000004288
  19  :   -0.000008226   -0.000008481    0.000003289
  20  :    0.000007980    0.000006719    0.000006433
  21  :    0.000006513    0.000012920   -0.000002735
  22  :   -0.000012301   -0.000004843   -0.000006439
  23  :   -0.000008495   -0.000010859    0.000004151
  24  :    0.000010155    0.000006615    0.000007729
  25  :    0.000004165    0.000008757   -0.000001709
  26  :   -0.000008361   -0.000003063   -0.000004168
  27  :   -0.000005916   -0.000007175    0.000002933
  28  :    0.000006689    0.000004631    0.000005352

  |G| =    0.000127057

Starting D4


------------------- 
Dispersion Gradient 
------------------- 
   1  :    0.000022542   -0.000001693   -0.000007487
   2  :    0.000002312   -0.000020803   -0.000011534
   3  :    0.000015978    0.000012393    0.000002391
   4  :   -0.000013272   -0.000015066   -0.000003385
   5  :   -0.000003686    0.000003265    0.000003297
   6  :    0.000008389   -0.000002064   -0.000003576
   7  :    0.000002386   -0.000007659   -0.000004792
   8  :    0.000020987    0.000032434    0.000011266
   9  :   -0.000034891   -0.000020057    0.000000330
  10  :    0.000009150    0.000008626    0.000001798
  11  :   -0.000009184   -0.000008603   -0.000001788
  12  :   -0.000005026    0.000004463    0.000004289
  13  :    0.000022928    0.000040403   -0.000012990
  14  :   -0.000037706   -0.000016908   -0.000024918
  15  :   -0.000024452   -0.000039104    0.000012980
  16  :    0.000036782    0.000018277    0.000024684
  17  :    0.000005362    0.000011054   -0.000001105
  18  :   -0.000010798   -0.000004164   -0.000004288
  19  :   -0.000008227   -0.000008483    0.000003289
  20  :    0.000007976    0.000006715    0.000006430
  21  :    0.000006511    0.000012915   -0.000002735
  22  :   -0.000012301   -0.000004845   -0.000006439
  23  :   -0.000008495   -0.000010860    0.000004150
  24  :    0.000010153    0.000006612    0.000007727
  25  :    0.000004164    0.000008756   -0.000001709
[...]
     29      -0.000128  -0.013977   0.001374  -0.003782  -0.000411   0.000180
     30       0.000500  -0.000851  -0.014359   0.005281  -0.001165  -0.001074
     31      -0.000322   0.000823   0.013417  -0.003566  -0.000439  -0.000906
     32      -0.002019   0.000773   0.012839  -0.003896   0.000117  -0.000189
     33       0.000015   0.000378  -0.000218   0.631416  -0.001739  -0.052126
     34      -0.000038  -0.000093   0.000391  -0.566487   0.001113   0.046764
     35       0.000167  -0.000186   0.000269  -0.514333   0.001185   0.042474
     36       0.001855   0.028795  -0.002354  -0.000082   0.000423  -0.000336
     37       0.001672   0.032521  -0.002738  -0.000084  -0.000356   0.000344
     38       0.001702   0.030277  -0.002532  -0.000019  -0.000250   0.000239
     39      -0.043808   0.003861   0.047723   0.000090  -0.000397  -0.000374
     40      -0.045163   0.003490   0.041756   0.000089   0.000407   0.000308
     41       0.020419  -0.001740  -0.021424   0.000008   0.000265   0.000232
     42       0.059703   0.004819   0.060640   0.000101  -0.000425  -0.000397
     43       0.019123   0.001379   0.016860   0.000085   0.000425   0.000334
     44       0.024596   0.001600   0.019346   0.000036   0.000536   0.000436
     45      -0.000765   0.026137  -0.002024  -0.000095   0.000516  -0.000416
     46      -0.001785   0.072882  -0.005790  -0.000106  -0.000357   0.000344
     47       0.000281  -0.003366   0.000202  -0.000004  -0.000544   0.000462
     48       0.003054   0.077362  -0.006777   0.000526  -0.004774   0.004223
     49      -0.001867  -0.049555   0.004347  -0.000166   0.003148  -0.002826
     50      -0.002158  -0.057941   0.005092  -0.000557   0.003757  -0.003199
     51       0.039162  -0.004614  -0.060995   0.000271   0.003809   0.003267
     52      -0.051341   0.005715   0.074988  -0.000450  -0.004406  -0.003795
     53      -0.042241   0.004936   0.065274  -0.000634  -0.004084  -0.003359
     54      -0.034339  -0.004222  -0.056728   0.000488   0.005171   0.004333
     55       0.046839   0.005370   0.071854  -0.000761  -0.005845  -0.004853
     56       0.041399   0.004666   0.062250  -0.000348  -0.005118  -0.004417
     57      -0.001215   0.095514  -0.008052   0.000760  -0.006660   0.005712
     58       0.000601  -0.057282   0.004864  -0.000448   0.004624  -0.003965
     59       0.000882  -0.069366   0.005842  -0.000282   0.005085  -0.004526
     60      -0.014752  -0.229755   0.018943   0.000051  -0.001207   0.000726
     61       0.004155   0.063876  -0.005305  -0.000100   0.000293  -0.000060
     62      -0.010214  -0.158667   0.013073   0.000171  -0.001067   0.000684
     63      -0.031110   0.002313   0.028204   0.000065   0.000010  -0.000118
     64       0.373914  -0.028726  -0.345524  -0.000220  -0.001397  -0.000800
     65      -0.174736   0.013375   0.160827   0.000227   0.000851   0.000510
     66      -0.164481  -0.011864  -0.146508  -0.000158  -0.001000  -0.000758
     67      -0.044236  -0.003237  -0.040041   0.000049  -0.000053  -0.000034
     68      -0.390973  -0.028031  -0.347478  -0.000352  -0.001802  -0.001082
     69       0.003749  -0.130934   0.010246   0.000031  -0.000429   0.000272
     70       0.007099  -0.246752   0.019285   0.000230  -0.001347   0.000988
     71      -0.010098   0.349457  -0.027372  -0.000315   0.001511  -0.000905
     72      -0.010412  -0.190285   0.015961   0.000060   0.000437  -0.000626
     73      -0.022060  -0.403181   0.033777  -0.000050   0.001186  -0.001439
     74      -0.007998  -0.144842   0.012124   0.000329   0.000655  -0.000755
     75       0.511338  -0.043672  -0.536961  -0.000042   0.001380   0.001594
     76       0.215802  -0.018411  -0.226631  -0.000132   0.000493   0.000652
     77      -0.029918   0.002475   0.030210   0.000323  -0.000328  -0.000325
     78      -0.511960  -0.041357  -0.520550  -0.000226   0.001739   0.001846
     79      -0.226901  -0.018403  -0.231965   0.000208   0.000482   0.000569
     80       0.053718   0.004384   0.055057  -0.000196  -0.000136  -0.000102
     81       0.006516  -0.274938   0.021942  -0.000161   0.000560  -0.000655
     82       0.013500  -0.565594   0.045082   0.000292   0.001712  -0.001853
     83       0.005696  -0.239959   0.019122  -0.000170   0.000603  -0.000623


-----------
IR SPECTRUM
-----------

 Mode   freq       eps      Int      T**2         TX        TY        TZ
       cm**-1   L/(mol*cm) km/mol    a.u.
----------------------------------------------------------------------------
  6:     26.89   0.000003    0.01  0.000032  ( 0.002120 -0.002585  0.004588)
  7:     34.82   0.000001    0.00  0.000009  ( 0.000179 -0.001814  0.002314)
  8:    122.20   0.000057    0.29  0.000146  ( 0.003745 -0.005662  0.010009)
  9:    150.83   0.000001    0.00  0.000002  ( 0.000694 -0.001083 -0.000446)
 10:    156.15   0.000060    0.30  0.000120  ( 0.006929 -0.006329 -0.005668)
 11:    247.51   0.000004    0.02  0.000005  (-0.002073  0.000538 -0.000420)
 12:    264.98   0.000003    0.01  0.000003  ( 0.000525  0.001688 -0.000331)
 13:    270.62   0.000007    0.03  0.000008  (-0.002382  0.000634  0.001287)
 14:    274.63   0.000014    0.07  0.000015  (-0.003367 -0.002031  0.000095)
 15:    297.40   0.000031    0.16  0.000033  (-0.001505  0.004249  0.003505)
 16:    307.72   0.000039    0.20  0.000039  ( 0.004969  0.003826 -0.000138)
 17:    359.93   0.000030    0.15  0.000026  (-0.003471 -0.003688 -0.000266)
 18:    397.36   0.000348    1.76  0.000274  ( 0.004984 -0.007535  0.013856)
 19:    441.51   0.000001    0.00  0.000001  ( 0.000590 -0.000093  0.000520)
 20:    457.07   0.000047    0.24  0.000032  (-0.003669  0.003237  0.002874)
 21:    553.35   0.000177    0.90  0.000100  (-0.007277 -0.006755 -0.001146)
 22:    631.60   0.000004    0.02  0.000002  (-0.000571  0.001202 -0.000151)
 23:    676.25   0.001100    5.56  0.000508  ( 0.015980  0.015634  0.002802)
 24:    683.58   0.008102   40.94  0.003699  (-0.016867  0.027959 -0.051307)
 25:    689.80   0.000138    0.70  0.000063  ( 0.003051 -0.002903  0.006698)
 26:    775.26   0.004724   23.87  0.001901  ( 0.011410 -0.020251  0.036894)
 27:    882.57   0.003171   16.02  0.001121  ( 0.009030 -0.015634  0.028199)
 28:    914.35   0.000064    0.32  0.000022  ( 0.003411  0.003022  0.001049)
 29:    919.14   0.000034    0.17  0.000012  ( 0.001097 -0.001400  0.002901)
 30:    920.43   0.000242    1.22  0.000082  (-0.005722  0.004997  0.004941)
 31:    943.21   0.000198    1.00  0.000065  (-0.002250  0.003860 -0.006738)
 32:    946.33   0.000277    1.40  0.000091  (-0.002306  0.004518 -0.008101)
 33:    967.80   0.000076    0.39  0.000025  ( 0.000767 -0.002839  0.003995)
 34:    968.12   0.000276    1.40  0.000089  (-0.002909  0.004640 -0.007681)
 35:   1038.06   0.001893    9.56  0.000569  (-0.017644 -0.015766 -0.003016)
 36:   1045.85   0.000302    1.53  0.000090  (-0.005381  0.005749  0.005307)
 37:   1093.60   0.000025    0.13  0.000007  ( 0.000102  0.002305  0.001396)
 38:   1113.02   0.002294   11.59  0.000643  (-0.016317  0.014216  0.013224)
 39:   1117.99   0.001748    8.84  0.000488  (-0.015013  0.012030  0.010860)
 40:   1173.82   0.000317    1.60  0.000084  ( 0.005551 -0.000176  0.007318)
 41:   1176.11   0.006446   32.58  0.001710  ( 0.031716  0.020382  0.017003)
 42:   1176.33   0.009327   47.14  0.002474  ( 0.031682  0.038198 -0.003396)
 43:   1202.24   0.000021    0.11  0.000005  (-0.000565  0.002179  0.000583)
 44:   1223.19   0.016181   81.77  0.004128  ( 0.046292  0.043560  0.009365)
 45:   1269.75   0.006237   31.52  0.001533  (-0.027993 -0.026755 -0.005778)
 46:   1347.57   0.000039    0.20  0.000009  ( 0.000477  0.001150  0.002722)
 47:   1349.55   0.000203    1.03  0.000047  ( 0.004747 -0.002378 -0.004338)
 48:   1351.22   0.000424    2.14  0.000098  ( 0.006010 -0.007186 -0.003204)
 49:   1370.04   0.008579   43.36  0.001954  ( 0.031943  0.029998  0.005820)
 50:   1405.25   0.000948    4.79  0.000210  ( 0.009295 -0.008852 -0.006758)
 51:   1412.29   0.000011    0.06  0.000002  ( 0.000905  0.000367 -0.001218)
 52:   1412.98   0.007607   38.45  0.001680  ( 0.013604 -0.017920  0.034263)
 53:   1422.68   0.004101   20.72  0.000900  ( 0.022544  0.019775  0.000495)
 54:   1426.69   0.002300   11.62  0.000503  (-0.012026  0.014231  0.012484)
 55:   1459.80   0.000019    0.09  0.000004  ( 0.001644 -0.000910  0.000672)
 56:   1460.60   0.000007    0.04  0.000001  ( 0.000084  0.000093  0.001212)
 57:   1467.54   0.000672    3.39  0.000143  (-0.004192  0.006144 -0.009352)
 58:   1470.30   0.000683    3.45  0.000145  ( 0.004402 -0.008314  0.007518)
 59:   1476.36   0.002722   13.75  0.000575  (-0.021134  0.003640  0.010741)
 60:   1478.96   0.002211   11.17  0.000467  (-0.002327 -0.018155 -0.011469)
 61:   1484.41   0.006399   32.34  0.001345  ( 0.023336 -0.019610 -0.020401)
 62:   1486.01   0.001313    6.64  0.000276  (-0.009023 -0.013370 -0.003952)
 63:   1499.40   0.000785    3.97  0.000163  ( 0.009657  0.008275  0.001273)
 64:   1508.92   0.000091    0.46  0.000019  (-0.002934  0.002390  0.002104)
 65:   1652.23   0.002256   11.40  0.000426  (-0.013848  0.010988  0.010656)
 66:   1653.39   0.028886  145.98  0.005452  (-0.053128 -0.050161 -0.010648)
 67:   3074.21   0.000707    3.57  0.000072  (-0.000696  0.002825 -0.007956)
 68:   3074.48   0.000910    4.60  0.000092  ( 0.001830 -0.003670  0.008691)
 69:   3075.84   0.000360    1.82  0.000037  ( 0.003202 -0.004724 -0.001998)
 70:   3076.05   0.000580    2.93  0.000059  ( 0.005935 -0.004854 -0.000305)
 71:   3127.91   0.000640    3.23  0.000064  (-0.005527  0.003774  0.004364)
 72:   3129.56   0.000704    3.56  0.000070  ( 0.004735 -0.005100 -0.004669)
 73:   3178.47   0.000461    2.33  0.000045  ( 0.002447 -0.004051  0.004784)
 74:   3178.97   0.000511    2.58  0.000050  (-0.003605  0.004128 -0.004487)
 75:   3181.53   0.001368    6.91  0.000134  ( 0.005852 -0.007381 -0.006740)
 76:   3181.91   0.002298   11.61  0.000225  ( 0.010128 -0.006801 -0.008750)
 77:   3192.75   0.000446    2.25  0.000044  (-0.002549  0.001856 -0.005798)
 78:   3193.13   0.000519    2.62  0.000051  ( 0.002001 -0.003460  0.005894)
 79:   3195.07   0.000506    2.56  0.000049  ( 0.003221  0.006180  0.000924)
 80:   3195.32   0.000381    1.93  0.000037  ( 0.005422  0.002794 -0.000204)
 81:   3294.40   0.005591   28.25  0.000530  ( 0.014630 -0.013202 -0.011884)
 82:   3299.27   0.003008   15.20  0.000284  (-0.012140 -0.011454 -0.002432)
 83:   3317.30   0.002593   13.10  0.000244  ( 0.010069 -0.008877 -0.007984)

* The epsilon (eps) is given for a Dirac delta lineshape.
** The dipole moment derivative (T) already includes vibrational overlap.

The first frequency considered to be a vibration is 6
The total number of vibrations considered is 78


--------------------------
THERMOCHEMISTRY AT 298.15K
--------------------------

Temperature         ... 298.15 K
Pressure            ... 1.00 atm
Total Mass          ... 153.25 AMU

Throughout the following assumptions are being made:
  (1) The electronic state is orbitally nondegenerate
  (2) There are no thermally accessible electronically excited states
  (3) Hindered rotations indicated by low frequency modes are not
      treated as such but are treated as vibrations and this may
      cause some error
  (4) All equations used are the standard statistical mechanics
      equations for an ideal gas
  (5) All vibrations are strictly harmonic

freq.      26.89  E(vib)   ...       0.55 
freq.      34.82  E(vib)   ...       0.54 
freq.     122.20  E(vib)   ...       0.43 
freq.     150.83  E(vib)   ...       0.40 
freq.     156.15  E(vib)   ...       0.40 
freq.     247.51  E(vib)   ...       0.31 
freq.     264.98  E(vib)   ...       0.29 
freq.     270.62  E(vib)   ...       0.29 
freq.     274.63  E(vib)   ...       0.28 
freq.     297.40  E(vib)   ...       0.27 
freq.     307.72  E(vib)   ...       0.26 
freq.     359.93  E(vib)   ...       0.22 
freq.     397.36  E(vib)   ...       0.20 
freq.     441.51  E(vib)   ...       0.17 
freq.     457.07  E(vib)   ...       0.16 
freq.     553.35  E(vib)   ...       0.12 
freq.     631.60  E(vib)   ...       0.09 
freq.     676.25  E(vib)   ...       0.08 
freq.     683.58  E(vib)   ...       0.07 
freq.     689.80  E(vib)   ...       0.07 
freq.     775.26  E(vib)   ...       0.05 
freq.     882.57  E(vib)   ...       0.04 
freq.     914.35  E(vib)   ...       0.03 
freq.     919.14  E(vib)   ...       0.03 
freq.     920.43  E(vib)   ...       0.03 
freq.     943.21  E(vib)   ...       0.03 
freq.     946.33  E(vib)   ...       0.03 
freq.     967.80  E(vib)   ...       0.03 
freq.     968.12  E(vib)   ...       0.03 
freq.    1038.06  E(vib)   ...       0.02 
freq.    1045.85  E(vib)   ...       0.02 
freq.    1093.60  E(vib)   ...       0.02 
freq.    1113.02  E(vib)   ...       0.01 
freq.    1117.99  E(vib)   ...       0.01 
freq.    1173.82  E(vib)   ...       0.01 
freq.    1176.11  E(vib)   ...       0.01 
freq.    1176.33  E(vib)   ...       0.01 
freq.    1202.24  E(vib)   ...       0.01 
freq.    1223.19  E(vib)   ...       0.01 
freq.    1269.75  E(vib)   ...       0.01 
freq.    1347.57  E(vib)   ...       0.01 
freq.    1349.55  E(vib)   ...       0.01 
freq.    1351.22  E(vib)   ...       0.01 
freq.    1370.04  E(vib)   ...       0.01 
freq.    1405.25  E(vib)   ...       0.00 
freq.    1412.29  E(vib)   ...       0.00 
freq.    1412.98  E(vib)   ...       0.00 
freq.    1422.68  E(vib)   ...       0.00 
freq.    1426.69  E(vib)   ...       0.00 
freq.    1459.80  E(vib)   ...       0.00 
freq.    1460.60  E(vib)   ...       0.00 
freq.    1467.54  E(vib)   ...       0.00 
freq.    1470.30  E(vib)   ...       0.00 
freq.    1476.36  E(vib)   ...       0.00 
freq.    1478.96  E(vib)   ...       0.00 
freq.    1484.41  E(vib)   ...       0.00 
freq.    1486.01  E(vib)   ...       0.00 
freq.    1499.40  E(vib)   ...       0.00 
freq.    1508.92  E(vib)   ...       0.00 
freq.    1652.23  E(vib)   ...       0.00 
freq.    1653.39  E(vib)   ...       0.00 
freq.    3074.21  E(vib)   ...       0.00 
freq.    3074.48  E(vib)   ...       0.00 
freq.    3075.84  E(vib)   ...       0.00 
freq.    3076.05  E(vib)   ...       0.00 
freq.    3127.91  E(vib)   ...       0.00 
freq.    3129.56  E(vib)   ...       0.00 
freq.    3178.47  E(vib)   ...       0.00 
freq.    3178.97  E(vib)   ...       0.00 
freq.    3181.53  E(vib)   ...       0.00 
freq.    3181.91  E(vib)   ...       0.00 
freq.    3192.75  E(vib)   ...       0.00 
freq.    3193.13  E(vib)   ...       0.00 
freq.    3195.07  E(vib)   ...       0.00 
freq.    3195.32  E(vib)   ...       0.00 
freq.    3294.40  E(vib)   ...       0.00 
freq.    3299.27  E(vib)   ...       0.00 
freq.    3317.30  E(vib)   ...       0.00 

------------
INNER ENERGY
------------

The inner energy is: U= E(el) + E(ZPE) + E(vib) + E(rot) + E(trans)
    E(el)   - is the total energy from the electronic structure calculation
              = E(kin-el) + E(nuc-el) + E(el-el) + E(nuc-nuc)
    E(ZPE)  - the the zero temperature vibrational energy from the frequency calculation
    E(vib)  - the the finite temperature correction to E(ZPE) due to population
              of excited vibrational states
    E(rot)  - is the rotational thermal energy
    E(trans)- is the translational thermal energy

Summary of contributions to the inner energy U:
Electronic energy                ...   -462.05978612 Eh
Zero point energy                ...      0.25623399 Eh     160.79 kcal/mol
Thermal vibrational correction   ...      0.00913525 Eh       5.73 kcal/mol
Thermal rotational correction    ...      0.00141627 Eh       0.89 kcal/mol
Thermal translational correction ...      0.00141627 Eh       0.89 kcal/mol
-----------------------------------------------------------------------
Total thermal energy                   -461.79158434 Eh


Summary of corrections to the electronic energy:
(perhaps to be used in another calculation)
Total thermal correction                  0.01196779 Eh       7.51 kcal/mol
Non-thermal (ZPE) correction              0.25623399 Eh     160.79 kcal/mol
-----------------------------------------------------------------------
Total correction                          0.26820178 Eh     168.30 kcal/mol


--------
ENTHALPY
--------

The enthalpy is H = U + kB*T
                kB is Boltzmann's constant
Total free energy                 ...   -461.79158434 Eh 
Thermal Enthalpy correction       ...      0.00094421 Eh       0.59 kcal/mol
-----------------------------------------------------------------------
Total Enthalpy                    ...   -461.79064013 Eh


Note: Only C1 symmetry has been detected, increase convergence thresholds 
      if your molecule has a higher symmetry. Symmetry factor of 1.0 is   
      used for the rotational entropy correction. 
 

Note: Rotational entropy computed according to Herzberg 
Infrared and Raman Spectra, Chapter V,1, Van Nostrand Reinhold, 1945 
Point Group:  C1, Symmetry Number:   1  
Rotational constants in cm-1:     0.089660     0.018409     0.017771 

Vibrational entropy computed according to the QRRHO of S. Grimme
Chem.Eur.J. 2012 18 9955


-------
ENTROPY
-------

The entropy contributions are T*S = T*(S(el)+S(vib)+S(rot)+S(trans))
     S(el)   - electronic entropy
     S(vib)  - vibrational entropy
     S(rot)  - rotational entropy
     S(trans)- translational entropy
The entropies will be listed as multiplied by the temperature to get
units of energy

Electronic entropy                ...      0.00000000 Eh      0.00 kcal/mol
Vibrational entropy               ...      0.01583774 Eh      9.94 kcal/mol
Rotational entropy                ...      0.01443795 Eh      9.06 kcal/mol
Translational entropy             ...      0.01947584 Eh     12.22 kcal/mol
-----------------------------------------------------------------------
Final entropy term                ...      0.04975154 Eh     31.22 kcal/mol

In case the symmetry of your molecule has not been determined correctly
or in case you have a reason to use a different symmetry number we print 
out the resulting rotational entropy values for sn=1,12 :
 --------------------------------------------------------
|  sn= 1 | S(rot)=       0.01443795 Eh      9.06 kcal/mol|
|  sn= 2 | S(rot)=       0.01378350 Eh      8.65 kcal/mol|
|  sn= 3 | S(rot)=       0.01340067 Eh      8.41 kcal/mol|
|  sn= 4 | S(rot)=       0.01312904 Eh      8.24 kcal/mol|
|  sn= 5 | S(rot)=       0.01291835 Eh      8.11 kcal/mol|
|  sn= 6 | S(rot)=       0.01274621 Eh      8.00 kcal/mol|
|  sn= 7 | S(rot)=       0.01260066 Eh      7.91 kcal/mol|
|  sn= 8 | S(rot)=       0.01247459 Eh      7.83 kcal/mol|
|  sn= 9 | S(rot)=       0.01236338 Eh      7.76 kcal/mol|
|  sn=10 | S(rot)=       0.01226390 Eh      7.70 kcal/mol|
|  sn=11 | S(rot)=       0.01217391 Eh      7.64 kcal/mol|
|  sn=12 | S(rot)=       0.01209175 Eh      7.59 kcal/mol|
 --------------------------------------------------------


-------------------
GIBBS FREE ENERGY
-------------------

The Gibbs free energy is G = H - T*S

Total enthalpy                    ...   -461.79064013 Eh 
Total entropy correction          ...     -0.04975154 Eh    -31.22 kcal/mol
-----------------------------------------------------------------------
Final Gibbs free energy         ...   -461.84039167 Eh

For completeness - the Gibbs free energy minus the electronic energy
G-E(el)                           ...      0.21939445 Eh    137.67 kcal/mol


Timings for individual modules:

Sum of individual times         ...     1846.713 sec (=  30.779 min)
GTO integral calculation        ...        0.372 sec (=   0.006 min)   0.0 %
SCF iterations                  ...      390.167 sec (=   6.503 min)  21.1 %
Analytical frequency calculation...     1456.173 sec (=  24.270 min)  78.9 %
                             ****ORCA TERMINATED NORMALLY****
TOTAL RUN TIME: 0 days 0 hours 30 minutes 47 seconds 72 msec
