
                                 *****************
                                 * O   R   C   A *
                                 *****************

                                            #,                                       
                                            ###                                      
                                            ####                                     
                                            #####                                    
                                            ######                                   
                                           ########,                                 
                                     ,,################,,,,,                         
                               ,,#################################,,                 
                          ,,##########################################,,             
                       ,#########################################, ''#####,          
                    ,#############################################,,   '####,        
                  ,##################################################,,,,####,       
                ,###########''''           ''''###############################       
              ,#####''   ,,,,##########,,,,          '''####'''          '####       
            ,##' ,,,,###########################,,,                        '##       
           ' ,,###''''                  '''############,,,                           
         ,,##''                                '''############,,,,        ,,,,,,###''
      ,#''                                            '''#######################'''  
     '                                                          ''''####''''         
             ,#######,   #######,   ,#######,      ##                                
            ,#'     '#,  ##    ##  ,#'     '#,    #''#        ######   ,####,        
            ##       ##  ##   ,#'  ##            #'  '#       #        #'  '#        
            ##       ##  #######   ##           ,######,      #####,   #    #        
            '#,     ,#'  ##    ##  '#,     ,#' ,#      #,         ##   #,  ,#        
             '#######'   ##     ##  '#######'  #'      '#     #####' # '####'        



                  #######################################################
                  #                        -***-                        #
                  #          Department of theory and spectroscopy      #
                  #    Directorship and core code : Frank Neese         #
                  #        Max Planck Institute fuer Kohlenforschung    #
                  #                Kaiser Wilhelm Platz 1               #
                  #                 D-45470 Muelheim/Ruhr               #
                  #                      Germany                        #
                  #                                                     #
                  #                  All rights reserved                #
                  #                        -***-                        #
                  #######################################################


                         Program Version 5.0.4 -  RELEASE  -


 With contributions from (in alphabetic order):
   Daniel Aravena         : Magnetic Suceptibility
   Michael Atanasov       : Ab Initio Ligand Field Theory (pilot matlab implementation)
   Alexander A. Auer      : GIAO ZORA, VPT2 properties, NMR spectrum
   Ute Becker             : Parallelization
   Giovanni Bistoni       : ED, misc. LED, open-shell LED, HFLD
   Martin Brehm           : Molecular dynamics
   Dmytro Bykov           : SCF Hessian
   Vijay G. Chilkuri      : MRCI spin determinant printing, contributions to CSF-ICE
   Dipayan Datta          : RHF DLPNO-CCSD density
   Achintya Kumar Dutta   : EOM-CC, STEOM-CC
   Dmitry Ganyushin       : Spin-Orbit,Spin-Spin,Magnetic field MRCI
   Miquel Garcia          : C-PCM and meta-GGA Hessian, CC/C-PCM, Gaussian charge scheme
   Yang Guo               : DLPNO-NEVPT2, F12-NEVPT2, CIM, IAO-localization
   Andreas Hansen         : Spin unrestricted coupled pair/coupled cluster methods
   Benjamin Helmich-Paris : MC-RPA, TRAH-SCF, COSX integrals
   Lee Huntington         : MR-EOM, pCC
   Robert Izsak           : Overlap fitted RIJCOSX, COSX-SCS-MP3, EOM
   Marcus Kettner         : VPT2
   Christian Kollmar      : KDIIS, OOCD, Brueckner-CCSD(T), CCSD density, CASPT2, CASPT2-K
   Simone Kossmann        : Meta GGA functionals, TD-DFT gradient, OOMP2, MP2 Hessian
   Martin Krupicka        : Initial AUTO-CI
   Lucas Lang             : DCDCAS
   Marvin Lechner         : AUTO-CI (C++ implementation), FIC-MRCC
   Dagmar Lenk            : GEPOL surface, SMD
   Dimitrios Liakos       : Extrapolation schemes; Compound Job, initial MDCI parallelization
   Dimitrios Manganas     : Further ROCIS development; embedding schemes
   Dimitrios Pantazis     : SARC Basis sets
   Anastasios Papadopoulos: AUTO-CI, single reference methods and gradients
   Taras Petrenko         : DFT Hessian,TD-DFT gradient, ASA, ECA, R-Raman, ABS, FL, XAS/XES, NRVS
   Peter Pinski           : DLPNO-MP2, DLPNO-MP2 Gradient
   Christoph Reimann      : Effective Core Potentials
   Marius Retegan         : Local ZFS, SOC
   Christoph Riplinger    : Optimizer, TS searches, QM/MM, DLPNO-CCSD(T), (RO)-DLPNO pert. Triples
   Tobias Risthaus        : Range-separated hybrids, TD-DFT gradient, RPA, STAB
   Michael Roemelt        : Original ROCIS implementation
   Masaaki Saitow         : Open-shell DLPNO-CCSD energy and density
   Barbara Sandhoefer     : DKH picture change effects
   Avijit Sen             : IP-ROCIS
   Kantharuban Sivalingam : CASSCF convergence, NEVPT2, FIC-MRCI
   Bernardo de Souza      : ESD, SOC TD-DFT
   Georgi Stoychev        : AutoAux, RI-MP2 NMR, DLPNO-MP2 response
   Willem Van den Heuvel  : Paramagnetic NMR
   Boris Wezisla          : Elementary symmetry handling
   Frank Wennmohs         : Technical directorship


 We gratefully acknowledge several colleagues who have allowed us to
 interface, adapt or use parts of their codes:
   Stefan Grimme, W. Hujo, H. Kruse, P. Pracht,  : VdW corrections, initial TS optimization,
                  C. Bannwarth, S. Ehlert          DFT functionals, gCP, sTDA/sTD-DF
   Ed Valeev, F. Pavosevic, A. Kumar             : LibInt (2-el integral package), F12 methods
   Garnet Chan, S. Sharma, J. Yang, R. Olivares  : DMRG
   Ulf Ekstrom                                   : XCFun DFT Library
   Mihaly Kallay                                 : mrcc  (arbitrary order and MRCC methods)
   Jiri Pittner, Ondrej Demel                    : Mk-CCSD
   Frank Weinhold                                : gennbo (NPA and NBO analysis)
   Christopher J. Cramer and Donald G. Truhlar   : smd solvation model
   Lars Goerigk                                  : TD-DFT with DH, B97 family of functionals
   V. Asgeirsson, H. Jonsson                     : NEB implementation
   FAccTs GmbH                                   : IRC, NEB, NEB-TS, DLPNO-Multilevel, CI-OPT
                                                   MM, QMMM, 2- and 3-layer-ONIOM, Crystal-QMMM,
                                                   LR-CPCM, SF, NACMEs, symmetry and pop. for TD-DFT,
                                                   nearIR, NL-DFT gradient (VV10), updates on ESD,
                                                   ML-optimized integration grids
   S Lehtola, MJT Oliveira, MAL Marques          : LibXC Library
   Liviu Ungur et al                             : ANISO software


 Your calculation uses the libint2 library for the computation of 2-el integrals
 For citations please refer to: http://libint.valeyev.net

 Your ORCA version has been built with support for libXC version: 5.1.0
 For citations please refer to: https://tddft.org/programs/libxc/

 This ORCA versions uses:
   CBLAS   interface :  Fast vector & matrix operations
   LAPACKE interface :  Fast linear algebra routines
   SCALAPACK package :  Parallel linear algebra routines
   Shared memory     :  Shared parallel matrices
   BLAS/LAPACK       :  OpenBLAS 0.3.15  USE64BITINT DYNAMIC_ARCH NO_AFFINITY SkylakeX SINGLE_THREADED
        Core in use  :  SkylakeX
   Copyright (c) 2011-2014, The OpenBLAS Project


Your calculation utilizes the atom-pairwise dispersion correction
based on tight binding partial charges (D4)
Cite in your paper:
E.Caldeweyher, C.Bannwarth, S.Grimme, J.Chem.Phys., (2017), 147, 034112.
E.Caldeweyher, S.Ehlert, A.Hansen, H.Neugebauer, S.Grimme, J.Chem.Phys., (2018), in progress.
   

XCFun DFT library Copyright 2009-2010 Ulf Ekstrom and contributors.
See http://admol.org/xcfun for more information.
This is free software; see the source code for copying conditions.
There is ABSOLUTELY NO WARRANTY; not even for MERCHANTABILITY or FITNESS FOR A PARTICULAR PURPOSE.
For details see the documentation.
Scientific users of this library should cite U. Ekstrom, L. Visscher, R. Bast, A. J. Thorvaldsen and K. Ruud;
J.Chem.Theor.Comp. 2010, DOI: 10.1021/ct100117s
XCFun Version 0.99 

================================================================================

----- Orbital basis set information -----
Your calculation utilizes the basis: def2-SVP
   F. Weigend and R. Ahlrichs, Phys. Chem. Chem. Phys. 7, 3297 (2005).

----- AuxJ basis set information -----
Your calculation utilizes the auxiliary basis: def2/J
   F. Weigend, Phys. Chem. Chem. Phys. 8, 1057 (2006).

================================================================================
                                        WARNINGS
                       Please study these warnings very carefully!
================================================================================


INFO   : the flag for use of the SHARK integral package has been found!

================================================================================
                                       INPUT FILE
================================================================================
NAME = DFT_water_outs/4-gasSP.inp
|  1> ! SP wB97X D4 def2-SVP def2/J defgrid2 
|  2> %maxcore 3000
|  3> %PAL NPROCS 4 END
|  4> * xyz 0 1
|  5> C 0.0 2.4565 0.5532
|  6> C -0.0 -2.4565 0.5532
|  7> N 0.0 1.0633 0.0996
|  8> N 0.0 -1.0633 0.0996
|  9> C 0.0 0.6781 -1.2312
| 10> C 0.0 -0.6781 -1.2312
| 11> C 0.0 0.0 0.9467
| 12> C 1.268 3.1766 0.1076
| 13> C -1.268 3.1766 0.1076
| 14> C -1.268 -3.1766 0.1076
| 15> C 1.268 -3.1766 0.1076
| 16> H 0.0 1.3852 -2.0596
| 17> H 0.0 -1.3852 -2.0596
| 18> H 0.0 2.3813 1.6511
| 19> H -0.0 -2.3813 1.6511
| 20> H 1.3124 3.2621 -0.9905
| 21> H -1.3124 3.2621 -0.9905
| 22> H -1.3124 -3.2621 -0.9905
| 23> H 1.3124 -3.2621 -0.9905
| 24> H 1.2924 4.1938 0.5266
| 25> H -1.2924 4.1938 0.5267
| 26> H -1.2924 -4.1938 0.5266
| 27> H 1.2924 -4.1938 0.5267
| 28> H 2.1645 2.6383 0.451
| 29> H -2.1645 2.6383 0.451
| 30> H -2.1645 -2.6383 0.451
| 31> H 2.1645 -2.6383 0.451
| 32> **                         ****END OF INPUT****
================================================================================

                       ****************************
                       * Single Point Calculation *
                       ****************************

---------------------------------
CARTESIAN COORDINATES (ANGSTROEM)
---------------------------------
  C      0.000000    2.456500    0.553200
  C     -0.000000   -2.456500    0.553200
  N      0.000000    1.063300    0.099600
  N      0.000000   -1.063300    0.099600
  C      0.000000    0.678100   -1.231200
  C      0.000000   -0.678100   -1.231200
  C      0.000000    0.000000    0.946700
  C      1.268000    3.176600    0.107600
  C     -1.268000    3.176600    0.107600
  C     -1.268000   -3.176600    0.107600
  C      1.268000   -3.176600    0.107600
  H      0.000000    1.385200   -2.059600
  H      0.000000   -1.385200   -2.059600
  H      0.000000    2.381300    1.651100
  H     -0.000000   -2.381300    1.651100
  H      1.312400    3.262100   -0.990500
  H     -1.312400    3.262100   -0.990500
  H     -1.312400   -3.262100   -0.990500
  H      1.312400   -3.262100   -0.990500
  H      1.292400    4.193800    0.526600
  H     -1.292400    4.193800    0.526700
  H     -1.292400   -4.193800    0.526600
  H      1.292400   -4.193800    0.526700
  H      2.164500    2.638300    0.451000
  H     -2.164500    2.638300    0.451000
  H     -2.164500   -2.638300    0.451000
  H      2.164500   -2.638300    0.451000

----------------------------
CARTESIAN COORDINATES (A.U.)
----------------------------
  NO LB      ZA    FRAG     MASS         X           Y           Z
   0 C     6.0000    0    12.011    0.000000    4.642112    1.045396
   1 C     6.0000    0    12.011   -0.000000   -4.642112    1.045396
   2 N     7.0000    0    14.007    0.000000    2.009346    0.188217
   3 N     7.0000    0    14.007    0.000000   -2.009346    0.188217
   4 C     6.0000    0    12.011    0.000000    1.281423   -2.326631
   5 C     6.0000    0    12.011    0.000000   -1.281423   -2.326631
   6 C     6.0000    0    12.011    0.000000    0.000000    1.789004
   7 C     6.0000    0    12.011    2.396173    6.002904    0.203335
   8 C     6.0000    0    12.011   -2.396173    6.002904    0.203335
   9 C     6.0000    0    12.011   -2.396173   -6.002904    0.203335
  10 C     6.0000    0    12.011    2.396173   -6.002904    0.203335
  11 H     1.0000    0     1.008    0.000000    2.617649   -3.892080
  12 H     1.0000    0     1.008    0.000000   -2.617649   -3.892080
  13 H     1.0000    0     1.008    0.000000    4.500005    3.120127
  14 H     1.0000    0     1.008   -0.000000   -4.500005    3.120127
  15 H     1.0000    0     1.008    2.480077    6.164476   -1.871774
  16 H     1.0000    0     1.008   -2.480077    6.164476   -1.871774
  17 H     1.0000    0     1.008   -2.480077   -6.164476   -1.871774
  18 H     1.0000    0     1.008    2.480077   -6.164476   -1.871774
  19 H     1.0000    0     1.008    2.442282    7.925133    0.995130
  20 H     1.0000    0     1.008   -2.442282    7.925133    0.995319
  21 H     1.0000    0     1.008   -2.442282   -7.925133    0.995130
  22 H     1.0000    0     1.008    2.442282   -7.925133    0.995319
  23 H     1.0000    0     1.008    4.090312    4.985664    0.852266
  24 H     1.0000    0     1.008   -4.090312    4.985664    0.852266
  25 H     1.0000    0     1.008   -4.090312   -4.985664    0.852266
  26 H     1.0000    0     1.008    4.090312   -4.985664    0.852266

--------------------------------
INTERNAL COORDINATES (ANGSTROEM)
--------------------------------
 C      0   0   0     0.000000000000     0.00000000     0.00000000
 C      1   0   0     4.913000000000     0.00000000     0.00000000
 N      1   2   0     1.465182309476    18.03428557     0.00000000
 N      2   1   3     1.465182309476    18.03428557     0.00000000
 C      3   1   2     1.385426894499   124.17736987   180.00000000
 C      5   3   1     1.356200000000   106.14308430   180.00000000
 C      3   1   2     1.359479790214   123.42240768     0.00000000
 C      1   2   4     1.524771251696   118.18158978   289.36247266
 C      1   2   4     1.524771251696   118.18158978    70.63752734
 C      2   1   3     1.524771251696   118.18158978   289.36247266
 C      2   1   3     1.524771251696   118.18158978    70.63752734
 H      5   3   1     1.089145063800   123.37373416     0.00000000
 H      6   5   3     1.089145063800   130.48318154   180.00000085
 H      1   2   4     1.100472375846    86.08167998   180.00000121
 H      2   1   3     1.100472375846    86.08167998   180.00000121
 H      8   1   2     1.102318111980   111.17691916    83.50019442
 H      9   1   2     1.102318111980   111.17691916   276.49980558
 H     10   2   1     1.102318111980   111.17691916    83.50019442
 H     11   2   1     1.102318111980   111.17691916   276.49980558
 H      8   1   2     1.100387295456   110.10410588   202.97788371
 H      9   1   2     1.100425376843   110.10175981   157.01763938
 H     10   2   1     1.100387295456   110.10410588   202.97788371
 H     11   2   1     1.100425376843   110.10175981   157.01763938
 H      8   1   2     1.100637406233   110.80604164   322.85896659
 H      9   1   2     1.100637406233   110.80604164    37.14103341
 H     10   2   1     1.100637406233   110.80604164   322.85896659
 H     11   2   1     1.100637406233   110.80604164    37.14103341

---------------------------
INTERNAL COORDINATES (A.U.)
---------------------------
 C      0   0   0     0.000000000000     0.00000000     0.00000000
 C      1   0   0     9.284224495955     0.00000000     0.00000000
 N      1   2   0     2.768793301175    18.03428557     0.00000000
 N      2   1   3     2.768793301175    18.03428557     0.00000000
 C      3   1   2     2.618077409171   124.17736987   180.00000000
 C      5   3   1     2.562846582824   106.14308430   180.00000000
 C      3   1   2     2.569044488105   123.42240768     0.00000000
 C      1   2   4     2.881400082583   118.18158978   289.36247266
 C      1   2   4     2.881400082583   118.18158978    70.63752734
 C      2   1   3     2.881400082583   118.18158978   289.36247266
 C      2   1   3     2.881400082583   118.18158978    70.63752734
 H      5   3   1     2.058185890694   123.37373416     0.00000000
 H      6   5   3     2.058185890694   130.48318154   180.00000085
 H      1   2   4     2.079591408294    86.08167998   180.00000121
 H      2   1   3     2.079591408294    86.08167998   180.00000121
 H      8   1   2     2.083079344104   111.17691916    83.50019442
 H      9   1   2     2.083079344104   111.17691916   276.49980558
 H     10   2   1     2.083079344104   111.17691916    83.50019442
 H     11   2   1     2.083079344104   111.17691916   276.49980558
 H      8   1   2     2.079430629657   110.10410588   202.97788371
 H      9   1   2     2.079502593050   110.10175981   157.01763938
 H     10   2   1     2.079430629657   110.10410588   202.97788371
 H     11   2   1     2.079502593050   110.10175981   157.01763938
 H      8   1   2     2.079903270530   110.80604164   322.85896659
 H      9   1   2     2.079903270530   110.80604164    37.14103341
 H     10   2   1     2.079903270530   110.80604164   322.85896659
 H     11   2   1     2.079903270530   110.80604164    37.14103341

---------------------
BASIS SET INFORMATION
---------------------
There are 3 groups of distinct atoms

 Group   1 Type C   : 7s4p1d contracted to 3s2p1d pattern {511/31/1}
 Group   2 Type N   : 7s4p1d contracted to 3s2p1d pattern {511/31/1}
 Group   3 Type H   : 4s1p contracted to 2s1p pattern {31/1}

Atom   0C    basis set group =>   1
Atom   1C    basis set group =>   1
Atom   2N    basis set group =>   2
Atom   3N    basis set group =>   2
Atom   4C    basis set group =>   1
Atom   5C    basis set group =>   1
Atom   6C    basis set group =>   1
Atom   7C    basis set group =>   1
Atom   8C    basis set group =>   1
Atom   9C    basis set group =>   1
Atom  10C    basis set group =>   1
Atom  11H    basis set group =>   3
Atom  12H    basis set group =>   3
Atom  13H    basis set group =>   3
Atom  14H    basis set group =>   3
Atom  15H    basis set group =>   3
Atom  16H    basis set group =>   3
Atom  17H    basis set group =>   3
Atom  18H    basis set group =>   3
Atom  19H    basis set group =>   3
Atom  20H    basis set group =>   3
Atom  21H    basis set group =>   3
Atom  22H    basis set group =>   3
Atom  23H    basis set group =>   3
Atom  24H    basis set group =>   3
Atom  25H    basis set group =>   3
Atom  26H    basis set group =>   3
---------------------------------
AUXILIARY/J BASIS SET INFORMATION
---------------------------------
There are 3 groups of distinct atoms

 Group   1 Type C   : 12s5p4d2f1g contracted to 6s4p3d1f1g pattern {711111/2111/211/2/1}
 Group   2 Type N   : 12s5p4d2f1g contracted to 6s4p3d1f1g pattern {711111/2111/211/2/1}
 Group   3 Type H   : 5s2p1d contracted to 3s1p1d pattern {311/2/1}

Atom   0C    basis set group =>   1
Atom   1C    basis set group =>   1
Atom   2N    basis set group =>   2
Atom   3N    basis set group =>   2
Atom   4C    basis set group =>   1
Atom   5C    basis set group =>   1
Atom   6C    basis set group =>   1
Atom   7C    basis set group =>   1
Atom   8C    basis set group =>   1
Atom   9C    basis set group =>   1
Atom  10C    basis set group =>   1
Atom  11H    basis set group =>   3
Atom  12H    basis set group =>   3
Atom  13H    basis set group =>   3
Atom  14H    basis set group =>   3
Atom  15H    basis set group =>   3
Atom  16H    basis set group =>   3
Atom  17H    basis set group =>   3
Atom  18H    basis set group =>   3
Atom  19H    basis set group =>   3
Atom  20H    basis set group =>   3
Atom  21H    basis set group =>   3
Atom  22H    basis set group =>   3
Atom  23H    basis set group =>   3
Atom  24H    basis set group =>   3
Atom  25H    basis set group =>   3
Atom  26H    basis set group =>   3


           ************************************************************
           *        Program running with 4 parallel MPI-processes     *
           *              working on a common directory               *
           ************************************************************
------------------------------------------------------------------------------
                           ORCA GTO INTEGRAL CALCULATION
                           -- RI-GTO INTEGRALS CHOSEN --
------------------------------------------------------------------------------
------------------------------------------------------------------------------
                   ___                                                        
                  /   \      - P O W E R E D   B Y -                         
                 /     \                                                     
                 |  |  |   _    _      __       _____    __    __             
                 |  |  |  | |  | |    /  \     |  _  \  |  |  /  |          
                  \  \/   | |  | |   /    \    | | | |  |  | /  /          
                 / \  \   | |__| |  /  /\  \   | |_| |  |  |/  /          
                |  |  |   |  __  | /  /__\  \  |    /   |      \           
                |  |  |   | |  | | |   __   |  |    \   |  |\   \          
                \     /   | |  | | |  |  |  |  | |\  \  |  | \   \       
                 \___/    |_|  |_| |__|  |__|  |_| \__\ |__|  \__/        
                                                                              
                      - O R C A' S   B I G   F R I E N D -                    
                                      &                                       
                       - I N T E G R A L  F E E D E R -                       
                                                                              
 v1 FN, 2020, v2 2021                                                         
------------------------------------------------------------------------------


Reading SHARK input file DFT_water_outs/4-gasSP.SHARKINP.tmp ... ok
----------------------
SHARK INTEGRAL PACKAGE
----------------------

Number of atoms                             ...     27
Number of basis functions                   ...    234
Number of shells                            ...    114
Maximum angular momentum                    ...      2
Integral batch strategy                     ... SHARK/LIBINT Hybrid
RI-J (if used) integral strategy            ... SPLIT-RIJ (Revised 2003 algorithm where possible)
Printlevel                                  ...      1
Contraction scheme used                     ... SEGMENTED contraction
Coulomb Range Separation                    ... NOT USED
Exchange Range Separation                   ... Long Range
   Mu parameter                             ...  0.300000
   Scaling (regular/separated)              ...  0.157706  0.842294
Finite Nucleus Model                        ... NOT USED
Auxiliary Coulomb fitting basis             ... AVAILABLE
   # of basis functions in Aux-J            ...    715
   # of shells in Aux-J                     ...    245
   Maximum angular momentum in Aux-J        ...      4
Auxiliary J/K fitting basis                 ... NOT available
Auxiliary Correlation fitting basis         ... NOT available
Auxiliary 'external' fitting basis          ... NOT available
Integral threshold                          ...     1.000000e-10
Primitive cut-off                           ...     1.000000e-11
Primitive pair pre-selection threshold      ...     1.000000e-11

Calculating pre-screening integrals         ... done (  0.0 sec) Dimension = 114
Organizing shell pair data                  ... done (  0.0 sec)
Shell pair information
Total number of shell pairs                 ...      6555
Shell pairs after pre-screening             ...      5603
Total number of primitive shell pairs       ...     22769
Primitive shell pairs kept                  ...     13757
          la=0 lb=0:   1891 shell pairs
          la=1 lb=0:   2098 shell pairs
          la=1 lb=1:    614 shell pairs
          la=2 lb=0:    601 shell pairs
          la=2 lb=1:    342 shell pairs
          la=2 lb=2:     57 shell pairs

Calculating one electron integrals          ... done (  0.0 sec)
Calculating RI/J V-Matrix + Cholesky decomp.... done (  0.6 sec)
Calculating Nuclear repulsion               ... done (  0.0 sec) ENN=    631.238471730548 Eh

SHARK setup successfully completed in   1.7 seconds

Maximum memory used throughout the entire GTOINT-calculation: 14.0 MB


           ************************************************************
           *        Program running with 4 parallel MPI-processes     *
           *              working on a common directory               *
           ************************************************************
-------------------------------------------------------------------------------
                                 ORCA SCF
-------------------------------------------------------------------------------

------------
SCF SETTINGS
------------
Hamiltonian:
 Density Functional     Method          .... DFT(GTOs)
 Exchange Functional    Exchange        .... WB97X
 Correlation Functional Correlation     .... WB97X
 Gradients option       PostSCFGGA      .... off
 Hybrid DFT is turned on
   Fraction HF Exchange ScalHFX         ....  0.157706
   Scaling of DF-GGA-X  ScalDFX         ....  0.000000
   Scaling of DF-GGA-C  ScalDFC         ....  1.000000
   Scaling of DF-LDA-C  ScalLDAC        ....  1.000000
   Perturbative correction              ....  0.000000
   Density functional embedding theory  .... OFF
 Long-range corrected/Screened/Range-Separated Hybrid DFT is turned on
   Amount of maximum screened exact exchange              ....  0.842294
   Range separation parameter mu (erf(mu*r12)/r12)        ....  0.300000
 RI-approximation to the Coulomb term is turned on
   Number of AuxJ basis functions       .... 715
   RIJ-COSX (HFX calculated with COS-X)).... on


General Settings:
 Integral files         IntName         .... DFT_water_outs/4-gasSP
 Hartree-Fock type      HFTyp           .... RHF
 Total Charge           Charge          ....    0
 Multiplicity           Mult            ....    1
 Number of Electrons    NEL             ....   84
 Basis Dimension        Dim             ....  234
 Nuclear Repulsion      ENuc            ....    631.2384717305 Eh

Convergence Acceleration:
 DIIS                   CNVDIIS         .... on
   Start iteration      DIISMaxIt       ....    12
   Startup error        DIISStart       ....  0.200000
   # of expansion vecs  DIISMaxEq       ....     5
   Bias factor          DIISBfac        ....   1.050
   Max. coefficient     DIISMaxC        ....  10.000
 Trust-Rad. Augm. Hess. CNVTRAH         .... auto
   Auto Start mean grad. ratio tolernc. ....  1.125000
   Auto Start start iteration           ....    20
   Auto Start num. interpolation iter.  ....    10
   Max. Number of Micro iterations      ....    16
   Max. Number of Macro iterations      .... Maxiter - #DIIS iter
   Number of Davidson start vectors     ....     2
   Converg. threshold I  (grad. norm)   ....   5.000e-05
   Converg. threshold II (energy diff.) ....   1.000e-06
   Grad. Scal. Fac. for Micro threshold ....   0.100
   Minimum threshold for Micro iter.    ....   0.010
   NR start threshold (gradient norm)   ....   0.001
   Initial trust radius                 ....   0.400
   Minimum AH scaling param. (alpha)    ....   1.000
   Maximum AH scaling param. (alpha)    .... 1000.000
   Orbital update algorithm             .... Taylor
   White noise on init. David. guess    .... on
   Maximum white noise                  ....   0.010
   Quad. conv. algorithm                .... NR
 SOSCF                  CNVSOSCF        .... on
   Start iteration      SOSCFMaxIt      ....   150
   Startup grad/error   SOSCFStart      ....  0.003300
 Level Shifting         CNVShift        .... on
   Level shift para.    LevelShift      ....    0.2500
   Turn off err/grad.   ShiftErr        ....    0.0010
 Zerner damping         CNVZerner       .... off
 Static damping         CNVDamp         .... on
   Fraction old density DampFac         ....    0.7000
   Max. Damping (<1)    DampMax         ....    0.9800
   Min. Damping (>=0)   DampMin         ....    0.0000
   Turn off err/grad.   DampErr         ....    0.1000
 Fernandez-Rico         CNVRico         .... off

SCF Procedure:
 Maximum # iterations   MaxIter         ....   125
 SCF integral mode      SCFMode         .... Direct
   Integral package                     .... SHARK and LIBINT hybrid scheme
 Reset frequency        DirectResetFreq ....    20
 Integral Threshold     Thresh          ....  1.000e-10 Eh
 Primitive CutOff       TCut            ....  1.000e-11 Eh

Convergence Tolerance:
 Convergence Check Mode ConvCheckMode   .... Total+1el-Energy
 Convergence forced     ConvForced      .... 0
 Energy Change          TolE            ....  1.000e-06 Eh
 1-El. energy change                    ....  1.000e-03 Eh
 Orbital Gradient       TolG            ....  5.000e-05
 Orbital Rotation angle TolX            ....  5.000e-05
 DIIS Error             TolErr          ....  1.000e-06


Diagonalization of the overlap matrix:
Smallest eigenvalue                        ... 1.153e-03
Time for diagonalization                   ...    0.120 sec
Threshold for overlap eigenvalues          ... 1.000e-08
Number of eigenvalues below threshold      ... 0
Time for construction of square roots      ...    0.007 sec
Total time needed                          ...    0.128 sec

Time for model grid setup =    0.629 sec

------------------------------
INITIAL GUESS: MODEL POTENTIAL
------------------------------
Loading Hartree-Fock densities                     ... done
Calculating cut-offs                               ... done
Initializing the effective Hamiltonian             ... done
Setting up the integral package (SHARK)            ... done
Starting the Coulomb interaction                   ... done (   0.4 sec)
Reading the grid                                   ... done
Mapping shells                                     ... done
Starting the XC term evaluation                    ... done (   0.1 sec)
  promolecular density results
     # of electrons  =     83.985162653
     EX              =    -63.841340497
     EC              =     -2.773811934
     EX+EC           =    -66.615152431
Transforming the Hamiltonian                       ... done (   0.0 sec)
Diagonalizing the Hamiltonian                      ... done (   0.0 sec)
Back transforming the eigenvectors                 ... done (   0.0 sec)
Now organizing SCF variables                       ... done
                      ------------------
                      INITIAL GUESS DONE (   1.2 sec)
                      ------------------
-------------------
DFT GRID GENERATION
-------------------

General Integration Accuracy     IntAcc      ... 4.388
Radial Grid Type                 RadialGrid  ... OptM3 with GC (2021)
Angular Grid (max. ang.)         AngularGrid ... 4 (Lebedev-302)
Angular grid pruning method      GridPruning ... 4 (adaptive)
Weight generation scheme         WeightScheme... Becke
Basis function cutoff            BFCut       ... 1.0000e-10
Integration weight cutoff        WCut        ... 1.0000e-14
Angular grids for H and He will be reduced by one unit
Partially contracted basis set               ... off
Rotationally invariant grid construction     ... off

Total number of grid points                  ...   117029
Total number of batches                      ...     1841
Average number of points per batch           ...       63
Average number of grid points per atom       ...     4334
Time for grid setup =    0.775 sec

--------------------
COSX GRID GENERATION
--------------------

GRIDX 1
-------
General Integration Accuracy     IntAcc      ... 3.816
Radial Grid Type                 RadialGrid  ... OptM3 with GC (2021)
Angular Grid (max. ang.)         AngularGrid ... 1 (Lebedev-50)
Angular grid pruning method      GridPruning ... 4 (adaptive)
Weight generation scheme         WeightScheme... Becke
Basis function cutoff            BFCut       ... 1.0000e-10
Integration weight cutoff        WCut        ... 1.0000e-14
Angular grids for H and He will be reduced by one unit
Partially contracted basis set               ... on
Rotationally invariant grid construction     ... off

Total number of grid points                  ...    14947
Total number of batches                      ...      248
Average number of points per batch           ...       60
Average number of grid points per atom       ...      554
UseSFitting                                  ... on

GRIDX 2
-------
General Integration Accuracy     IntAcc      ... 4.020
Radial Grid Type                 RadialGrid  ... OptM3 with GC (2021)
Angular Grid (max. ang.)         AngularGrid ... 2 (Lebedev-110)
Angular grid pruning method      GridPruning ... 4 (adaptive)
Weight generation scheme         WeightScheme... Becke
Basis function cutoff            BFCut       ... 1.0000e-10
Integration weight cutoff        WCut        ... 1.0000e-14
Angular grids for H and He will be reduced by one unit
Partially contracted basis set               ... on
Rotationally invariant grid construction     ... off

Total number of grid points                  ...    31429
Total number of batches                      ...      501
Average number of points per batch           ...       62
Average number of grid points per atom       ...     1164
UseSFitting                                  ... on

GRIDX 3
-------
General Integration Accuracy     IntAcc      ... 4.338
Radial Grid Type                 RadialGrid  ... OptM3 with GC (2021)
Angular Grid (max. ang.)         AngularGrid ... 3 (Lebedev-194)
Angular grid pruning method      GridPruning ... 4 (adaptive)
Weight generation scheme         WeightScheme... Becke
Basis function cutoff            BFCut       ... 1.0000e-10
Integration weight cutoff        WCut        ... 1.0000e-14
Angular grids for H and He will be reduced by one unit
Partially contracted basis set               ... on
Rotationally invariant grid construction     ... off

Total number of grid points                  ...    68473
Total number of batches                      ...     1084
Average number of points per batch           ...       63
Average number of grid points per atom       ...     2536
UseSFitting                                  ... on

Time for X-Grid setup             =    0.892 sec

--------------
SCF ITERATIONS
--------------
ITER       Energy         Delta-E        Max-DP      RMS-DP      [F,P]     Damp
               ***  Starting incremental Fock matrix formation  ***
  0   -461.3598214982   0.000000000000 0.07627304  0.00144440  0.1535695 0.7000
  1   -461.4586851095  -0.098863611268 0.07080759  0.00110644  0.0942521 0.7000
                               ***Turning on DIIS***
  2   -461.5131413280  -0.054456218475 0.17519840  0.00233211  0.0503033 0.0000
  3   -461.6038593246  -0.090717996648 0.03249887  0.00067109  0.0332492 0.0000
  4   -461.6151921545  -0.011332829870 0.00661850  0.00015200  0.0045801 0.0000
                      *** Initiating the SOSCF procedure ***
                           *** Shutting down DIIS ***
                      *** Re-Reading the Fockian *** 
                      *** Removing any level shift *** 
ITER      Energy       Delta-E        Grad      Rot      Max-DP    RMS-DP
  5   -461.61550237  -0.0003102114  0.001559  0.001559  0.006049  0.000067
               *** Restarting incremental Fock matrix formation ***
  6   -461.61564102  -0.0001386519  0.000619  0.001335  0.002290  0.000039
  7   -461.61564963  -0.0000086086  0.000479  0.001591  0.002393  0.000029
  8   -461.61565235  -0.0000027202  0.000062  0.000119  0.000945  0.000009
  9   -461.61565260  -0.0000002536  0.000023  0.000037  0.000393  0.000003
                 **** Energy Check signals convergence ****
              ***Rediagonalizing the Fockian in SOSCF/NRSCF***

               *****************************************************
               *                     SUCCESS                       *
               *           SCF CONVERGED AFTER  10 CYCLES          *
               *****************************************************

Old exchange energy                            =    -21.358088787 Eh
New exchange energy                            =    -21.358118818 Eh
Exchange energy change after final integration =     -0.000030031 Eh
Total energy after final integration           =   -461.615682699 Eh
Final COS-X integration done in                =    13.316 sec

----------------
TOTAL SCF ENERGY
----------------

Total Energy       :         -461.61568270 Eh          -12561.20133 eV

Components:
Nuclear Repulsion  :          631.23847173 Eh           17176.87207 eV
Electronic Energy  :        -1092.85415443 Eh          -29738.07340 eV
One Electron Energy:        -1873.75681490 Eh          -50987.51509 eV
Two Electron Energy:          780.90266047 Eh           21249.44169 eV
Max COSX asymmetry :            0.00000301 Eh               0.00008 eV

Virial components:
Potential Energy   :         -917.65497284 Eh          -24970.66129 eV
Kinetic Energy     :          456.03929014 Eh           12409.45997 eV
Virial Ratio       :            2.01222788


DFT components:
N(Alpha)           :       41.999977271985 electrons
N(Beta)            :       41.999977271985 electrons
N(Total)           :       83.999954543970 electrons
E(XC)              :      -47.075460782276 Eh       
DFET-embed. en.    :        0.000000000000 Eh       

---------------
SCF CONVERGENCE
---------------

  Last Energy change         ...   -6.8393e-08  Tolerance :   1.0000e-06
  Last MAX-Density change    ...    4.1182e-15  Tolerance :   1.0000e-05
  Last RMS-Density change    ...    5.0331e-17  Tolerance :   1.0000e-06
  Last Orbital Gradient      ...    1.3458e-05  Tolerance :   5.0000e-05
  Last Orbital Rotation      ...    3.7875e-05  Tolerance :   5.0000e-05

             **** THE GBW FILE WAS UPDATED (DFT_water_outs/4-gasSP.gbw) ****
             **** DENSITY DFT_water_outs/4-gasSP.scfp WAS UPDATED ****
             **** ENERGY FILE WAS UPDATED (DFT_water_outs/4-gasSP.en.tmp) ****
             **** THE GBW FILE WAS UPDATED (DFT_water_outs/4-gasSP.gbw) ****
             **** DENSITY DFT_water_outs/4-gasSP.scfp WAS UPDATED ****
----------------
ORBITAL ENERGIES
----------------

  NO   OCC          E(Eh)            E(eV) 
   0   2.0000     -14.438127      -392.8814 
   1   2.0000     -14.438127      -392.8814 
   2   2.0000     -10.307472      -280.4806 
   3   2.0000     -10.307437      -280.4796 
   4   2.0000     -10.292597      -280.0758 
   5   2.0000     -10.292018      -280.0600 
   6   2.0000     -10.267585      -279.3952 
   7   2.0000     -10.267582      -279.3951 
   8   2.0000     -10.267577      -279.3950 
   9   2.0000     -10.267573      -279.3949 
  10   2.0000     -10.261823      -279.2384 
  11   2.0000      -1.139624       -31.0107 
  12   2.0000      -1.035444       -28.1759 
  13   2.0000      -0.934626       -25.4325 
  14   2.0000      -0.883577       -24.0433 
  15   2.0000      -0.860468       -23.4145 
  16   2.0000      -0.812060       -22.0973 
  17   2.0000      -0.811723       -22.0881 
  18   2.0000      -0.758247       -20.6329 
  19   2.0000      -0.743754       -20.2386 
  20   2.0000      -0.671733       -18.2788 
  21   2.0000      -0.660747       -17.9798 
  22   2.0000      -0.622527       -16.9398 
  23   2.0000      -0.586437       -15.9578 
  24   2.0000      -0.571862       -15.5611 
  25   2.0000      -0.560703       -15.2575 
  26   2.0000      -0.558904       -15.2085 
  27   2.0000      -0.536801       -14.6071 
  28   2.0000      -0.534089       -14.5333 
  29   2.0000      -0.528270       -14.3750 
  30   2.0000      -0.503853       -13.7105 
  31   2.0000      -0.497591       -13.5401 
  32   2.0000      -0.486896       -13.2491 
  33   2.0000      -0.485324       -13.2063 
  34   2.0000      -0.466957       -12.7065 
  35   2.0000      -0.459054       -12.4915 
  36   2.0000      -0.448339       -12.1999 
  37   2.0000      -0.442745       -12.0477 
  38   2.0000      -0.434272       -11.8172 
  39   2.0000      -0.365813        -9.9543 
  40   2.0000      -0.317384        -8.6365 
  41   2.0000      -0.301035        -8.1916 
  42   0.0000       0.125376         3.4116 
  43   0.0000       0.141151         3.8409 
  44   0.0000       0.143093         3.8938 
  45   0.0000       0.146077         3.9750 
  46   0.0000       0.171424         4.6647 
  47   0.0000       0.173959         4.7337 
  48   0.0000       0.196427         5.3450 
  49   0.0000       0.201908         5.4942 
  50   0.0000       0.202488         5.5100 
  51   0.0000       0.210980         5.7410 
  52   0.0000       0.220102         5.9893 
  53   0.0000       0.227160         6.1813 
  54   0.0000       0.247048         6.7225 
  55   0.0000       0.250629         6.8200 
  56   0.0000       0.252688         6.8760 
  57   0.0000       0.257850         7.0165 
  58   0.0000       0.263889         7.1808 
  59   0.0000       0.268477         7.3056 
  60   0.0000       0.273788         7.4501 
  61   0.0000       0.284281         7.7357 
  62   0.0000       0.292832         7.9684 
  63   0.0000       0.324663         8.8345 
  64   0.0000       0.341476         9.2920 
  65   0.0000       0.345077         9.3900 
  66   0.0000       0.357651         9.7322 
  67   0.0000       0.358921         9.7667 
  68   0.0000       0.364189         9.9101 
  69   0.0000       0.429900        11.6982 
  70   0.0000       0.461991        12.5714 
  71   0.0000       0.484906        13.1950 
  72   0.0000       0.503114        13.6904 
  73   0.0000       0.514359        13.9964 
  74   0.0000       0.515359        14.0236 
  75   0.0000       0.521785        14.1985 
  76   0.0000       0.527107        14.3433 
  77   0.0000       0.533095        14.5062 
  78   0.0000       0.557633        15.1740 
  79   0.0000       0.574595        15.6355 
  80   0.0000       0.576669        15.6920 
  81   0.0000       0.634806        17.2739 
  82   0.0000       0.650962        17.7136 
  83   0.0000       0.652832        17.7645 
  84   0.0000       0.671533        18.2734 
  85   0.0000       0.679342        18.4858 
  86   0.0000       0.685931        18.6651 
  87   0.0000       0.700864        19.0715 
  88   0.0000       0.704982        19.1835 
  89   0.0000       0.705383        19.1945 
  90   0.0000       0.733268        19.9532 
  91   0.0000       0.737038        20.0558 
  92   0.0000       0.741848        20.1867 
  93   0.0000       0.743212        20.2238 
  94   0.0000       0.757985        20.6258 
  95   0.0000       0.760069        20.6825 
  96   0.0000       0.762717        20.7546 
  97   0.0000       0.773001        21.0344 
  98   0.0000       0.776928        21.1413 
  99   0.0000       0.779601        21.2140 
 100   0.0000       0.788005        21.4427 
 101   0.0000       0.796429        21.6719 
 102   0.0000       0.802524        21.8378 
 103   0.0000       0.802982        21.8503 
 104   0.0000       0.805396        21.9159 
 105   0.0000       0.807287        21.9674 
 106   0.0000       0.812693        22.1145 
 107   0.0000       0.815757        22.1979 
 108   0.0000       0.824459        22.4347 
 109   0.0000       0.834912        22.7191 
 110   0.0000       0.835320        22.7302 
 111   0.0000       0.846178        23.0257 
 112   0.0000       0.854391        23.2491 
 113   0.0000       0.856319        23.3016 
 114   0.0000       0.868629        23.6366 
 115   0.0000       0.952298        25.9134 
 116   0.0000       0.999176        27.1889 
 117   0.0000       1.042432        28.3660 
 118   0.0000       1.047183        28.4953 
 119   0.0000       1.089141        29.6370 
 120   0.0000       1.097751        29.8713 
 121   0.0000       1.105009        30.0688 
 122   0.0000       1.152809        31.3695 
 123   0.0000       1.158284        31.5185 
 124   0.0000       1.166746        31.7488 
 125   0.0000       1.185552        32.2605 
 126   0.0000       1.224441        33.3187 
 127   0.0000       1.262122        34.3441 
 128   0.0000       1.278577        34.7919 
 129   0.0000       1.299743        35.3678 
 130   0.0000       1.307774        35.5863 
 131   0.0000       1.366398        37.1816 
 132   0.0000       1.372149        37.3381 
 133   0.0000       1.400540        38.1106 
 134   0.0000       1.420739        38.6603 
 135   0.0000       1.485014        40.4093 
 136   0.0000       1.514920        41.2231 
 137   0.0000       1.523755        41.4635 
 138   0.0000       1.533871        41.7388 
 139   0.0000       1.599366        43.5210 
 140   0.0000       1.600489        43.5515 
 141   0.0000       1.633137        44.4399 
 142   0.0000       1.646614        44.8066 
 143   0.0000       1.647188        44.8223 
 144   0.0000       1.648173        44.8491 
 145   0.0000       1.656430        45.0737 
 146   0.0000       1.660448        45.1831 
 147   0.0000       1.703906        46.3656 
 148   0.0000       1.776411        48.3386 
 149   0.0000       1.793642        48.8075 
 150   0.0000       1.812337        49.3162 
 151   0.0000       1.830949        49.8227 
 152   0.0000       1.832341        49.8605 
 153   0.0000       1.865786        50.7706 
 154   0.0000       1.875576        51.0370 
 155   0.0000       1.886022        51.3213 
 156   0.0000       1.890034        51.4304 
 157   0.0000       1.907069        51.8940 
 158   0.0000       1.909672        51.9648 
 159   0.0000       1.918246        52.1981 
 160   0.0000       1.923832        52.3501 
 161   0.0000       1.927683        52.4549 
 162   0.0000       1.934073        52.6288 
 163   0.0000       1.946312        52.9618 
 164   0.0000       1.949794        53.0566 
 165   0.0000       1.957442        53.2647 
 166   0.0000       1.972808        53.6828 
 167   0.0000       1.975133        53.7461 
 168   0.0000       1.989041        54.1246 
 169   0.0000       1.991336        54.1870 
 170   0.0000       1.991942        54.2035 
 171   0.0000       1.997969        54.3675 
 172   0.0000       2.009457        54.6801 
 173   0.0000       2.040143        55.5151 
 174   0.0000       2.044724        55.6398 
 175   0.0000       2.054753        55.9127 
 176   0.0000       2.075337        56.4728 
 177   0.0000       2.079976        56.5990 
 178   0.0000       2.091312        56.9075 
 179   0.0000       2.145983        58.3952 
 180   0.0000       2.168113        58.9973 
 181   0.0000       2.183835        59.4252 
 182   0.0000       2.228861        60.6504 
 183   0.0000       2.237986        60.8987 
 184   0.0000       2.262656        61.5700 
 185   0.0000       2.284340        62.1600 
 186   0.0000       2.294067        62.4247 
 187   0.0000       2.311342        62.8948 
 188   0.0000       2.364268        64.3350 
 189   0.0000       2.373112        64.5756 
 190   0.0000       2.375671        64.6453 
 191   0.0000       2.397707        65.2449 
 192   0.0000       2.463333        67.0307 
 193   0.0000       2.464871        67.0726 
 194   0.0000       2.472194        67.2718 
 195   0.0000       2.494239        67.8717 
 196   0.0000       2.502440        68.0949 
 197   0.0000       2.507452        68.2312 
 198   0.0000       2.564053        69.7714 
 199   0.0000       2.580294        70.2134 
 200   0.0000       2.602564        70.8194 
 201   0.0000       2.605012        70.8860 
 202   0.0000       2.612454        71.0885 
 203   0.0000       2.616483        71.1981 
 204   0.0000       2.671868        72.7052 
 205   0.0000       2.681662        72.9717 
 206   0.0000       2.694532        73.3220 
 207   0.0000       2.696986        73.3887 
 208   0.0000       2.786442        75.8229 
 209   0.0000       2.795610        76.0724 
 210   0.0000       2.815884        76.6241 
 211   0.0000       2.832629        77.0798 
 212   0.0000       2.844983        77.4159 
 213   0.0000       2.866008        77.9880 
 214   0.0000       2.958976        80.5178 
 215   0.0000       2.976957        81.0071 
 216   0.0000       2.984154        81.2030 
 217   0.0000       2.985739        81.2461 
 218   0.0000       2.993713        81.4631 
 219   0.0000       3.003852        81.7390 
 220   0.0000       3.014564        82.0304 
 221   0.0000       3.018435        82.1358 
 222   0.0000       3.024917        82.3122 
 223   0.0000       3.075591        83.6911 
 224   0.0000       3.086524        83.9886 
 225   0.0000       3.126398        85.0736 
 226   0.0000       3.128003        85.1173 
 227   0.0000       3.131705        85.2180 
 228   0.0000       3.139511        85.4304 
 229   0.0000       3.180673        86.5505 
 230   0.0000       3.305701        89.9527 
 231   0.0000       3.434758        93.4645 
 232   0.0000       3.454095        93.9907 
 233   0.0000       3.657253        99.5189 

                    ********************************
                    * MULLIKEN POPULATION ANALYSIS *
                    ********************************

-----------------------
MULLIKEN ATOMIC CHARGES
-----------------------
   0 C :    0.001871
   1 C :    0.001873
   2 N :   -0.219867
   3 N :   -0.219869
   4 C :    0.032046
   5 C :    0.032046
   6 C :   -0.127362
   7 C :   -0.000815
   8 C :   -0.000836
   9 C :   -0.000815
  10 C :   -0.000835
  11 H :    0.027939
  12 H :    0.027939
  13 H :    0.036838
  14 H :    0.036838
  15 H :    0.016048
  16 H :    0.016056
  17 H :    0.016047
  18 H :    0.016055
  19 H :    0.032037
  20 H :    0.032049
  21 H :    0.032037
  22 H :    0.032049
  23 H :    0.045158
  24 H :    0.045157
  25 H :    0.045158
  26 H :    0.045157
Sum of atomic charges:   -0.0000000

--------------------------------
MULLIKEN REDUCED ORBITAL CHARGES
--------------------------------
  0 C s       :     3.081857  s :     3.081857
      pz      :     1.054115  p :     2.859906
      px      :     0.993164
      py      :     0.812626
      dz2     :     0.011950  d :     0.056366
      dxz     :     0.006238
      dyz     :     0.007881
      dx2y2   :     0.015911
      dxy     :     0.014386
  1 C s       :     3.081857  s :     3.081857
      pz      :     1.054116  p :     2.859904
      px      :     0.993163
      py      :     0.812626
      dz2     :     0.011950  d :     0.056367
      dxz     :     0.006238
      dyz     :     0.007881
      dx2y2   :     0.015911
      dxy     :     0.014386
  2 N s       :     3.390199  s :     3.390199
      pz      :     1.112503  p :     3.797793
      px      :     1.521852
      py      :     1.163438
      dz2     :     0.008971  d :     0.031875
      dxz     :     0.005339
      dyz     :     0.008842
      dx2y2   :     0.004907
      dxy     :     0.003817
  3 N s       :     3.390200  s :     3.390200
      pz      :     1.112503  p :     3.797794
      px      :     1.521853
      py      :     1.163438
      dz2     :     0.008971  d :     0.031875
      dxz     :     0.005339
      dyz     :     0.008842
      dx2y2   :     0.004907
      dxy     :     0.003817
  4 C s       :     3.131569  s :     3.131569
      pz      :     0.797550  p :     2.788835
      px      :     1.085391
      py      :     0.905894
      dz2     :     0.014209  d :     0.047551
      dxz     :     0.007796
      dyz     :     0.012813
      dx2y2   :     0.004778
      dxy     :     0.007956
  5 C s       :     3.131569  s :     3.131569
      pz      :     0.797550  p :     2.788834
      px      :     1.085391
      py      :     0.905893
      dz2     :     0.014209  d :     0.047551
      dxz     :     0.007796
      dyz     :     0.012813
      dx2y2   :     0.004778
      dxy     :     0.007956
  6 C s       :     3.643055  s :     3.643055
      pz      :     1.114507  p :     2.418187
      px      :     0.662421
      py      :     0.641259
      dz2     :     0.008751  d :     0.066120
      dxz     :     0.009953
      dyz     :     0.028747
      dx2y2   :     0.007102
      dxy     :     0.011566
  7 C s       :     3.004407  s :     3.004407
      pz      :     1.002096  p :     2.969856
      px      :     0.973837
      py      :     0.993923
      dz2     :     0.008220  d :     0.026553
      dxz     :     0.003336
      dyz     :     0.003336
      dx2y2   :     0.006090
      dxy     :     0.005571
  8 C s       :     3.004429  s :     3.004429
      pz      :     1.002090  p :     2.969854
      px      :     0.973836
      py      :     0.993929
      dz2     :     0.008220  d :     0.026552
      dxz     :     0.003336
      dyz     :     0.003336
      dx2y2   :     0.006090
      dxy     :     0.005571
  9 C s       :     3.004406  s :     3.004406
      pz      :     1.002096  p :     2.969856
      px      :     0.973837
      py      :     0.993923
      dz2     :     0.008220  d :     0.026553
      dxz     :     0.003336
      dyz     :     0.003336
      dx2y2   :     0.006090
      dxy     :     0.005571
 10 C s       :     3.004428  s :     3.004428
      pz      :     1.002089  p :     2.969854
      px      :     0.973836
      py      :     0.993929
      dz2     :     0.008220  d :     0.026552
      dxz     :     0.003336
      dyz     :     0.003336
      dx2y2   :     0.006090
      dxy     :     0.005571
 11 H s       :     0.948119  s :     0.948119
      pz      :     0.010180  p :     0.023943
      px      :     0.005542
      py      :     0.008221
 12 H s       :     0.948118  s :     0.948118
      pz      :     0.010180  p :     0.023943
      px      :     0.005542
      py      :     0.008221
 13 H s       :     0.942228  s :     0.942228
      pz      :     0.015436  p :     0.020934
      px      :     0.003249
      py      :     0.002250
 14 H s       :     0.942228  s :     0.942228
      pz      :     0.015436  p :     0.020934
      px      :     0.003249
      py      :     0.002250
 15 H s       :     0.960420  s :     0.960420
      pz      :     0.014741  p :     0.023532
      px      :     0.004027
      py      :     0.004764
 16 H s       :     0.960412  s :     0.960412
      pz      :     0.014741  p :     0.023532
      px      :     0.004027
      py      :     0.004764
 17 H s       :     0.960420  s :     0.960420
      pz      :     0.014741  p :     0.023532
      px      :     0.004027
      py      :     0.004764
 18 H s       :     0.960413  s :     0.960413
      pz      :     0.014741  p :     0.023532
      px      :     0.004027
      py      :     0.004764
 19 H s       :     0.944347  s :     0.944347
      pz      :     0.006249  p :     0.023616
      px      :     0.004097
      py      :     0.013271
 20 H s       :     0.944337  s :     0.944337
      pz      :     0.006248  p :     0.023614
      px      :     0.004096
      py      :     0.013270
 21 H s       :     0.944347  s :     0.944347
      pz      :     0.006249  p :     0.023616
      px      :     0.004097
      py      :     0.013271
 22 H s       :     0.944337  s :     0.944337
      pz      :     0.006248  p :     0.023614
      px      :     0.004096
      py      :     0.013270
 23 H s       :     0.931577  s :     0.931577
      pz      :     0.005591  p :     0.023265
      px      :     0.010717
      py      :     0.006958
 24 H s       :     0.931578  s :     0.931578
      pz      :     0.005591  p :     0.023265
      px      :     0.010717
      py      :     0.006958
 25 H s       :     0.931577  s :     0.931577
      pz      :     0.005591  p :     0.023265
      px      :     0.010717
      py      :     0.006958
 26 H s       :     0.931578  s :     0.931578
      pz      :     0.005591  p :     0.023265
      px      :     0.010717
      py      :     0.006958


                     *******************************
                     * LOEWDIN POPULATION ANALYSIS *
                     *******************************

----------------------
LOEWDIN ATOMIC CHARGES
----------------------
   0 C :    0.028401
   1 C :    0.028401
   2 N :    0.028149
   3 N :    0.028149
   4 C :   -0.037473
   5 C :   -0.037473
   6 C :   -0.255295
   7 C :   -0.059895
   8 C :   -0.059898
   9 C :   -0.059895
  10 C :   -0.059898
  11 H :    0.024994
  12 H :    0.024994
  13 H :    0.033837
  14 H :    0.033837
  15 H :    0.021305
  16 H :    0.021305
  17 H :    0.021305
  18 H :    0.021305
  19 H :    0.030255
  20 H :    0.030262
  21 H :    0.030255
  22 H :    0.030262
  23 H :    0.033204
  24 H :    0.033202
  25 H :    0.033204
  26 H :    0.033202

-------------------------------
LOEWDIN REDUCED ORBITAL CHARGES
-------------------------------
  0 C s       :     2.834122  s :     2.834122
      pz      :     1.060471  p :     3.007402
      px      :     1.043573
      py      :     0.903358
      dz2     :     0.030358  d :     0.130075
      dxz     :     0.012717
      dyz     :     0.017126
      dx2y2   :     0.035358
      dxy     :     0.034516
  1 C s       :     2.834122  s :     2.834122
      pz      :     1.060471  p :     3.007402
      px      :     1.043573
      py      :     0.903358
      dz2     :     0.030358  d :     0.130075
      dxz     :     0.012717
      dyz     :     0.017126
      dx2y2   :     0.035358
      dxy     :     0.034516
  2 N s       :     3.068220  s :     3.068220
      pz      :     1.193546  p :     3.829193
      px      :     1.442435
      py      :     1.193212
      dz2     :     0.022832  d :     0.074438
      dxz     :     0.010471
      dyz     :     0.024169
      dx2y2   :     0.010407
      dxy     :     0.006559
  3 N s       :     3.068220  s :     3.068220
      pz      :     1.193546  p :     3.829193
      px      :     1.442435
      py      :     1.193212
      dz2     :     0.022832  d :     0.074438
      dxz     :     0.010471
      dyz     :     0.024169
      dx2y2   :     0.010407
      dxy     :     0.006559
  4 C s       :     2.857534  s :     2.857534
      pz      :     0.939942  p :     3.061474
      px      :     1.069758
      py      :     1.051775
      dz2     :     0.037986  d :     0.118465
      dxz     :     0.015493
      dyz     :     0.035440
      dx2y2   :     0.013701
      dxy     :     0.015845
  5 C s       :     2.857534  s :     2.857534
      pz      :     0.939942  p :     3.061474
      px      :     1.069758
      py      :     1.051775
      dz2     :     0.037986  d :     0.118465
      dxz     :     0.015493
      dyz     :     0.035440
      dx2y2   :     0.013701
      dxy     :     0.015845
  6 C s       :     3.211111  s :     3.211111
      pz      :     1.366609  p :     2.901282
      px      :     0.721933
      py      :     0.812740
      dz2     :     0.014148  d :     0.142901
      dxz     :     0.014081
      dyz     :     0.067008
      dx2y2   :     0.022129
      dxy     :     0.025536
  7 C s       :     2.840923  s :     2.840923
      pz      :     1.059613  p :     3.148813
      px      :     1.033259
      py      :     1.055941
      dz2     :     0.021794  d :     0.070159
      dxz     :     0.008175
      dyz     :     0.008541
      dx2y2   :     0.016089
      dxy     :     0.015561
  8 C s       :     2.840933  s :     2.840933
      pz      :     1.059609  p :     3.148807
      px      :     1.033260
      py      :     1.055938
      dz2     :     0.021793  d :     0.070158
      dxz     :     0.008175
      dyz     :     0.008543
      dx2y2   :     0.016087
      dxy     :     0.015561
  9 C s       :     2.840923  s :     2.840923
      pz      :     1.059613  p :     3.148813
      px      :     1.033259
      py      :     1.055941
      dz2     :     0.021794  d :     0.070159
      dxz     :     0.008175
      dyz     :     0.008541
      dx2y2   :     0.016088
      dxy     :     0.015561
 10 C s       :     2.840933  s :     2.840933
      pz      :     1.059609  p :     3.148807
      px      :     1.033260
      py      :     1.055938
      dz2     :     0.021793  d :     0.070158
      dxz     :     0.008175
      dyz     :     0.008543
      dx2y2   :     0.016087
      dxy     :     0.015561
 11 H s       :     0.904252  s :     0.904252
      pz      :     0.030383  p :     0.070754
      px      :     0.017062
      py      :     0.023308
 12 H s       :     0.904252  s :     0.904252
      pz      :     0.030383  p :     0.070754
      px      :     0.017062
      py      :     0.023308
 13 H s       :     0.900268  s :     0.900268
      pz      :     0.044047  p :     0.065895
      px      :     0.012575
      py      :     0.009274
 14 H s       :     0.900268  s :     0.900268
      pz      :     0.044047  p :     0.065895
      px      :     0.012575
      py      :     0.009274
 15 H s       :     0.913864  s :     0.913864
      pz      :     0.039563  p :     0.064831
      px      :     0.012529
      py      :     0.012739
 16 H s       :     0.913864  s :     0.913864
      pz      :     0.039563  p :     0.064831
      px      :     0.012529
      py      :     0.012739
 17 H s       :     0.913864  s :     0.913864
      pz      :     0.039563  p :     0.064831
      px      :     0.012529
      py      :     0.012739
 18 H s       :     0.913864  s :     0.913864
      pz      :     0.039563  p :     0.064831
      px      :     0.012529
      py      :     0.012739
 19 H s       :     0.904964  s :     0.904964
      pz      :     0.016189  p :     0.064780
      px      :     0.012426
      py      :     0.036165
 20 H s       :     0.904964  s :     0.904964
      pz      :     0.016188  p :     0.064774
      px      :     0.012424
      py      :     0.036162
 21 H s       :     0.904964  s :     0.904964
      pz      :     0.016189  p :     0.064780
      px      :     0.012426
      py      :     0.036165
 22 H s       :     0.904964  s :     0.904964
      pz      :     0.016188  p :     0.064774
      px      :     0.012424
      py      :     0.036162
 23 H s       :     0.901713  s :     0.901713
      pz      :     0.014686  p :     0.065083
      px      :     0.031581
      py      :     0.018816
 24 H s       :     0.901714  s :     0.901714
      pz      :     0.014686  p :     0.065084
      px      :     0.031581
      py      :     0.018816
 25 H s       :     0.901713  s :     0.901713
      pz      :     0.014686  p :     0.065083
      px      :     0.031581
      py      :     0.018816
 26 H s       :     0.901714  s :     0.901714
      pz      :     0.014686  p :     0.065084
      px      :     0.031581
      py      :     0.018816


                      *****************************
                      * MAYER POPULATION ANALYSIS *
                      *****************************

  NA   - Mulliken gross atomic population
  ZA   - Total nuclear charge
  QA   - Mulliken gross atomic charge
  VA   - Mayer's total valence
  BVA  - Mayer's bonded valence
  FA   - Mayer's free valence

  ATOM       NA         ZA         QA         VA         BVA        FA
  0 C      5.9981     6.0000     0.0019     4.0897     4.0897    -0.0000
  1 C      5.9981     6.0000     0.0019     4.0897     4.0897    -0.0000
  2 N      7.2199     7.0000    -0.2199     3.3067     3.3067    -0.0000
  3 N      7.2199     7.0000    -0.2199     3.3067     3.3067    -0.0000
  4 C      5.9680     6.0000     0.0320     3.8634     3.8634    -0.0000
  5 C      5.9680     6.0000     0.0320     3.8634     3.8634    -0.0000
  6 C      6.1274     6.0000    -0.1274     2.6714     2.6714     0.0000
  7 C      6.0008     6.0000    -0.0008     3.9511     3.9511    -0.0000
  8 C      6.0008     6.0000    -0.0008     3.9511     3.9511    -0.0000
  9 C      6.0008     6.0000    -0.0008     3.9511     3.9511    -0.0000
 10 C      6.0008     6.0000    -0.0008     3.9511     3.9511    -0.0000
 11 H      0.9721     1.0000     0.0279     1.0009     1.0009    -0.0000
 12 H      0.9721     1.0000     0.0279     1.0009     1.0009    -0.0000
 13 H      0.9632     1.0000     0.0368     1.0049     1.0049    -0.0000
 14 H      0.9632     1.0000     0.0368     1.0049     1.0049    -0.0000
 15 H      0.9840     1.0000     0.0160     0.9992     0.9992    -0.0000
 16 H      0.9839     1.0000     0.0161     0.9992     0.9992     0.0000
 17 H      0.9840     1.0000     0.0160     0.9992     0.9992    -0.0000
 18 H      0.9839     1.0000     0.0161     0.9992     0.9992     0.0000
 19 H      0.9680     1.0000     0.0320     0.9931     0.9931    -0.0000
 20 H      0.9680     1.0000     0.0320     0.9931     0.9931    -0.0000
 21 H      0.9680     1.0000     0.0320     0.9931     0.9931    -0.0000
 22 H      0.9680     1.0000     0.0320     0.9931     0.9931    -0.0000
 23 H      0.9548     1.0000     0.0452     0.9949     0.9949    -0.0000
 24 H      0.9548     1.0000     0.0452     0.9949     0.9949     0.0000
 25 H      0.9548     1.0000     0.0452     0.9949     0.9949    -0.0000
 26 H      0.9548     1.0000     0.0452     0.9949     0.9949    -0.0000

  Mayer bond orders larger than 0.100000
B(  0-C ,  2-N ) :   0.9192 B(  0-C ,  7-C ) :   1.0703 B(  0-C ,  8-C ) :   1.0703 
B(  0-C , 13-H ) :   0.9307 B(  1-C ,  3-N ) :   0.9192 B(  1-C ,  9-C ) :   1.0703 
B(  1-C , 10-C ) :   1.0703 B(  1-C , 14-H ) :   0.9307 B(  2-N ,  4-C ) :   1.1174 
B(  2-N ,  6-C ) :   1.2193 B(  3-N ,  5-C ) :   1.1174 B(  3-N ,  6-C ) :   1.2193 
B(  4-C ,  5-C ) :   1.6445 B(  4-C , 11-H ) :   0.9859 B(  5-C , 12-H ) :   0.9859 
B(  7-C , 15-H ) :   0.9635 B(  7-C , 19-H ) :   0.9725 B(  7-C , 23-H ) :   0.9691 
B(  8-C , 16-H ) :   0.9635 B(  8-C , 20-H ) :   0.9725 B(  8-C , 24-H ) :   0.9691 
B(  9-C , 17-H ) :   0.9635 B(  9-C , 21-H ) :   0.9725 B(  9-C , 25-H ) :   0.9691 
B( 10-C , 18-H ) :   0.9635 B( 10-C , 22-H ) :   0.9725 B( 10-C , 26-H ) :   0.9691 


-------
TIMINGS
-------

Total SCF time: 0 days 0 hours 1 min 11 sec 

Total time                  ....      71.931 sec
Sum of individual times     ....      71.390 sec  ( 99.2%)

Fock matrix formation       ....      68.292 sec  ( 94.9%)
  Split-RI-J                ....       3.364 sec  (  4.9% of F)
  Chain of spheres X        ....      58.157 sec  ( 85.2% of F)
  XC integration            ....       6.641 sec  (  9.7% of F)
    Basis function eval.    ....       2.040 sec  ( 30.7% of XC)
    Density eval.           ....       1.210 sec  ( 18.2% of XC)
    XC-Functional eval.     ....       0.729 sec  ( 11.0% of XC)
    XC-Potential eval.      ....       1.226 sec  ( 18.5% of XC)
Diagonalization             ....       0.080 sec  (  0.1%)
Density matrix formation    ....       0.009 sec  (  0.0%)
Population analysis         ....       0.014 sec  (  0.0%)
Initial guess               ....       0.594 sec  (  0.8%)
Orbital Transformation      ....       0.000 sec  (  0.0%)
Orbital Orthonormalization  ....       0.000 sec  (  0.0%)
DIIS solution               ....       0.047 sec  (  0.1%)
SOSCF solution              ....       0.058 sec  (  0.1%)
Grid generation             ....       2.296 sec  (  3.2%)

Maximum memory used throughout the entire SCF-calculation: 62.0 MB


-------------------------------------------------------------------------------
                          DFT DISPERSION CORRECTION                            
                                                                               
                                 DFTD4 V2.5                                    
-------------------------------------------------------------------------------
The WB97X functional is recognized
Active option DFTDOPT                   ...         5   

Starting D4
-------------------------   ----------------
Dispersion correction           -0.004100672
-------------------------   ----------------


-------------------------   --------------------
FINAL SINGLE POINT ENERGY      -461.619783370946
-------------------------   --------------------


                            ***************************************
                            *     ORCA property calculations      *
                            ***************************************

                                    ---------------------
                                    Active property flags
                                    ---------------------
   (+) Dipole Moment


------------------------------------------------------------------------------
                       ORCA ELECTRIC PROPERTIES CALCULATION
------------------------------------------------------------------------------

Dipole Moment Calculation                       ... on
Quadrupole Moment Calculation                   ... off
Polarizability Calculation                      ... off
GBWName                                         ... DFT_water_outs/4-gasSP.gbw
Electron density                                ... DFT_water_outs/4-gasSP.scfp
The origin for moment calculation is the CENTER OF MASS  = ( 0.000000,  0.000000  0.026914)

-------------
DIPOLE MOMENT
-------------
                                X             Y             Z
Electronic contribution:     -0.00000      -0.00000       0.13661
Nuclear contribution   :      0.00000       0.00000      -1.02756
                        -----------------------------------------
Total Dipole Moment    :     -0.00000      -0.00000      -0.89095
                        -----------------------------------------
Magnitude (a.u.)       :      0.89095
Magnitude (Debye)      :      2.26462



--------------------
Rotational spectrum 
--------------------
 
Rotational constants in cm-1:     0.091078     0.018628     0.017944 
Rotational constants in MHz :  2730.438843   558.467704   537.935246 

 Dipole components along the rotational axes: 
x,y,z [a.u.] :    -0.000001    -0.000000    -0.890952 
x,y,z [Debye]:    -0.000002    -0.000001    -2.264621 

 

Timings for individual modules:

Sum of individual times         ...       77.655 sec (=   1.294 min)
GTO integral calculation        ...        4.780 sec (=   0.080 min)   6.2 %
SCF iterations                  ...       72.874 sec (=   1.215 min)  93.8 %
                             ****ORCA TERMINATED NORMALLY****
TOTAL RUN TIME: 0 days 0 hours 1 minutes 20 seconds 462 msec
