
                                 *****************
                                 * O   R   C   A *
                                 *****************

                                            #,                                       
                                            ###                                      
                                            ####                                     
                                            #####                                    
                                            ######                                   
                                           ########,                                 
                                     ,,################,,,,,                         
                               ,,#################################,,                 
                          ,,##########################################,,             
                       ,#########################################, ''#####,          
                    ,#############################################,,   '####,        
                  ,##################################################,,,,####,       
                ,###########''''           ''''###############################       
              ,#####''   ,,,,##########,,,,          '''####'''          '####       
            ,##' ,,,,###########################,,,                        '##       
           ' ,,###''''                  '''############,,,                           
         ,,##''                                '''############,,,,        ,,,,,,###''
      ,#''                                            '''#######################'''  
     '                                                          ''''####''''         
             ,#######,   #######,   ,#######,      ##                                
            ,#'     '#,  ##    ##  ,#'     '#,    #''#        ######   ,####,        
            ##       ##  ##   ,#'  ##            #'  '#       #        #'  '#        
            ##       ##  #######   ##           ,######,      #####,   #    #        
            '#,     ,#'  ##    ##  '#,     ,#' ,#      #,         ##   #,  ,#        
             '#######'   ##     ##  '#######'  #'      '#     #####' # '####'        



                  #######################################################
                  #                        -***-                        #
                  #          Department of theory and spectroscopy      #
                  #    Directorship and core code : Frank Neese         #
                  #        Max Planck Institute fuer Kohlenforschung    #
                  #                Kaiser Wilhelm Platz 1               #
                  #                 D-45470 Muelheim/Ruhr               #
                  #                      Germany                        #
                  #                                                     #
                  #                  All rights reserved                #
                  #                        -***-                        #
                  #######################################################


                         Program Version 5.0.3 -  RELEASE  -


 With contributions from (in alphabetic order):
   Daniel Aravena         : Magnetic Suceptibility
   Michael Atanasov       : Ab Initio Ligand Field Theory (pilot matlab implementation)
   Alexander A. Auer      : GIAO ZORA, VPT2 properties, NMR spectrum
   Ute Becker             : Parallelization
   Giovanni Bistoni       : ED, misc. LED, open-shell LED, HFLD
   Martin Brehm           : Molecular dynamics
   Dmytro Bykov           : SCF Hessian
   Vijay G. Chilkuri      : MRCI spin determinant printing, contributions to CSF-ICE
   Dipayan Datta          : RHF DLPNO-CCSD density
   Achintya Kumar Dutta   : EOM-CC, STEOM-CC
   Dmitry Ganyushin       : Spin-Orbit,Spin-Spin,Magnetic field MRCI
   Miquel Garcia          : C-PCM and meta-GGA Hessian, CC/C-PCM, Gaussian charge scheme
   Yang Guo               : DLPNO-NEVPT2, F12-NEVPT2, CIM, IAO-localization
   Andreas Hansen         : Spin unrestricted coupled pair/coupled cluster methods
   Benjamin Helmich-Paris : MC-RPA, TRAH-SCF, COSX integrals
   Lee Huntington         : MR-EOM, pCC
   Robert Izsak           : Overlap fitted RIJCOSX, COSX-SCS-MP3, EOM
   Marcus Kettner         : VPT2
   Christian Kollmar      : KDIIS, OOCD, Brueckner-CCSD(T), CCSD density, CASPT2, CASPT2-K
   Simone Kossmann        : Meta GGA functionals, TD-DFT gradient, OOMP2, MP2 Hessian
   Martin Krupicka        : Initial AUTO-CI
   Lucas Lang             : DCDCAS
   Marvin Lechner         : AUTO-CI (C++ implementation), FIC-MRCC
   Dagmar Lenk            : GEPOL surface, SMD
   Dimitrios Liakos       : Extrapolation schemes; Compound Job, initial MDCI parallelization
   Dimitrios Manganas     : Further ROCIS development; embedding schemes
   Dimitrios Pantazis     : SARC Basis sets
   Anastasios Papadopoulos: AUTO-CI, single reference methods and gradients
   Taras Petrenko         : DFT Hessian,TD-DFT gradient, ASA, ECA, R-Raman, ABS, FL, XAS/XES, NRVS
   Peter Pinski           : DLPNO-MP2, DLPNO-MP2 Gradient
   Christoph Reimann      : Effective Core Potentials
   Marius Retegan         : Local ZFS, SOC
   Christoph Riplinger    : Optimizer, TS searches, QM/MM, DLPNO-CCSD(T), (RO)-DLPNO pert. Triples
   Tobias Risthaus        : Range-separated hybrids, TD-DFT gradient, RPA, STAB
   Michael Roemelt        : Original ROCIS implementation
   Masaaki Saitow         : Open-shell DLPNO-CCSD energy and density
   Barbara Sandhoefer     : DKH picture change effects
   Avijit Sen             : IP-ROCIS
   Kantharuban Sivalingam : CASSCF convergence, NEVPT2, FIC-MRCI
   Bernardo de Souza      : ESD, SOC TD-DFT
   Georgi Stoychev        : AutoAux, RI-MP2 NMR, DLPNO-MP2 response
   Willem Van den Heuvel  : Paramagnetic NMR
   Boris Wezisla          : Elementary symmetry handling
   Frank Wennmohs         : Technical directorship


 We gratefully acknowledge several colleagues who have allowed us to
 interface, adapt or use parts of their codes:
   Stefan Grimme, W. Hujo, H. Kruse, P. Pracht,  : VdW corrections, initial TS optimization,
                  C. Bannwarth, S. Ehlert          DFT functionals, gCP, sTDA/sTD-DF
   Ed Valeev, F. Pavosevic, A. Kumar             : LibInt (2-el integral package), F12 methods
   Garnet Chan, S. Sharma, J. Yang, R. Olivares  : DMRG
   Ulf Ekstrom                                   : XCFun DFT Library
   Mihaly Kallay                                 : mrcc  (arbitrary order and MRCC methods)
   Jiri Pittner, Ondrej Demel                    : Mk-CCSD
   Frank Weinhold                                : gennbo (NPA and NBO analysis)
   Christopher J. Cramer and Donald G. Truhlar   : smd solvation model
   Lars Goerigk                                  : TD-DFT with DH, B97 family of functionals
   V. Asgeirsson, H. Jonsson                     : NEB implementation
   FAccTs GmbH                                   : IRC, NEB, NEB-TS, DLPNO-Multilevel, CI-OPT
                                                   MM, QMMM, 2- and 3-layer-ONIOM, Crystal-QMMM,
                                                   LR-CPCM, SF, NACMEs, symmetry and pop. for TD-DFT,
                                                   nearIR, NL-DFT gradient (VV10), updates on ESD,
                                                   ML-optimized integration grids
   S Lehtola, MJT Oliveira, MAL Marques          : LibXC Library
   Liviu Ungur et al                             : ANISO software


 Your calculation uses the libint2 library for the computation of 2-el integrals
 For citations please refer to: http://libint.valeyev.net

 Your ORCA version has been built with support for libXC version: 5.1.0
 For citations please refer to: https://tddft.org/programs/libxc/

 This ORCA versions uses:
   CBLAS   interface :  Fast vector & matrix operations
   LAPACKE interface :  Fast linear algebra routines
   SCALAPACK package :  Parallel linear algebra routines
   Shared memory     :  Shared parallel matrices
   BLAS/LAPACK       :  OpenBLAS 0.3.15  USE64BITINT DYNAMIC_ARCH NO_AFFINITY SkylakeX SINGLE_THREADED
        Core in use  :  SkylakeX
   Copyright (c) 2011-2014, The OpenBLAS Project




***************************************
The coordinates will be read from file: tBuH+.xyz
***************************************


Your calculation utilizes the atom-pairwise dispersion correction
based on tight binding partial charges (D4)
Cite in your paper:
E.Caldeweyher, C.Bannwarth, S.Grimme, J.Chem.Phys., (2017), 147, 034112.
E.Caldeweyher, S.Ehlert, A.Hansen, H.Neugebauer, S.Grimme, J.Chem.Phys., (2018), in progress.
   

XCFun DFT library Copyright 2009-2010 Ulf Ekstrom and contributors.
See http://admol.org/xcfun for more information.
This is free software; see the source code for copying conditions.
There is ABSOLUTELY NO WARRANTY; not even for MERCHANTABILITY or FITNESS FOR A PARTICULAR PURPOSE.
For details see the documentation.
Scientific users of this library should cite U. Ekstrom, L. Visscher, R. Bast, A. J. Thorvaldsen and K. Ruud;
J.Chem.Theor.Comp. 2010, DOI: 10.1021/ct100117s
XCFun Version 0.99 

================================================================================

----- Orbital basis set information -----
Your calculation utilizes the basis: def2-SVP
   F. Weigend and R. Ahlrichs, Phys. Chem. Chem. Phys. 7, 3297 (2005).

----- AuxJ basis set information -----
Your calculation utilizes the auxiliary basis: def2/J
   F. Weigend, Phys. Chem. Chem. Phys. 8, 1057 (2006).

================================================================================
                                        WARNINGS
                       Please study these warnings very carefully!
================================================================================


WARNING: Geometry Optimization
  ===> : Switching off AutoStart
         For restart on a previous wavefunction, please use MOREAD

INFO   : the flag for use of the SHARK integral package has been found!

================================================================================
                                       INPUT FILE
================================================================================
NAME = tBuH+_Water.inp
|  1> # ORCAForces - ../2023_02/pKa_prediction/Yates_carbene_xyzs/Our_level/Water/tBuH+_Water.inp
|  2> # Basic Mode
|  3> #
|  4> ! Opt FREQ wB97X D4 Def2-SVP SlowConv TightSCF DEFGRID2 Def2/J RIJCOSX CPCM(Water)
|  5> 
|  6> %maxcore 4500
|  7> 
|  8> %PAL NPROCS 4 END
|  9> 
| 10> %geom 
| 11> Maxiter 150
| 12> END
| 13> 
| 14> * xyzfile 1 1 tBuH+.xyz
| 15> 
| 16>                          ****END OF INPUT****
================================================================================

                       *****************************
                       * Geometry Optimization Run *
                       *****************************

Geometry optimization settings:
Update method            Update   .... BFGS
Choice of coordinates    CoordSys .... Z-matrix Internals
Initial Hessian          InHess   .... Almoef's Model

Convergence Tolerances:
Energy Change            TolE     ....  5.0000e-06 Eh
Max. Gradient            TolMAXG  ....  3.0000e-04 Eh/bohr
RMS Gradient             TolRMSG  ....  1.0000e-04 Eh/bohr
Max. Displacement        TolMAXD  ....  4.0000e-03 bohr
RMS Displacement         TolRMSD  ....  2.0000e-03 bohr
Strict Convergence                ....  False
------------------------------------------------------------------------------
                        ORCA OPTIMIZATION COORDINATE SETUP
------------------------------------------------------------------------------

The optimization will be done in new redundant internal coordinates
Making redundant internal coordinates   ...  (new redundants) done
Evaluating the initial hessian          ...  (Almloef) done
Evaluating the coordinates              ...  done
Calculating the B-matrix                .... done
Calculating the G-matrix                .... done
Diagonalizing the G-matrix              .... done
Small eigenvalue found = 9.550e-03
Small eigenvalue found = 2.449e-02
The first mode is                       ....   87
The number of degrees of freedom        ....   96

    -----------------------------------------------------------------
                    Redundant Internal Coordinates


    -----------------------------------------------------------------
         Definition                    Initial Value    Approx d2E/dq
    -----------------------------------------------------------------
      1. B(N   2,C   0)                  1.5175         0.350296   
      2. B(N   3,C   1)                  1.5175         0.350296   
      3. B(C   4,N   2)                  1.3826         0.575002   
      4. B(C   5,N   3)                  1.3826         0.575002   
      5. B(C   5,C   4)                  1.3588         0.700623   
      6. B(C   6,N   3)                  1.3384         0.676273   
      7. B(C   6,N   2)                  1.3384         0.676273   
      8. B(H   7,C   4)                  1.0752         0.380284   
      9. B(H   8,C   5)                  1.0752         0.380284   
     10. B(H   9,C   6)                  1.0725         0.384022   
     11. B(C  10,C   0)                  1.5359         0.365536   
     12. B(C  11,C   1)                  1.5359         0.365536   
     13. B(C  12,C   1)                  1.5359         0.365536   
     14. B(C  13,C   0)                  1.5359         0.365536   
     15. B(H  14,C  10)                  1.0917         0.357812   
     16. B(H  15,C  11)                  1.0917         0.357812   
     17. B(H  16,C  12)                  1.0917         0.357812   
     18. B(H  17,C  13)                  1.0917         0.357812   
     19. B(H  18,C  10)                  1.0913         0.358337   
     20. B(H  19,C  11)                  1.0913         0.358337   
     21. B(H  20,C  12)                  1.0913         0.358337   
     22. B(H  21,C  13)                  1.0913         0.358337   
     23. B(H  22,C  10)                  1.0921         0.357328   
     24. B(H  23,C  11)                  1.0921         0.357328   
     25. B(H  24,C  12)                  1.0921         0.357328   
     26. B(H  25,C  13)                  1.0921         0.357328   
     27. B(C  26,C   0)                  1.5315         0.371573   
     28. B(C  27,C   1)                  1.5315         0.371573   
     29. B(H  28,C  26)                  1.0905         0.359381   
     30. B(H  29,C  27)                  1.0905         0.359381   
     31. B(H  30,C  26)                  1.0928         0.356356   
     32. B(H  31,C  27)                  1.0928         0.356356   
     33. B(H  32,C  27)                  1.0928         0.356356   
     34. B(H  33,C  26)                  1.0928         0.356356   
     35. A(C  10,C   0,C  26)          110.3550         0.361672   
     36. A(N   2,C   0,C  26)          109.1334         0.356834   
     37. A(C  10,C   0,C  13)          111.5691         0.360663   
     38. A(C  13,C   0,C  26)          110.3550         0.361672   
     39. A(N   2,C   0,C  10)          107.6618         0.355843   
     40. A(N   2,C   0,C  13)          107.6618         0.355843   
     41. A(C  11,C   1,C  27)          110.3550         0.361672   
     42. A(C  12,C   1,C  27)          110.3550         0.361672   
     43. A(C  11,C   1,C  12)          111.5691         0.360663   
     44. A(N   3,C   1,C  11)          107.6618         0.355843   
     45. A(N   3,C   1,C  27)          109.1334         0.356834   
     46. A(N   3,C   1,C  12)          107.6618         0.355843   
     47. A(C   0,N   2,C   4)          125.1464         0.382223   
     48. A(C   4,N   2,C   6)          107.7308         0.429298   
     49. A(C   0,N   2,C   6)          127.1227         0.393189   
     50. A(C   1,N   3,C   6)          127.1227         0.393189   
     51. A(C   1,N   3,C   5)          125.1464         0.382223   
     52. A(C   5,N   3,C   6)          107.7308         0.429298   
     53. A(N   2,C   4,C   5)          107.4486         0.434879   
     54. A(C   5,C   4,H   7)          129.8779         0.363683   
     55. A(N   2,C   4,H   7)          122.6736         0.349508   
     56. A(N   3,C   5,H   8)          122.6736         0.349508   
     57. A(C   4,C   5,H   8)          129.8779         0.363683   
     58. A(N   3,C   5,C   4)          107.4486         0.434879   
     59. A(N   3,C   6,H   9)          125.1794         0.359849   
     60. A(N   2,C   6,H   9)          125.1794         0.359849   
     61. A(N   2,C   6,N   3)          109.6412         0.442025   
     62. A(H  14,C  10,H  18)          107.5079         0.290325   
     63. A(C   0,C  10,H  18)          109.1940         0.322903   
     64. A(C   0,C  10,H  14)          112.0132         0.322825   
     65. A(H  18,C  10,H  22)          108.1630         0.290263   
     66. A(H  14,C  10,H  22)          108.5859         0.290196   
     67. A(C   0,C  10,H  22)          111.2348         0.322754   
     68. A(H  15,C  11,H  19)          107.5079         0.290325   
     69. A(C   1,C  11,H  19)          109.1940         0.322903   
     70. A(C   1,C  11,H  15)          112.0132         0.322825   
     71. A(H  19,C  11,H  23)          108.1630         0.290263   
     72. A(H  15,C  11,H  23)          108.5859         0.290196   
     73. A(C   1,C  11,H  23)          111.2348         0.322754   
     74. A(C   1,C  12,H  20)          109.1940         0.322903   
     75. A(H  16,C  12,H  20)          107.5079         0.290325   
     76. A(C   1,C  12,H  16)          112.0132         0.322825   
     77. A(H  20,C  12,H  24)          108.1630         0.290263   
     78. A(H  16,C  12,H  24)          108.5859         0.290196   
     79. A(C   1,C  12,H  24)          111.2348         0.322754   
     80. A(C   0,C  13,H  17)          112.0132         0.322825   
     81. A(H  21,C  13,H  25)          108.1630         0.290263   
     82. A(H  17,C  13,H  25)          108.5859         0.290196   
     83. A(C   0,C  13,H  25)          111.2348         0.322754   
     84. A(H  17,C  13,H  21)          107.5079         0.290325   
     85. A(C   0,C  13,H  21)          109.1940         0.322903   
     86. A(H  28,C  26,H  33)          107.1995         0.290271   
     87. A(C   0,C  26,H  33)          112.1537         0.323477   
     88. A(H  30,C  26,H  33)          109.5289         0.289887   
     89. A(H  28,C  26,H  30)          107.1995         0.290271   
     90. A(C   0,C  26,H  30)          112.1537         0.323477   
     91. A(C   0,C  26,H  28)          108.3531         0.323926   
     92. A(H  31,C  27,H  32)          109.5289         0.289887   
     93. A(H  29,C  27,H  32)          107.1995         0.290271   
     94. A(C   1,C  27,H  32)          112.1537         0.323477   
     95. A(H  29,C  27,H  31)          107.1995         0.290271   
     96. A(C   1,C  27,H  31)          112.1537         0.323477   
     97. A(C   1,C  27,H  29)          108.3531         0.323926   
     98. D(C   6,N   2,C   0,C  10)    119.7920         0.010591   
     99. D(C   6,N   2,C   0,C  26)      0.0000         0.010591   
    100. D(C   4,N   2,C   0,C  26)    180.0000         0.010591   
    101. D(C   4,N   2,C   0,C  10)    -60.2080         0.010591   
    102. D(C   6,N   2,C   0,C  13)   -119.7920         0.010591   
    103. D(C   4,N   2,C   0,C  13)     60.2080         0.010591   
    104. D(C   5,N   3,C   1,C  11)     60.2080         0.010591   
    105. D(C   6,N   3,C   1,C  12)    119.7920         0.010591   
    106. D(C   5,N   3,C   1,C  27)    180.0000         0.010591   
    107. D(C   5,N   3,C   1,C  12)    -60.2080         0.010591   
    108. D(C   6,N   3,C   1,C  11)   -119.7920         0.010591   
    109. D(C   6,N   3,C   1,C  27)      0.0000         0.010591   
    110. D(C   5,C   4,N   2,C   0)    180.0000         0.026489   
    111. D(C   5,C   4,N   2,C   6)      0.0000         0.026489   
    112. D(H   7,C   4,N   2,C   0)      0.0000         0.026489   
    113. D(H   7,C   4,N   2,C   6)    180.0000         0.026489   
    114. D(H   8,C   5,C   4,H   7)      0.0000         0.034577   
    115. D(N   3,C   5,C   4,H   7)    180.0000         0.034577   
    116. D(N   3,C   5,C   4,N   2)      0.0000         0.034577   
    117. D(H   8,C   5,N   3,C   6)    180.0000         0.026489   
    118. D(C   4,C   5,N   3,C   6)      0.0000         0.026489   
    119. D(H   8,C   5,C   4,N   2)    180.0000         0.034577   
    120. D(C   4,C   5,N   3,C   1)    180.0000         0.026489   
    121. D(H   8,C   5,N   3,C   1)      0.0000         0.026489   
    122. D(N   2,C   6,N   3,C   5)      0.0000         0.037593   
    123. D(H   9,C   6,N   2,C   4)    180.0000         0.037593   
    124. D(H   9,C   6,N   2,C   0)      0.0000         0.037593   
    125. D(N   2,C   6,N   3,C   1)    180.0000         0.037593   
    126. D(N   3,C   6,N   2,C   4)      0.0000         0.037593   
    127. D(H   9,C   6,N   3,C   1)      0.0000         0.037593   
    128. D(N   3,C   6,N   2,C   0)    180.0000         0.037593   
    129. D(H   9,C   6,N   3,C   5)    180.0000         0.037593   
    130. D(H  22,C  10,C   0,C  26)     59.0492         0.010698   
    131. D(H  22,C  10,C   0,C  13)   -177.8854         0.010698   
    132. D(H  22,C  10,C   0,N   2)    -59.9648         0.010698   
    133. D(H  18,C  10,C   0,C  13)     62.8145         0.010698   
    134. D(H  18,C  10,C   0,C  26)    -60.2509         0.010698   
    135. D(H  18,C  10,C   0,N   2)   -179.2649         0.010698   
    136. D(H  14,C  10,C   0,C  26)   -179.2200         0.010698   
    137. D(H  14,C  10,C   0,C  13)    -56.1546         0.010698   
    138. D(H  14,C  10,C   0,N   2)     61.7661         0.010698   
    139. D(H  23,C  11,C   1,C  27)    -59.0492         0.010698   
    140. D(H  23,C  11,C   1,C  12)    177.8854         0.010698   
    141. D(H  23,C  11,C   1,N   3)     59.9648         0.010698   
    142. D(H  19,C  11,C   1,C  27)     60.2509         0.010698   
    143. D(H  19,C  11,C   1,C  12)    -62.8145         0.010698   
    144. D(H  19,C  11,C   1,N   3)    179.2649         0.010698   
    145. D(H  15,C  11,C   1,C  27)    179.2200         0.010698   
    146. D(H  15,C  11,C   1,N   3)    -61.7661         0.010698   
    147. D(H  15,C  11,C   1,C  12)     56.1546         0.010698   
    148. D(H  24,C  12,C   1,C  11)   -177.8854         0.010698   
    149. D(H  24,C  12,C   1,N   3)    -59.9648         0.010698   
    150. D(H  20,C  12,C   1,C  27)    -60.2509         0.010698   
    151. D(H  20,C  12,C   1,C  11)     62.8145         0.010698   
    152. D(H  20,C  12,C   1,N   3)   -179.2649         0.010698   
    153. D(H  16,C  12,C   1,C  27)   -179.2200         0.010698   
    154. D(H  16,C  12,C   1,C  11)    -56.1546         0.010698   
    155. D(H  24,C  12,C   1,C  27)     59.0492         0.010698   
    156. D(H  16,C  12,C   1,N   3)     61.7661         0.010698   
    157. D(H  21,C  13,C   0,N   2)    179.2649         0.010698   
    158. D(H  17,C  13,C   0,C  26)    179.2200         0.010698   
    159. D(H  17,C  13,C   0,C  10)     56.1546         0.010698   
    160. D(H  17,C  13,C   0,N   2)    -61.7661         0.010698   
    161. D(H  25,C  13,C   0,C  26)    -59.0492         0.010698   
    162. D(H  25,C  13,C   0,C  10)    177.8854         0.010698   
    163. D(H  25,C  13,C   0,N   2)     59.9648         0.010698   
    164. D(H  21,C  13,C   0,C  26)     60.2509         0.010698   
    165. D(H  21,C  13,C   0,C  10)    -62.8145         0.010698   
    166. D(H  33,C  26,C   0,C  13)    179.9863         0.011031   
    167. D(H  33,C  26,C   0,C  10)    -56.2433         0.011031   
    168. D(H  33,C  26,C   0,N   2)     61.8715         0.011031   
    169. D(H  30,C  26,C   0,C  13)     56.2433         0.011031   
    170. D(H  30,C  26,C   0,C  10)   -179.9863         0.011031   
    171. D(H  30,C  26,C   0,N   2)    -61.8715         0.011031   
    172. D(H  28,C  26,C   0,C  13)    -61.8852         0.011031   
    173. D(H  28,C  26,C   0,C  10)     61.8852         0.011031   
    174. D(H  28,C  26,C   0,N   2)    180.0000         0.011031   
    175. D(H  32,C  27,C   1,C  12)   -179.9863         0.011031   
    176. D(H  32,C  27,C   1,C  11)     56.2433         0.011031   
    177. D(H  32,C  27,C   1,N   3)    -61.8715         0.011031   
    178. D(H  31,C  27,C   1,C  12)    -56.2433         0.011031   
    179. D(H  31,C  27,C   1,C  11)    179.9863         0.011031   
    180. D(H  31,C  27,C   1,N   3)     61.8715         0.011031   
    181. D(H  29,C  27,C   1,C  12)     61.8852         0.011031   
    182. D(H  29,C  27,C   1,C  11)    -61.8852         0.011031   
    183. D(H  29,C  27,C   1,N   3)    180.0000         0.011031   
    -----------------------------------------------------------------

Number of atoms                         .... 34
Number of degrees of freedom            .... 183

         *************************************************************
         *                GEOMETRY OPTIMIZATION CYCLE   1            *
         *************************************************************
---------------------------------
CARTESIAN COORDINATES (ANGSTROEM)
---------------------------------
  C      0.000000    2.539678    0.211190
  C      0.000000   -2.539678    0.211190
  N      0.000000    1.093984   -0.250131
  N      0.000000   -1.093984   -0.250131
  C      0.000000    0.679410   -1.569120
  C      0.000000   -0.679410   -1.569120
  C      0.000000    0.000000    0.521001
  H      0.000000    1.368749   -2.394207
  H      0.000000   -1.368749   -2.394207
  H      0.000000    0.000000    1.593493
  C      1.270098    3.204672   -0.339890
  C      1.270098   -3.204672   -0.339890
  C     -1.270098   -3.204672   -0.339890
  C     -1.270098    3.204672   -0.339890
  H      1.291499    3.204383   -1.431415
  H      1.291499   -3.204383   -1.431415
  H     -1.291499   -3.204383   -1.431415
  H     -1.291499    3.204383   -1.431415
  H      1.302016    4.244832   -0.011162
  H      1.302016   -4.244832   -0.011162
  H     -1.302016   -4.244832   -0.011162
  H     -1.302016    4.244832   -0.011162
  H      2.169202    2.704260    0.026019
  H      2.169202   -2.704260    0.026019
  H     -2.169202   -2.704260    0.026019
  H     -2.169202    2.704260    0.026019
  C      0.000000    2.578045    1.742172
  C      0.000000   -2.578045    1.742172
  H      0.000000    3.621395    2.059516
  H      0.000000   -3.621395    2.059516
  H     -0.892622    2.111332    2.166101
  H     -0.892622   -2.111332    2.166101
  H      0.892622   -2.111332    2.166101
  H      0.892622    2.111332    2.166101

----------------------------
CARTESIAN COORDINATES (A.U.)
----------------------------
  NO LB      ZA    FRAG     MASS         X           Y           Z
   0 C     6.0000    0    12.011    0.000000    4.799296    0.399091
   1 C     6.0000    0    12.011    0.000000   -4.799296    0.399091
   2 N     7.0000    0    14.007    0.000000    2.067330   -0.472679
   3 N     7.0000    0    14.007    0.000000   -2.067330   -0.472679
   4 C     6.0000    0    12.011    0.000000    1.283899   -2.965207
   5 C     6.0000    0    12.011    0.000000   -1.283899   -2.965207
   6 C     6.0000    0    12.011    0.000000    0.000000    0.984549
   7 H     1.0000    0     1.008    0.000000    2.586561   -4.524396
   8 H     1.0000    0     1.008    0.000000   -2.586561   -4.524396
   9 H     1.0000    0     1.008    0.000000    0.000000    3.011265
  10 C     6.0000    0    12.011    2.400137    6.055952   -0.642299
  11 C     6.0000    0    12.011    2.400137   -6.055952   -0.642299
  12 C     6.0000    0    12.011   -2.400137   -6.055952   -0.642299
  13 C     6.0000    0    12.011   -2.400137    6.055952   -0.642299
  14 H     1.0000    0     1.008    2.440579    6.055406   -2.704982
  15 H     1.0000    0     1.008    2.440579   -6.055406   -2.704982
  16 H     1.0000    0     1.008   -2.440579   -6.055406   -2.704982
  17 H     1.0000    0     1.008   -2.440579    6.055406   -2.704982
  18 H     1.0000    0     1.008    2.460454    8.021570   -0.021093
  19 H     1.0000    0     1.008    2.460454   -8.021570   -0.021093
  20 H     1.0000    0     1.008   -2.460454   -8.021570   -0.021093
  21 H     1.0000    0     1.008   -2.460454    8.021570   -0.021093
  22 H     1.0000    0     1.008    4.099198    5.110311    0.049169
  23 H     1.0000    0     1.008    4.099198   -5.110311    0.049169
  24 H     1.0000    0     1.008   -4.099198   -5.110311    0.049169
  25 H     1.0000    0     1.008   -4.099198    5.110311    0.049169
  26 C     6.0000    0    12.011    0.000000    4.871799    3.292228
  27 C     6.0000    0    12.011    0.000000   -4.871799    3.292228
  28 H     1.0000    0     1.008    0.000000    6.843445    3.891921
  29 H     1.0000    0     1.008    0.000000   -6.843445    3.891921
  30 H     1.0000    0     1.008   -1.686811    3.989839    4.093338
  31 H     1.0000    0     1.008   -1.686811   -3.989839    4.093338
  32 H     1.0000    0     1.008    1.686811   -3.989839    4.093338
  33 H     1.0000    0     1.008    1.686811    3.989839    4.093338

--------------------------------
INTERNAL COORDINATES (ANGSTROEM)
--------------------------------
 C      0   0   0     0.000000000000     0.00000000     0.00000000
 C      1   0   0     5.079356000000     0.00000000     0.00000000
 N      1   2   0     1.517513824213    17.69788471     0.00000000
 N      2   1   3     1.517513824213    17.69788471     0.00000000
 C      3   1   2     1.382607530573   125.14644100   180.00000000
 C      5   3   1     1.358820000000   107.44855629   180.00000085
 C      3   1   2     1.338448935776   127.12271222     0.00000000
 H      5   3   1     1.075154321244   122.67355370     0.00000000
 H      6   5   3     1.075154321244   129.87789001   180.00000000
 H      7   3   1     1.072492000000   125.17940307     0.00000000
 C      1   2   4     1.535921585251   115.65561392   293.45543262
 C      2   1   3     1.535921585251   115.65561392    66.54456738
 C      2   1   3     1.535921585251   115.65561392   293.45543262
 C      1   2   4     1.535921585251   115.65561392    66.54456738
 H     11   1   2     1.091734817594   112.01324186    78.78417695
 H     12   2   1     1.091734817594   112.01324186   281.21582305
 H     13   2   1     1.091734817594   112.01324186    78.78417695
 H     14   1   2     1.091734817594   112.01324186   281.21582305
 H     11   1   2     1.091335733085   109.19404378   197.75324053
 H     12   2   1     1.091335733085   109.19404378   162.24675947
 H     13   2   1     1.091335733085   109.19404378   197.75324053
 H     14   1   2     1.091335733085   109.19404378   162.24675947
 H     11   1   2     1.092103277553   111.23482616   317.05333909
 H     12   2   1     1.092103277553   111.23482616    42.94666091
 H     13   2   1     1.092103277553   111.23482616   317.05333909
 H     14   1   2     1.092103277553   111.23482616    42.94666091
 C      1   2   4     1.531462670460    91.43555389   180.00000085
 C      2   1   3     1.531462670460    91.43555389   180.00000085
 H     27   1   2     1.090544101280   108.35314996   180.00000000
 H     28   2   1     1.090544101280   108.35314996   180.00000000
 H     27   1   2     1.092845303002   112.15369221   298.12852489
 H     28   2   1     1.092845303002   112.15369221    61.87147511
 H     28   2   1     1.092845303002   112.15369221   298.12852489
 H     27   1   2     1.092845303002   112.15369221    61.87147511

---------------------------
INTERNAL COORDINATES (A.U.)
---------------------------
 C      0   0   0     0.000000000000     0.00000000     0.00000000
 C      1   0   0     9.598591776690     0.00000000     0.00000000
 N      1   2   0     2.867685532202    17.69788471     0.00000000
 N      2   1   3     2.867685532202    17.69788471     0.00000000
 C      3   1   2     2.612749583480   125.14644100   180.00000000
 C      5   3   1     2.567797665295   107.44855629   180.00000085
 C      3   1   2     2.529301932855   127.12271222     0.00000000
 H      5   3   1     2.031747218853   122.67355370     0.00000000
 H      6   5   3     2.031747218853   129.87789001   180.00000000
 H      7   3   1     2.026716160821   125.17940307     0.00000000
 C      1   2   4     2.902471159303   115.65561392   293.45543262
 C      2   1   3     2.902471159303   115.65561392    66.54456738
 C      2   1   3     2.902471159303   115.65561392   293.45543262
 C      1   2   4     2.902471159303   115.65561392    66.54456738
 H     11   1   2     2.063079816119   112.01324186    78.78417695
 H     12   2   1     2.063079816119   112.01324186   281.21582305
 H     13   2   1     2.063079816119   112.01324186    78.78417695
 H     14   1   2     2.063079816119   112.01324186   281.21582305
 H     11   1   2     2.062325655693   109.19404378   197.75324053
 H     12   2   1     2.062325655693   109.19404378   162.24675947
 H     13   2   1     2.062325655693   109.19404378   197.75324053
 H     14   1   2     2.062325655693   109.19404378   162.24675947
 H     11   1   2     2.063776104532   111.23482616   317.05333909
 H     12   2   1     2.063776104532   111.23482616    42.94666091
 H     13   2   1     2.063776104532   111.23482616   317.05333909
 H     14   1   2     2.063776104532   111.23482616    42.94666091
 C      1   2   4     2.894045031493    91.43555389   180.00000085
 C      2   1   3     2.894045031493    91.43555389   180.00000085
 H     27   1   2     2.060829688382   108.35314996   180.00000000
 H     28   2   1     2.060829688382   108.35314996   180.00000000
 H     27   1   2     2.065178329416   112.15369221   298.12852489
 H     28   2   1     2.065178329416   112.15369221    61.87147511
 H     28   2   1     2.065178329416   112.15369221   298.12852489
 H     27   1   2     2.065178329416   112.15369221    61.87147511

---------------------
BASIS SET INFORMATION
---------------------
There are 3 groups of distinct atoms

 Group   1 Type C   : 7s4p1d contracted to 3s2p1d pattern {511/31/1}
 Group   2 Type N   : 7s4p1d contracted to 3s2p1d pattern {511/31/1}
 Group   3 Type H   : 4s1p contracted to 2s1p pattern {31/1}

Atom   0C    basis set group =>   1
Atom   1C    basis set group =>   1
Atom   2N    basis set group =>   2
Atom   3N    basis set group =>   2
Atom   4C    basis set group =>   1
Atom   5C    basis set group =>   1
Atom   6C    basis set group =>   1
Atom   7H    basis set group =>   3
Atom   8H    basis set group =>   3
Atom   9H    basis set group =>   3
Atom  10C    basis set group =>   1
Atom  11C    basis set group =>   1
Atom  12C    basis set group =>   1
Atom  13C    basis set group =>   1
Atom  14H    basis set group =>   3
Atom  15H    basis set group =>   3
Atom  16H    basis set group =>   3
Atom  17H    basis set group =>   3
Atom  18H    basis set group =>   3
Atom  19H    basis set group =>   3
Atom  20H    basis set group =>   3
Atom  21H    basis set group =>   3
Atom  22H    basis set group =>   3
Atom  23H    basis set group =>   3
Atom  24H    basis set group =>   3
Atom  25H    basis set group =>   3
Atom  26C    basis set group =>   1
Atom  27C    basis set group =>   1
Atom  28H    basis set group =>   3
Atom  29H    basis set group =>   3
Atom  30H    basis set group =>   3
Atom  31H    basis set group =>   3
Atom  32H    basis set group =>   3
Atom  33H    basis set group =>   3
---------------------------------
AUXILIARY/J BASIS SET INFORMATION
---------------------------------
There are 3 groups of distinct atoms

 Group   1 Type C   : 12s5p4d2f1g contracted to 6s4p3d1f1g pattern {711111/2111/211/2/1}
 Group   2 Type N   : 12s5p4d2f1g contracted to 6s4p3d1f1g pattern {711111/2111/211/2/1}
 Group   3 Type H   : 5s2p1d contracted to 3s1p1d pattern {311/2/1}

Atom   0C    basis set group =>   1
Atom   1C    basis set group =>   1
Atom   2N    basis set group =>   2
Atom   3N    basis set group =>   2
Atom   4C    basis set group =>   1
Atom   5C    basis set group =>   1
Atom   6C    basis set group =>   1
Atom   7H    basis set group =>   3
Atom   8H    basis set group =>   3
Atom   9H    basis set group =>   3
Atom  10C    basis set group =>   1
Atom  11C    basis set group =>   1
Atom  12C    basis set group =>   1
Atom  13C    basis set group =>   1
Atom  14H    basis set group =>   3
Atom  15H    basis set group =>   3
Atom  16H    basis set group =>   3
Atom  17H    basis set group =>   3
Atom  18H    basis set group =>   3
Atom  19H    basis set group =>   3
Atom  20H    basis set group =>   3
Atom  21H    basis set group =>   3
Atom  22H    basis set group =>   3
Atom  23H    basis set group =>   3
Atom  24H    basis set group =>   3
Atom  25H    basis set group =>   3
Atom  26C    basis set group =>   1
Atom  27C    basis set group =>   1
Atom  28H    basis set group =>   3
Atom  29H    basis set group =>   3
Atom  30H    basis set group =>   3
Atom  31H    basis set group =>   3
Atom  32H    basis set group =>   3
Atom  33H    basis set group =>   3


           ************************************************************
           *        Program running with 4 parallel MPI-processes     *
           *              working on a common directory               *
           ************************************************************
------------------------------------------------------------------------------
                           ORCA GTO INTEGRAL CALCULATION
                           -- RI-GTO INTEGRALS CHOSEN --
------------------------------------------------------------------------------
------------------------------------------------------------------------------
                   ___                                                        
                  /   \      - P O W E R E D   B Y -                         
                 /     \                                                     
                 |  |  |   _    _      __       _____    __    __             
                 |  |  |  | |  | |    /  \     |  _  \  |  |  /  |          
                  \  \/   | |  | |   /    \    | | | |  |  | /  /          
                 / \  \   | |__| |  /  /\  \   | |_| |  |  |/  /          
                |  |  |   |  __  | /  /__\  \  |    /   |      \           
                |  |  |   | |  | | |   __   |  |    \   |  |\   \          
                \     /   | |  | | |  |  |  |  | |\  \  |  | \   \       
                 \___/    |_|  |_| |__|  |__|  |_| \__\ |__|  \__/        
                                                                              
                      - O R C A' S   B I G   F R I E N D -                    
                                      &                                       
                       - I N T E G R A L  F E E D E R -                       
                                                                              
 v1 FN, 2020, v2 2021                                                         
------------------------------------------------------------------------------


Reading SHARK input file tBuH+_Water.SHARKINP.tmp ... ok
----------------------
SHARK INTEGRAL PACKAGE
----------------------

Number of atoms                             ...     34
Number of basis functions                   ...    287
Number of shells                            ...    141
Maximum angular momentum                    ...      2
Integral batch strategy                     ... SHARK/LIBINT Hybrid
RI-J (if used) integral strategy            ... SPLIT-RIJ (Revised 2003 algorithm where possible)
Printlevel                                  ...      1
Contraction scheme used                     ... SEGMENTED contraction
Coulomb Range Separation                    ... NOT USED
Exchange Range Separation                   ... Long Range
   Mu parameter                             ...  0.300000
   Scaling (regular/separated)              ...  0.157706  0.842294
Finite Nucleus Model                        ... NOT USED
Auxiliary Coulomb fitting basis             ... AVAILABLE
   # of basis functions in Aux-J            ...    868
   # of shells in Aux-J                     ...    300
   Maximum angular momentum in Aux-J        ...      4
Auxiliary J/K fitting basis                 ... NOT available
Auxiliary Correlation fitting basis         ... NOT available
Auxiliary 'external' fitting basis          ... NOT available
Integral threshold                          ...     2.500000e-11
Primitive cut-off                           ...     2.500000e-12
Primitive pair pre-selection threshold      ...     2.500000e-12

Calculating pre-screening integrals         ... done (  0.0 sec) Dimension = 141
Organizing shell pair data                  ... done (  0.1 sec)
Shell pair information
Total number of shell pairs                 ...     10011
Shell pairs after pre-screening             ...      8530
Total number of primitive shell pairs       ...     34423
Primitive shell pairs kept                  ...     20482
          la=0 lb=0:   2937 shell pairs
          la=1 lb=0:   3237 shell pairs
          la=1 lb=1:    917 shell pairs
          la=2 lb=0:    879 shell pairs
          la=2 lb=1:    485 shell pairs
          la=2 lb=2:     75 shell pairs

Calculating one electron integrals          ... done (  0.0 sec)
Calculating RI/J V-Matrix + Cholesky decomp.... done (  0.1 sec)
Calculating Nuclear repulsion               ... done (  0.0 sec) ENN=    868.302289151680 Eh

SHARK setup successfully completed in   0.4 seconds

Maximum memory used throughout the entire GTOINT-calculation: 16.7 MB


           ************************************************************
           *        Program running with 4 parallel MPI-processes     *
           *              working on a common directory               *
           ************************************************************
-------------------------------------------------------------------------------
                                 ORCA SCF
-------------------------------------------------------------------------------

------------
SCF SETTINGS
------------
Hamiltonian:
 Density Functional     Method          .... DFT(GTOs)
 Exchange Functional    Exchange        .... WB97X
 Correlation Functional Correlation     .... WB97X
 Gradients option       PostSCFGGA      .... off
 Hybrid DFT is turned on
   Fraction HF Exchange ScalHFX         ....  0.157706
   Scaling of DF-GGA-X  ScalDFX         ....  0.000000
   Scaling of DF-GGA-C  ScalDFC         ....  1.000000
   Scaling of DF-LDA-C  ScalLDAC        ....  1.000000
   Perturbative correction              ....  0.000000
   Density functional embedding theory  .... OFF
 Long-range corrected/Screened/Range-Separated Hybrid DFT is turned on
   Amount of maximum screened exact exchange              ....  0.842294
   Range separation parameter mu (erf(mu*r12)/r12)        ....  0.300000
 RI-approximation to the Coulomb term is turned on
   Number of AuxJ basis functions       .... 868
   RIJ-COSX (HFX calculated with COS-X)).... on


General Settings:
 Integral files         IntName         .... tBuH+_Water
 Hartree-Fock type      HFTyp           .... RHF
 Total Charge           Charge          ....    1
 Multiplicity           Mult            ....    1
 Number of Electrons    NEL             ....  100
 Basis Dimension        Dim             ....  287
 Nuclear Repulsion      ENuc            ....    868.3022891517 Eh

Convergence Acceleration:
 DIIS                   CNVDIIS         .... on
   Start iteration      DIISMaxIt       ....     0
   Startup error        DIISStart       ....  0.200000
   # of expansion vecs  DIISMaxEq       ....     5
   Bias factor          DIISBfac        ....   1.050
   Max. coefficient     DIISMaxC        ....  10.000
 Trust-Rad. Augm. Hess. CNVTRAH         .... auto
   Auto Start mean grad. ratio tolernc. ....  1.125000
   Auto Start start iteration           ....    20
   Auto Start num. interpolation iter.  ....    10
   Max. Number of Micro iterations      ....    16
   Max. Number of Macro iterations      .... Maxiter - #DIIS iter
   Number of Davidson start vectors     ....     2
   Converg. threshold I  (grad. norm)   ....   1.000e-05
   Converg. threshold II (energy diff.) ....   1.000e-08
   Grad. Scal. Fac. for Micro threshold ....   0.100
   Minimum threshold for Micro iter.    ....   0.010
   NR start threshold (gradient norm)   ....   0.001
   Initial trust radius                 ....   0.400
   Minimum AH scaling param. (alpha)    ....   1.000
   Maximum AH scaling param. (alpha)    .... 1000.000
   Orbital update algorithm             .... Taylor
   White noise on init. David. guess    .... on
   Maximum white noise                  ....   0.010
   Quad. conv. algorithm                .... NR
 SOSCF                  CNVSOSCF        .... on
   Start iteration      SOSCFMaxIt      ....   150
   Startup grad/error   SOSCFStart      ....  0.001000
 Level Shifting         CNVShift        .... on
   Level shift para.    LevelShift      ....    0.2500
   Turn off err/grad.   ShiftErr        ....    0.0000
 Zerner damping         CNVZerner       .... off
 Static damping         CNVDamp         .... on
   Fraction old density DampFac         ....    0.8500
   Max. Damping (<1)    DampMax         ....    0.9800
   Min. Damping (>=0)   DampMin         ....    0.0000
   Turn off err/grad.   DampErr         ....    0.0300
 Fernandez-Rico         CNVRico         .... off

SCF Procedure:
 Maximum # iterations   MaxIter         ....   125
 SCF integral mode      SCFMode         .... Direct
   Integral package                     .... SHARK and LIBINT hybrid scheme
 Reset frequency        DirectResetFreq ....    20
 Integral Threshold     Thresh          ....  2.500e-11 Eh
 Primitive CutOff       TCut            ....  2.500e-12 Eh

Convergence Tolerance:
 Convergence Check Mode ConvCheckMode   .... Total+1el-Energy
 Convergence forced     ConvForced      .... 0
 Energy Change          TolE            ....  1.000e-08 Eh
 1-El. energy change                    ....  1.000e-05 Eh
 Orbital Gradient       TolG            ....  1.000e-05
 Orbital Rotation angle TolX            ....  1.000e-05
 DIIS Error             TolErr          ....  5.000e-07


Diagonalization of the overlap matrix:
Smallest eigenvalue                        ... 1.088e-03
Time for diagonalization                   ...    0.014 sec
Threshold for overlap eigenvalues          ... 1.000e-08
Number of eigenvalues below threshold      ... 0
Time for construction of square roots      ...    0.042 sec
Total time needed                          ...    0.056 sec

Time for model grid setup =    0.269 sec

------------------------------
INITIAL GUESS: MODEL POTENTIAL
------------------------------
Loading Hartree-Fock densities                     ... done
Calculating cut-offs                               ... done
Initializing the effective Hamiltonian             ... done
Setting up the integral package (SHARK)            ... done
Starting the Coulomb interaction                   ... done (   0.2 sec)
Reading the grid                                   ... done
Mapping shells                                     ... done
Starting the XC term evaluation                    ... done (   0.2 sec)
  promolecular density results
     # of electrons  =    100.986023146
     EX              =    -75.615634612
     EC              =     -3.348961435
     EX+EC           =    -78.964596047
Transforming the Hamiltonian                       ... done (   0.0 sec)
Diagonalizing the Hamiltonian                      ... done (   0.0 sec)
Back transforming the eigenvectors                 ... done (   0.0 sec)
Now organizing SCF variables                       ... done
                      ------------------
                      INITIAL GUESS DONE (   0.7 sec)
                      ------------------
-------------------
DFT GRID GENERATION
-------------------

General Integration Accuracy     IntAcc      ... 4.388
Radial Grid Type                 RadialGrid  ... OptM3 with GC (2021)
Angular Grid (max. ang.)         AngularGrid ... 4 (Lebedev-302)
Angular grid pruning method      GridPruning ... 4 (adaptive)
Weight generation scheme         WeightScheme... Becke
Basis function cutoff            BFCut       ... 1.0000e-11
Integration weight cutoff        WCut        ... 1.0000e-14
Angular grids for H and He will be reduced by one unit
Partially contracted basis set               ... off
Rotationally invariant grid construction     ... off

Total number of grid points                  ...   144197
Total number of batches                      ...     2268
Average number of points per batch           ...       63
Average number of grid points per atom       ...     4241
Time for grid setup =    1.082 sec

--------------------
COSX GRID GENERATION
--------------------

GRIDX 1
-------
General Integration Accuracy     IntAcc      ... 3.816
Radial Grid Type                 RadialGrid  ... OptM3 with GC (2021)
Angular Grid (max. ang.)         AngularGrid ... 1 (Lebedev-50)
Angular grid pruning method      GridPruning ... 4 (adaptive)
Weight generation scheme         WeightScheme... Becke
Basis function cutoff            BFCut       ... 1.0000e-11
Integration weight cutoff        WCut        ... 1.0000e-14
Angular grids for H and He will be reduced by one unit
Partially contracted basis set               ... on
Rotationally invariant grid construction     ... off

Total number of grid points                  ...    18402
Total number of batches                      ...      306
Average number of points per batch           ...       60
Average number of grid points per atom       ...      541
UseSFitting                                  ... on

GRIDX 2
-------
General Integration Accuracy     IntAcc      ... 4.020
Radial Grid Type                 RadialGrid  ... OptM3 with GC (2021)
Angular Grid (max. ang.)         AngularGrid ... 2 (Lebedev-110)
Angular grid pruning method      GridPruning ... 4 (adaptive)
Weight generation scheme         WeightScheme... Becke
Basis function cutoff            BFCut       ... 1.0000e-11
Integration weight cutoff        WCut        ... 1.0000e-14
Angular grids for H and He will be reduced by one unit
Partially contracted basis set               ... on
Rotationally invariant grid construction     ... off

Total number of grid points                  ...    38164
Total number of batches                      ...      611
Average number of points per batch           ...       62
Average number of grid points per atom       ...     1122
UseSFitting                                  ... on

GRIDX 3
-------
General Integration Accuracy     IntAcc      ... 4.338
Radial Grid Type                 RadialGrid  ... OptM3 with GC (2021)
Angular Grid (max. ang.)         AngularGrid ... 3 (Lebedev-194)
Angular grid pruning method      GridPruning ... 4 (adaptive)
Weight generation scheme         WeightScheme... Becke
Basis function cutoff            BFCut       ... 1.0000e-11
Integration weight cutoff        WCut        ... 1.0000e-14
Angular grids for H and He will be reduced by one unit
Partially contracted basis set               ... on
Rotationally invariant grid construction     ... off

Total number of grid points                  ...    82978
Total number of batches                      ...     1313
Average number of points per batch           ...       63
Average number of grid points per atom       ...     2441
UseSFitting                                  ... on

Time for X-Grid setup             =    1.161 sec


--------------------
CPCM SOLVATION MODEL
--------------------
CPCM parameters:
  Epsilon                                         ...      80.4000
  Refrac                                          ...       1.3300
  Rsolv                                           ...       1.3000
  Surface type                                    ... GAUSSIAN VDW
  Epsilon function type                           ...         CPCM
Radii:
 Radius for C  used is    3.8550 Bohr (=   2.0400 Ang.)
 Radius for N  used is    3.5149 Bohr (=   1.8600 Ang.)
 Radius for H  used is    2.4944 Bohr (=   1.3200 Ang.)
Calculating surface                               ...        done! (  0.0s)
GEPOL surface points                              ...         1781
GEPOL Volume                                      ...    1685.7852
GEPOL Surface-area                                ...     905.6902
Calculating surface distance matrix               ...        done! (  0.0s)
Performing Cholesky decomposition & store         ...        done! (  0.1s)
Overall time for CPCM initialization              ...                 0.1s
--------------
SCF ITERATIONS
--------------
ITER       Energy         Delta-E        Max-DP      RMS-DP      [F,P]     Damp
               ***  Starting incremental Fock matrix formation  ***
  0   -540.4030861702   0.000000000000 0.03353408  0.00061543  0.1459641 0.8500
  1   -540.4626753449  -0.059589174703 0.03012485  0.00057588  0.1175718 0.8500
                               ***Turning on DIIS***
  2   -540.5077061084  -0.045030763478 0.02361598  0.00046783  0.0902869 0.8500
  3   -540.5409376094  -0.033231501003 0.01485363  0.00033004  0.0684686 0.8500
  4   -540.5664132295  -0.025475620049 0.01006326  0.00025244  0.0545104 0.8500
  5   -540.5863759209  -0.019962691475 0.00767847  0.00020712  0.0450357 0.8500
  6   -540.6025399913  -0.016164070316 0.00622276  0.00017479  0.0378439 0.8500
  7   -540.6158765812  -0.013336589926 0.00528780  0.00015040  0.0320285 0.8500
  8   -540.6270048280  -0.011128246863 0.03002548  0.00086261  0.0270868 0.0000
  9   -540.6865309078  -0.059526079737 0.00132241  0.00003151  0.0011865 0.0000
                      *** Initiating the SOSCF procedure ***
                           *** Shutting down DIIS ***
                      *** Re-Reading the Fockian *** 
                      *** Removing any level shift *** 
ITER      Energy       Delta-E        Grad      Rot      Max-DP    RMS-DP
 10   -540.68655363  -0.0000227215  0.000155  0.000155  0.000554  0.000012
               *** Restarting incremental Fock matrix formation ***
 11   -540.68664619  -0.0000925585  0.000063  0.000123  0.000285  0.000008
 12   -540.68664653  -0.0000003449  0.000040  0.000080  0.000157  0.000004
 13   -540.68664657  -0.0000000393  0.000017  0.000023  0.000030  0.000001
                  ***Gradient check signals convergence***
              ***Rediagonalizing the Fockian in SOSCF/NRSCF***

               *****************************************************
               *                     SUCCESS                       *
               *           SCF CONVERGED AFTER  14 CYCLES          *
               *****************************************************

Old exchange energy                            =    -25.351211186 Eh
New exchange energy                            =    -25.351194866 Eh
Exchange energy change after final integration =      0.000016320 Eh
Total energy after final integration           =   -540.686630279 Eh
Final COS-X integration done in                =    23.735 sec

----------------
TOTAL SCF ENERGY
----------------

Total Energy       :         -540.68663028 Eh          -14712.83120 eV

Components:
Nuclear Repulsion  :          868.30228915 Eh           23627.70650 eV
Electronic Energy  :        -1408.98891943 Eh          -38340.53769 eV
One Electron Energy:        -2434.96054103 Eh          -66258.64485 eV
Two Electron Energy:         1025.97162160 Eh           27918.10715 eV
Max COSX asymmetry :            0.00000253 Eh               0.00007 eV
CPCM Dielectric    :           -0.07432990 Eh              -2.02262 eV

Virial components:
Potential Energy   :        -1074.57453018 Eh          -29240.65953 eV
Kinetic Energy     :          533.88789991 Eh           14527.82834 eV
Virial Ratio       :            2.01273438


DFT components:
N(Alpha)           :       49.999656435447 electrons
N(Beta)            :       49.999656435447 electrons
N(Total)           :       99.999312870893 electrons
E(XC)              :      -55.560506863025 Eh       
DFET-embed. en.    :        0.000000000000 Eh       
CPCM Solvation Model Properties:
Surface-charge          :           -1.02415200
Charge-correction       :            0.00316975 Eh               0.08625 eV
Free-energy (cav+disp)  :  This term is not implemented in the current solvation scheme

---------------
SCF CONVERGENCE
---------------

  Last Energy change         ...   -2.7200e-08  Tolerance :   1.0000e-08
  Last MAX-Density change    ...    4.8850e-15  Tolerance :   1.0000e-07
  Last RMS-Density change    ...    4.3791e-17  Tolerance :   5.0000e-09
  Last Orbital Gradient      ...    2.2303e-06  Tolerance :   1.0000e-05
  Last Orbital Rotation      ...    4.0214e-06  Tolerance :   1.0000e-05

             **** THE GBW FILE WAS UPDATED (tBuH+_Water.gbw) ****
             **** DENSITY tBuH+_Water.scfp WAS UPDATED ****
             **** ENERGY FILE WAS UPDATED (tBuH+_Water.en.tmp) ****
             **** THE GBW FILE WAS UPDATED (tBuH+_Water.gbw) ****
             **** DENSITY tBuH+_Water.scfp WAS UPDATED ****
----------------
ORBITAL ENERGIES
----------------

  NO   OCC          E(Eh)            E(eV) 
   0   2.0000     -14.507782      -394.7768 
   1   2.0000     -14.507730      -394.7754 
   2   2.0000     -10.383230      -282.5421 
   3   2.0000     -10.349454      -281.6230 
   4   2.0000     -10.349430      -281.6223 
   5   2.0000     -10.332031      -281.1489 
   6   2.0000     -10.331445      -281.1329 
   7   2.0000     -10.274571      -279.5853 
   8   2.0000     -10.274559      -279.5850 
   9   2.0000     -10.272156      -279.5196 
  10   2.0000     -10.272152      -279.5195 
  11   2.0000     -10.272140      -279.5191 
  12   2.0000     -10.272137      -279.5191 
  13   2.0000      -1.207709       -32.8634 
  14   2.0000      -1.088847       -29.6290 
  15   2.0000      -0.976210       -26.5640 
  16   2.0000      -0.932015       -25.3614 
  17   2.0000      -0.919547       -25.0221 
  18   2.0000      -0.832325       -22.6487 
  19   2.0000      -0.826047       -22.4779 
  20   2.0000      -0.824568       -22.4376 
  21   2.0000      -0.824022       -22.4228 
  22   2.0000      -0.789771       -21.4908 
  23   2.0000      -0.764007       -20.7897 
  24   2.0000      -0.726081       -19.7577 
  25   2.0000      -0.701726       -19.0949 
  26   2.0000      -0.645065       -17.5531 
  27   2.0000      -0.624487       -16.9932 
  28   2.0000      -0.604643       -16.4532 
  29   2.0000      -0.587619       -15.9899 
  30   2.0000      -0.583728       -15.8840 
  31   2.0000      -0.577387       -15.7115 
  32   2.0000      -0.575964       -15.6728 
  33   2.0000      -0.555851       -15.1255 
  34   2.0000      -0.554728       -15.0949 
  35   2.0000      -0.547078       -14.8867 
  36   2.0000      -0.518899       -14.1200 
  37   2.0000      -0.502000       -13.6601 
  38   2.0000      -0.500043       -13.6069 
  39   2.0000      -0.498511       -13.5652 
  40   2.0000      -0.496371       -13.5069 
  41   2.0000      -0.486499       -13.2383 
  42   2.0000      -0.482517       -13.1300 
  43   2.0000      -0.482344       -13.1252 
  44   2.0000      -0.468575       -12.7506 
  45   2.0000      -0.455374       -12.3914 
  46   2.0000      -0.454310       -12.3624 
  47   2.0000      -0.452250       -12.3064 
  48   2.0000      -0.410793       -11.1783 
  49   2.0000      -0.374362       -10.1869 
  50   0.0000       0.062392         1.6978 
  51   0.0000       0.094358         2.5676 
  52   0.0000       0.132617         3.6087 
  53   0.0000       0.144133         3.9220 
  54   0.0000       0.164560         4.4779 
  55   0.0000       0.174469         4.7476 
  56   0.0000       0.174764         4.7556 
  57   0.0000       0.178628         4.8607 
  58   0.0000       0.195124         5.3096 
  59   0.0000       0.196129         5.3369 
  60   0.0000       0.208852         5.6832 
  61   0.0000       0.211923         5.7667 
  62   0.0000       0.220087         5.9889 
  63   0.0000       0.220106         5.9894 
  64   0.0000       0.222622         6.0579 
  65   0.0000       0.238728         6.4961 
  66   0.0000       0.248518         6.7625 
  67   0.0000       0.251747         6.8504 
  68   0.0000       0.263498         7.1701 
  69   0.0000       0.263941         7.1822 
  70   0.0000       0.264777         7.2049 
  71   0.0000       0.267281         7.2731 
  72   0.0000       0.274698         7.4749 
  73   0.0000       0.275391         7.4938 
  74   0.0000       0.275735         7.5031 
  75   0.0000       0.289032         7.8650 
  76   0.0000       0.290583         7.9072 
  77   0.0000       0.295264         8.0345 
  78   0.0000       0.300372         8.1735 
  79   0.0000       0.315462         8.5842 
  80   0.0000       0.316299         8.6069 
  81   0.0000       0.331468         9.0197 
  82   0.0000       0.334968         9.1149 
  83   0.0000       0.348937         9.4950 
  84   0.0000       0.399681        10.8759 
  85   0.0000       0.419525        11.4159 
  86   0.0000       0.450992        12.2721 
  87   0.0000       0.470547        12.8042 
  88   0.0000       0.471098        12.8192 
  89   0.0000       0.479884        13.0583 
  90   0.0000       0.496604        13.5133 
  91   0.0000       0.506178        13.7738 
  92   0.0000       0.507059        13.7978 
  93   0.0000       0.541223        14.7274 
  94   0.0000       0.543410        14.7869 
  95   0.0000       0.545231        14.8365 
  96   0.0000       0.591165        16.0864 
  97   0.0000       0.596545        16.2328 
  98   0.0000       0.601940        16.3796 
  99   0.0000       0.619928        16.8691 
 100   0.0000       0.637055        17.3351 
 101   0.0000       0.643421        17.5084 
 102   0.0000       0.656007        17.8509 
 103   0.0000       0.657346        17.8873 
 104   0.0000       0.672972        18.3125 
 105   0.0000       0.685519        18.6539 
 106   0.0000       0.711050        19.3487 
 107   0.0000       0.718839        19.5606 
 108   0.0000       0.728387        19.8204 
 109   0.0000       0.735075        20.0024 
 110   0.0000       0.736815        20.0498 
 111   0.0000       0.740186        20.1415 
 112   0.0000       0.742873        20.2146 
 113   0.0000       0.745182        20.2774 
 114   0.0000       0.746817        20.3219 
 115   0.0000       0.753525        20.5045 
 116   0.0000       0.765176        20.8215 
 117   0.0000       0.769480        20.9386 
 118   0.0000       0.771880        21.0039 
 119   0.0000       0.775841        21.1117 
 120   0.0000       0.780873        21.2486 
 121   0.0000       0.781570        21.2676 
 122   0.0000       0.801162        21.8007 
 123   0.0000       0.802777        21.8447 
 124   0.0000       0.806037        21.9334 
 125   0.0000       0.813186        22.1279 
 126   0.0000       0.814218        22.1560 
 127   0.0000       0.819819        22.3084 
 128   0.0000       0.822893        22.3921 
 129   0.0000       0.826652        22.4943 
 130   0.0000       0.831864        22.6362 
 131   0.0000       0.835893        22.7458 
 132   0.0000       0.836012        22.7490 
 133   0.0000       0.840995        22.8846 
 134   0.0000       0.842602        22.9284 
 135   0.0000       0.852552        23.1991 
 136   0.0000       0.868378        23.6298 
 137   0.0000       0.871518        23.7152 
 138   0.0000       0.882181        24.0054 
 139   0.0000       0.886664        24.1274 
 140   0.0000       0.984115        26.7791 
 141   0.0000       0.986077        26.8325 
 142   0.0000       1.032357        28.0919 
 143   0.0000       1.034509        28.1504 
 144   0.0000       1.044720        28.4283 
 145   0.0000       1.052056        28.6279 
 146   0.0000       1.062442        28.9105 
 147   0.0000       1.094284        29.7770 
 148   0.0000       1.103060        30.0158 
 149   0.0000       1.162046        31.6209 
 150   0.0000       1.181789        32.1581 
 151   0.0000       1.190765        32.4024 
 152   0.0000       1.209843        32.9215 
 153   0.0000       1.231835        33.5199 
 154   0.0000       1.258603        34.2483 
 155   0.0000       1.277830        34.7715 
 156   0.0000       1.296805        35.2879 
 157   0.0000       1.320747        35.9394 
 158   0.0000       1.339046        36.4373 
 159   0.0000       1.353712        36.8364 
 160   0.0000       1.359132        36.9839 
 161   0.0000       1.359236        36.9867 
 162   0.0000       1.380751        37.5721 
 163   0.0000       1.391903        37.8756 
 164   0.0000       1.404422        38.2163 
 165   0.0000       1.428923        38.8830 
 166   0.0000       1.441127        39.2151 
 167   0.0000       1.466953        39.9178 
 168   0.0000       1.544541        42.0291 
 169   0.0000       1.628608        44.3167 
 170   0.0000       1.629787        44.3488 
 171   0.0000       1.638819        44.5945 
 172   0.0000       1.647980        44.8438 
 173   0.0000       1.649464        44.8842 
 174   0.0000       1.651459        44.9385 
 175   0.0000       1.651607        44.9425 
 176   0.0000       1.652667        44.9713 
 177   0.0000       1.658292        45.1244 
 178   0.0000       1.661452        45.2104 
 179   0.0000       1.672872        45.5212 
 180   0.0000       1.713558        46.6283 
 181   0.0000       1.753168        47.7061 
 182   0.0000       1.776157        48.3317 
 183   0.0000       1.783518        48.5320 
 184   0.0000       1.800446        48.9926 
 185   0.0000       1.803520        49.0763 
 186   0.0000       1.827511        49.7291 
 187   0.0000       1.830682        49.8154 
 188   0.0000       1.833148        49.8825 
 189   0.0000       1.839340        50.0510 
 190   0.0000       1.857101        50.5343 
 191   0.0000       1.862754        50.6881 
 192   0.0000       1.882498        51.2254 
 193   0.0000       1.883230        51.2453 
 194   0.0000       1.914755        52.1031 
 195   0.0000       1.918846        52.2145 
 196   0.0000       1.924346        52.3641 
 197   0.0000       1.925338        52.3911 
 198   0.0000       1.941987        52.8442 
 199   0.0000       1.943470        52.8845 
 200   0.0000       1.947118        52.9838 
 201   0.0000       1.947913        53.0054 
 202   0.0000       1.953623        53.1608 
 203   0.0000       1.954997        53.1982 
 204   0.0000       1.964943        53.4688 
 205   0.0000       1.966707        53.5168 
 206   0.0000       1.983891        53.9844 
 207   0.0000       1.988741        54.1164 
 208   0.0000       2.014479        54.8168 
 209   0.0000       2.015203        54.8365 
 210   0.0000       2.031116        55.2695 
 211   0.0000       2.031155        55.2705 
 212   0.0000       2.046297        55.6826 
 213   0.0000       2.047120        55.7050 
 214   0.0000       2.050827        55.8058 
 215   0.0000       2.060252        56.0623 
 216   0.0000       2.068675        56.2915 
 217   0.0000       2.080141        56.6035 
 218   0.0000       2.083390        56.6919 
 219   0.0000       2.107621        57.3513 
 220   0.0000       2.110973        57.4425 
 221   0.0000       2.153530        58.6005 
 222   0.0000       2.156059        58.6693 
 223   0.0000       2.235558        60.8326 
 224   0.0000       2.249780        61.2196 
 225   0.0000       2.260381        61.5081 
 226   0.0000       2.264020        61.6071 
 227   0.0000       2.288452        62.2719 
 228   0.0000       2.296614        62.4940 
 229   0.0000       2.301788        62.6348 
 230   0.0000       2.305849        62.7453 
 231   0.0000       2.313787        62.9613 
 232   0.0000       2.327976        63.3474 
 233   0.0000       2.447945        66.6120 
 234   0.0000       2.449213        66.6465 
 235   0.0000       2.453368        66.7595 
 236   0.0000       2.473636        67.3110 
 237   0.0000       2.491298        67.7917 
 238   0.0000       2.502222        68.0889 
 239   0.0000       2.505494        68.1780 
 240   0.0000       2.517203        68.4966 
 241   0.0000       2.529576        68.8333 
 242   0.0000       2.540362        69.1268 
 243   0.0000       2.565558        69.8124 
 244   0.0000       2.567846        69.8746 
 245   0.0000       2.585294        70.3494 
 246   0.0000       2.599436        70.7342 
 247   0.0000       2.607808        70.9621 
 248   0.0000       2.612649        71.0938 
 249   0.0000       2.619665        71.2847 
 250   0.0000       2.647884        72.0526 
 251   0.0000       2.667962        72.5989 
 252   0.0000       2.726708        74.1975 
 253   0.0000       2.732013        74.3419 
 254   0.0000       2.742038        74.6147 
 255   0.0000       2.751479        74.8716 
 256   0.0000       2.790445        75.9319 
 257   0.0000       2.798801        76.1593 
 258   0.0000       2.801617        76.2359 
 259   0.0000       2.805899        76.3524 
 260   0.0000       2.824908        76.8697 
 261   0.0000       2.878561        78.3296 
 262   0.0000       2.926262        79.6276 
 263   0.0000       2.947910        80.2167 
 264   0.0000       2.951634        80.3180 
 265   0.0000       2.969758        80.8112 
 266   0.0000       2.974799        80.9484 
 267   0.0000       2.975917        80.9788 
 268   0.0000       2.984516        81.2128 
 269   0.0000       2.994612        81.4875 
 270   0.0000       3.003269        81.7231 
 271   0.0000       3.009203        81.8846 
 272   0.0000       3.029749        82.4437 
 273   0.0000       3.048351        82.9499 
 274   0.0000       3.055414        83.1420 
 275   0.0000       3.065261        83.4100 
 276   0.0000       3.077233        83.7358 
 277   0.0000       3.080767        83.8319 
 278   0.0000       3.114082        84.7385 
 279   0.0000       3.125497        85.0491 
 280   0.0000       3.154782        85.8460 
 281   0.0000       3.186333        86.7045 
 282   0.0000       3.188768        86.7708 
 283   0.0000       3.277544        89.1865 
 284   0.0000       3.451579        93.9222 
 285   0.0000       3.557369        96.8009 
 286   0.0000       3.597551        97.8944 

                    ********************************
                    * MULLIKEN POPULATION ANALYSIS *
                    ********************************

-----------------------
MULLIKEN ATOMIC CHARGES
-----------------------
   0 C :   -0.234777
   1 C :   -0.234778
   2 N :   -0.192578
   3 N :   -0.192578
   4 C :    0.067755
   5 C :    0.067752
   6 C :    0.233533
   7 H :    0.096811
   8 H :    0.096811
   9 H :    0.117254
  10 C :    0.045734
  11 C :    0.045734
  12 C :    0.045734
  13 C :    0.045734
  14 H :    0.047731
  15 H :    0.047731
  16 H :    0.047731
  17 H :    0.047731
  18 H :    0.055267
  19 H :    0.055267
  20 H :    0.055266
  21 H :    0.055266
  22 H :    0.050549
  23 H :    0.050549
  24 H :    0.050550
  25 H :    0.050550
  26 C :    0.012029
  27 C :    0.012030
  28 H :    0.060918
  29 H :    0.060918
  30 H :    0.057944
  31 H :    0.057943
  32 H :    0.057944
  33 H :    0.057944
Sum of atomic charges:    1.0000000

--------------------------------
MULLIKEN REDUCED ORBITAL CHARGES
--------------------------------
  0 C s       :     3.239291  s :     3.239291
      pz      :     1.072059  p :     2.933523
      px      :     1.079079
      py      :     0.782384
      dz2     :     0.013371  d :     0.061963
      dxz     :     0.010304
      dyz     :     0.010323
      dx2y2   :     0.016920
      dxy     :     0.011045
  1 C s       :     3.239291  s :     3.239291
      pz      :     1.072060  p :     2.933525
      px      :     1.079079
      py      :     0.782385
      dz2     :     0.013371  d :     0.061963
      dxz     :     0.010304
      dyz     :     0.010323
      dx2y2   :     0.016920
      dxy     :     0.011045
  2 N s       :     3.401758  s :     3.401758
      pz      :     1.138107  p :     3.759923
      px      :     1.455586
      py      :     1.166230
      dz2     :     0.006189  d :     0.030897
      dxz     :     0.006031
      dyz     :     0.009673
      dx2y2   :     0.003843
      dxy     :     0.005162
  3 N s       :     3.401758  s :     3.401758
      pz      :     1.138107  p :     3.759923
      px      :     1.455586
      py      :     1.166230
      dz2     :     0.006189  d :     0.030897
      dxz     :     0.006031
      dyz     :     0.009673
      dx2y2   :     0.003843
      dxy     :     0.005162
  4 C s       :     3.147794  s :     3.147794
      pz      :     0.791940  p :     2.737455
      px      :     1.035752
      py      :     0.909763
      dz2     :     0.014453  d :     0.046997
      dxz     :     0.007497
      dyz     :     0.012645
      dx2y2   :     0.004838
      dxy     :     0.007563
  5 C s       :     3.147796  s :     3.147796
      pz      :     0.791940  p :     2.737455
      px      :     1.035752
      py      :     0.909763
      dz2     :     0.014453  d :     0.046997
      dxz     :     0.007497
      dyz     :     0.012645
      dx2y2   :     0.004838
      dxy     :     0.007563
  6 C s       :     3.097592  s :     3.097592
      pz      :     0.898621  p :     2.602435
      px      :     0.928797
      py      :     0.775016
      dz2     :     0.012749  d :     0.066440
      dxz     :     0.006225
      dyz     :     0.021810
      dx2y2   :     0.009070
      dxy     :     0.016586
  7 H s       :     0.878067  s :     0.878067
      pz      :     0.011458  p :     0.025122
      px      :     0.004830
      py      :     0.008834
  8 H s       :     0.878067  s :     0.878067
      pz      :     0.011458  p :     0.025122
      px      :     0.004830
      py      :     0.008834
  9 H s       :     0.857441  s :     0.857441
      pz      :     0.019104  p :     0.025305
      px      :     0.004440
      py      :     0.001761
 10 C s       :     2.989716  s :     2.989716
      pz      :     1.008064  p :     2.938962
      px      :     0.933729
      py      :     0.997170
      dz2     :     0.008170  d :     0.025588
      dxz     :     0.003629
      dyz     :     0.002558
      dx2y2   :     0.006229
      dxy     :     0.005002
 11 C s       :     2.989716  s :     2.989716
      pz      :     1.008064  p :     2.938962
      px      :     0.933729
      py      :     0.997170
      dz2     :     0.008170  d :     0.025588
      dxz     :     0.003629
      dyz     :     0.002558
      dx2y2   :     0.006229
      dxy     :     0.005002
 12 C s       :     2.989717  s :     2.989717
      pz      :     1.008063  p :     2.938961
      px      :     0.933729
      py      :     0.997169
      dz2     :     0.008170  d :     0.025588
      dxz     :     0.003629
      dyz     :     0.002558
      dx2y2   :     0.006229
      dxy     :     0.005002
 13 C s       :     2.989717  s :     2.989717
      pz      :     1.008063  p :     2.938961
      px      :     0.933729
      py      :     0.997169
      dz2     :     0.008170  d :     0.025588
      dxz     :     0.003629
      dyz     :     0.002558
      dx2y2   :     0.006229
      dxy     :     0.005002
 14 H s       :     0.927965  s :     0.927965
      pz      :     0.015593  p :     0.024303
      px      :     0.003917
      py      :     0.004793
 15 H s       :     0.927965  s :     0.927965
      pz      :     0.015593  p :     0.024303
      px      :     0.003917
      py      :     0.004793
 16 H s       :     0.927966  s :     0.927966
      pz      :     0.015593  p :     0.024303
      px      :     0.003917
      py      :     0.004793
 17 H s       :     0.927966  s :     0.927966
      pz      :     0.015593  p :     0.024303
      px      :     0.003917
      py      :     0.004793
 18 H s       :     0.920259  s :     0.920259
      pz      :     0.005785  p :     0.024475
      px      :     0.004084
      py      :     0.014606
 19 H s       :     0.920259  s :     0.920259
      pz      :     0.005785  p :     0.024475
      px      :     0.004084
      py      :     0.014606
 20 H s       :     0.920259  s :     0.920259
      pz      :     0.005785  p :     0.024475
      px      :     0.004084
      py      :     0.014606
 21 H s       :     0.920259  s :     0.920259
      pz      :     0.005785  p :     0.024475
      px      :     0.004084
      py      :     0.014606
 22 H s       :     0.925489  s :     0.925489
      pz      :     0.005827  p :     0.023962
      px      :     0.011369
      py      :     0.006765
 23 H s       :     0.925489  s :     0.925489
      pz      :     0.005827  p :     0.023962
      px      :     0.011369
      py      :     0.006765
 24 H s       :     0.925488  s :     0.925488
      pz      :     0.005827  p :     0.023962
      px      :     0.011369
      py      :     0.006765
 25 H s       :     0.925488  s :     0.925488
      pz      :     0.005827  p :     0.023962
      px      :     0.011369
      py      :     0.006765
 26 C s       :     2.996544  s :     2.996544
      pz      :     0.910646  p :     2.965886
      px      :     1.016684
      py      :     1.038557
      dz2     :     0.007628  d :     0.025541
      dxz     :     0.005611
      dyz     :     0.003090
      dx2y2   :     0.005126
      dxy     :     0.004085
 27 C s       :     2.996543  s :     2.996543
      pz      :     0.910646  p :     2.965886
      px      :     1.016683
      py      :     1.038557
      dz2     :     0.007628  d :     0.025541
      dxz     :     0.005611
      dyz     :     0.003090
      dx2y2   :     0.005126
      dxy     :     0.004085
 28 H s       :     0.914516  s :     0.914516
      pz      :     0.004722  p :     0.024566
      px      :     0.005090
      py      :     0.014754
 29 H s       :     0.914516  s :     0.914516
      pz      :     0.004722  p :     0.024566
      px      :     0.005090
      py      :     0.014754
 30 H s       :     0.917889  s :     0.917889
      pz      :     0.005301  p :     0.024168
      px      :     0.012037
      py      :     0.006829
 31 H s       :     0.917889  s :     0.917889
      pz      :     0.005301  p :     0.024168
      px      :     0.012037
      py      :     0.006829
 32 H s       :     0.917888  s :     0.917888
      pz      :     0.005301  p :     0.024168
      px      :     0.012037
      py      :     0.006829
 33 H s       :     0.917888  s :     0.917888
      pz      :     0.005301  p :     0.024168
      px      :     0.012037
      py      :     0.006829


                     *******************************
                     * LOEWDIN POPULATION ANALYSIS *
                     *******************************

----------------------
LOEWDIN ATOMIC CHARGES
----------------------
   0 C :    0.029549
   1 C :    0.029549
   2 N :    0.090154
   3 N :    0.090154
   4 C :    0.020679
   5 C :    0.020679
   6 C :    0.125389
   7 H :    0.055076
   8 H :    0.055076
   9 H :    0.056794
  10 C :   -0.043107
  11 C :   -0.043107
  12 C :   -0.043107
  13 C :   -0.043107
  14 H :    0.033872
  15 H :    0.033872
  16 H :    0.033872
  17 H :    0.033872
  18 H :    0.042695
  19 H :    0.042695
  20 H :    0.042695
  21 H :    0.042695
  22 H :    0.036047
  23 H :    0.036047
  24 H :    0.036047
  25 H :    0.036047
  26 C :   -0.047334
  27 C :   -0.047334
  28 H :    0.047479
  29 H :    0.047479
  30 H :    0.037146
  31 H :    0.037146
  32 H :    0.037146
  33 H :    0.037146

-------------------------------
LOEWDIN REDUCED ORBITAL CHARGES
[...]
     74      -0.031991   0.052423   0.052027  -0.001045  -0.000816  -0.000021
     75       0.070141   0.119944  -0.118773  -0.002600   0.002071   0.000054
     76       0.038230   0.065990  -0.065335  -0.001448   0.001180   0.000007
     77      -0.031926  -0.052479   0.051969   0.001045  -0.000816  -0.000021
     78       0.000001  -0.000000   0.000000  -0.000000   0.000000   0.000000
     79       0.048692  -0.043919   0.044172  -0.000015   0.000044   0.000548
     80      -0.000149   0.000112  -0.000122   0.000042   0.000081  -0.000529
     81       0.000000  -0.000000  -0.000000  -0.000000  -0.000000   0.000000
     82      -0.048794  -0.043871  -0.044220  -0.000015  -0.000044  -0.000548
     83      -0.000150  -0.000112  -0.000122  -0.000042   0.000081  -0.000529
     84       0.000001  -0.000001   0.000001   0.000000  -0.000000   0.000000
     85      -0.436899   0.397123  -0.399602  -0.001231   0.000774  -0.005151
     86      -0.126804   0.116449  -0.117213  -0.000685   0.000343  -0.000443
     87      -0.000000  -0.000000  -0.000000  -0.000000  -0.000000   0.000000
     88       0.437812   0.396688   0.400042  -0.001231  -0.000774   0.005151
     89      -0.127070  -0.116322  -0.117341   0.000685   0.000343  -0.000443
     90      -0.143919   0.128480  -0.129400  -0.000062   0.001022  -0.007303
     91      -0.071468   0.064457  -0.064831  -0.000000   0.000787  -0.005221
     92       0.066451  -0.059556   0.059963   0.000147  -0.000570   0.003386
     93      -0.144215  -0.128334  -0.129537   0.000062   0.001022  -0.007302
     94       0.071615   0.064384   0.064900  -0.000000  -0.000787   0.005221
     95       0.066589   0.059489   0.060027  -0.000147  -0.000570   0.003386
     96       0.144215   0.128338   0.129541  -0.000062  -0.001022   0.007302
     97       0.071614   0.064386   0.064902  -0.000000  -0.000787   0.005221
     98       0.066588   0.059491   0.060028  -0.000147  -0.000570   0.003386
     99       0.143911  -0.128475   0.129395   0.000062  -0.001022   0.007302
    100      -0.071463   0.064454  -0.064828  -0.000000   0.000787  -0.005221
    101       0.066448  -0.059554   0.059961   0.000147  -0.000570   0.003386


-----------
IR SPECTRUM
-----------

 Mode   freq       eps      Int      T**2         TX        TY        TZ
       cm**-1   L/(mol*cm) km/mol    a.u.
----------------------------------------------------------------------------
  6:     27.04   0.000000    0.00  0.000000  (-0.000000  0.000000  0.000000)
  7:     38.93   0.000005    0.02  0.000037  ( 0.006087  0.000000 -0.000000)
  8:    120.55   0.000012    0.06  0.000032  ( 0.005628 -0.000000  0.000000)
  9:    146.85   0.000028    0.14  0.000059  (-0.000000 -0.000000 -0.007672)
 10:    148.99   0.000000    0.00  0.000000  ( 0.000000 -0.000000  0.000000)
 11:    224.15   0.000006    0.03  0.000008  ( 0.002781 -0.000000 -0.000000)
 12:    230.23   0.000000    0.00  0.000000  ( 0.000000  0.000000  0.000000)
 13:    256.68   0.000011    0.06  0.000014  ( 0.000000 -0.003680  0.000000)
 14:    262.79   0.000018    0.09  0.000021  (-0.000000  0.000000  0.004593)
 15:    271.19   0.000009    0.04  0.000010  ( 0.000000  0.000000 -0.003200)
 16:    278.99   0.000002    0.01  0.000002  ( 0.000000 -0.001391 -0.000000)
 17:    330.40   0.000000    0.00  0.000000  (-0.000000 -0.000000  0.000000)
 18:    332.56   0.000003    0.02  0.000003  (-0.001807  0.000000 -0.000000)
 19:    344.33   0.000115    0.58  0.000104  (-0.010218  0.000000 -0.000000)
 20:    354.60   0.000026    0.13  0.000023  (-0.000000 -0.000000  0.004767)
 21:    366.00   0.000000    0.00  0.000000  ( 0.000000  0.000000 -0.000000)
 22:    371.69   0.000003    0.01  0.000002  (-0.000000 -0.001520 -0.000000)
 23:    401.29   0.000002    0.01  0.000002  ( 0.000000  0.001275  0.000000)
 24:    443.68   0.000010    0.05  0.000007  (-0.002711  0.000000  0.000000)
 25:    468.56   0.000000    0.00  0.000000  ( 0.000000  0.000000  0.000000)
 26:    470.01   0.000025    0.13  0.000017  ( 0.000000 -0.000000  0.004069)
 27:    520.36   0.000092    0.47  0.000055  ( 0.000000 -0.007445  0.000000)
 28:    578.29   0.000157    0.79  0.000085  ( 0.000000  0.000000  0.009200)
 29:    639.69   0.001340    6.77  0.000654  (-0.000000 -0.025564  0.000000)
 30:    678.64   0.013818   69.83  0.006354  (-0.079711  0.000000 -0.000000)
 31:    692.03   0.000000    0.00  0.000000  (-0.000000 -0.000000  0.000000)
 32:    774.71   0.008571   43.32  0.003453  ( 0.058759  0.000000  0.000000)
 33:    845.67   0.000018    0.09  0.000007  ( 0.000000  0.000000 -0.002592)
 34:    849.54   0.000136    0.69  0.000050  ( 0.000000  0.007067 -0.000000)
 35:    891.47   0.006174   31.20  0.002161  (-0.046491 -0.000000 -0.000000)
 36:    923.31   0.000000    0.00  0.000000  ( 0.000000  0.000000  0.000000)
 37:    948.47   0.001061    5.36  0.000349  (-0.018679  0.000000 -0.000000)
 38:    948.59   0.000000    0.00  0.000000  ( 0.000007 -0.000000 -0.000000)
 39:    958.99   0.001447    7.31  0.000471  (-0.000000  0.000000 -0.021696)
 40:    959.64   0.000021    0.11  0.000007  (-0.000000  0.002636  0.000001)
 41:    968.19   0.000037    0.19  0.000012  ( 0.003471 -0.000000  0.000000)
 42:    968.53   0.000000    0.00  0.000000  (-0.000001  0.000000 -0.000000)
 43:   1023.20   0.001387    7.01  0.000423  ( 0.000000  0.020565 -0.000000)
 44:   1040.25   0.000126    0.64  0.000038  ( 0.000000 -0.000000 -0.006146)
 45:   1049.84   0.000031    0.16  0.000009  ( 0.000000  0.000000  0.003028)
 46:   1050.68   0.000120    0.60  0.000036  ( 0.000000  0.005963 -0.000000)
 47:   1054.12   0.000000    0.00  0.000000  ( 0.000001 -0.000000  0.000000)
 48:   1054.78   0.000204    1.03  0.000060  (-0.007763  0.000000 -0.000000)
 49:   1126.26   0.004496   22.72  0.001246  ( 0.000000 -0.000000 -0.035297)
 50:   1151.21   0.018307   92.51  0.004962  ( 0.000000 -0.070445  0.000000)
 51:   1222.73   0.001348    6.81  0.000344  ( 0.000000 -0.000000 -0.018550)
 52:   1236.72   0.080769  408.17  0.020381  ( 0.000000  0.142760 -0.000000)
 53:   1266.02   0.000024    0.12  0.000006  (-0.000000  0.002437  0.000000)
 54:   1269.83   0.000662    3.34  0.000163  (-0.000000  0.000000 -0.012751)
 55:   1277.51   0.000000    0.00  0.000000  (-0.000000  0.000000 -0.000000)
 56:   1279.61   0.006456   32.63  0.001575  ( 0.039680  0.000000 -0.000000)
 57:   1304.22   0.000028    0.14  0.000007  (-0.000000 -0.002597 -0.000000)
 58:   1356.48   0.004180   21.12  0.000962  ( 0.000000 -0.000000  0.031009)
 59:   1396.21   0.000000    0.00  0.000000  (-0.000004  0.000000 -0.000000)
 60:   1396.42   0.010676   53.95  0.002386  (-0.048844  0.000000  0.000001)
 61:   1401.38   0.000167    0.84  0.000037  ( 0.000000  0.006097 -0.000007)
 62:   1401.72   0.013547   68.46  0.003016  ( 0.000001  0.000001  0.054917)
 63:   1413.62   0.002351   11.88  0.000519  (-0.000000  0.022780 -0.000001)
 64:   1413.83   0.000229    1.16  0.000051  (-0.000000  0.000004  0.007114)
 65:   1441.79   0.000000    0.00  0.000000  ( 0.000046 -0.000000 -0.000000)
 66:   1441.80   0.000070    0.35  0.000015  (-0.003894 -0.000000  0.000000)
 67:   1442.49   0.000160    0.81  0.000035  (-0.000000  0.005891  0.000000)
 68:   1448.22   0.000000    0.00  0.000000  (-0.000001 -0.000000  0.000000)
 69:   1448.30   0.000072    0.36  0.000016  (-0.003943 -0.000000  0.000000)
 70:   1449.69   0.000301    1.52  0.000065  (-0.000000  0.000000 -0.008044)
 71:   1453.97   0.001182    5.97  0.000254  (-0.000000  0.015928  0.000000)
 72:   1462.23   0.004198   21.21  0.000896  ( 0.000000  0.000000  0.029931)
 73:   1472.09   0.000000    0.00  0.000000  (-0.000004 -0.000000  0.000000)
 74:   1472.25   0.003551   17.94  0.000753  (-0.027434  0.000000 -0.000000)
 75:   1476.43   0.000055    0.28  0.000012  (-0.000000 -0.003402 -0.000001)
 76:   1478.32   0.001023    5.17  0.000216  ( 0.000000  0.000005 -0.014697)
 77:   1478.67   0.001933    9.77  0.000408  (-0.000000 -0.020197 -0.000003)
 78:   1489.32   0.000039    0.19  0.000008  ( 0.000000  0.000000  0.002842)
 79:   1636.67   0.037472  189.37  0.007145  (-0.000000  0.084527 -0.000000)
 80:   1654.09   0.002876   14.53  0.000543  ( 0.000000  0.000000  0.023292)
 81:   3071.22   0.001083    5.47  0.000110  (-0.000001  0.010491  0.000023)
 82:   3071.24   0.004644   23.47  0.000472  (-0.000000 -0.000011  0.021724)
 83:   3072.74   0.000000    0.00  0.000000  (-0.000159  0.000000 -0.000000)
 84:   3072.74   0.006631   33.51  0.000673  ( 0.025951  0.000000  0.000000)
 85:   3076.37   0.000510    2.58  0.000052  (-0.000000 -0.007192 -0.000000)
 86:   3076.43   0.000228    1.15  0.000023  (-0.000000  0.000001 -0.004808)
 87:   3174.72   0.003819   19.30  0.000375  ( 0.019376 -0.000000  0.000000)
 88:   3174.84   0.000000    0.00  0.000000  (-0.000004  0.000000 -0.000000)
 89:   3178.98   0.003350   16.93  0.000329  ( 0.018134  0.000001  0.000001)
 90:   3178.99   0.000000    0.00  0.000000  (-0.000194  0.000000  0.000003)
 91:   3179.97   0.000557    2.82  0.000055  ( 0.000002 -0.007394 -0.000130)
 92:   3179.99   0.007951   40.18  0.000780  ( 0.000001  0.000034 -0.027933)
 93:   3184.62   0.001795    9.07  0.000176  ( 0.013261 -0.000000  0.000001)
 94:   3184.63   0.000000    0.00  0.000000  ( 0.000076 -0.000000 -0.000000)
 95:   3185.18   0.000035    0.18  0.000003  ( 0.000000  0.001848  0.000015)
 96:   3185.22   0.002064   10.43  0.000202  ( 0.000001  0.000002 -0.014221)
 97:   3189.87   0.009650   48.77  0.000944  (-0.000000 -0.030725 -0.000005)
 98:   3189.98   0.000778    3.93  0.000076  (-0.000000 -0.000017  0.008726)
 99:   3306.74   0.004755   24.03  0.000449  (-0.000000 -0.021184 -0.000000)
100:   3323.77   0.007101   35.89  0.000667  ( 0.000000  0.000000 -0.025821)
101:   3336.17   0.007829   39.56  0.000732  (-0.000000  0.000000  0.027061)

* The epsilon (eps) is given for a Dirac delta lineshape.
** The dipole moment derivative (T) already includes vibrational overlap.

The first frequency considered to be a vibration is 6
The total number of vibrations considered is 96


--------------------------
THERMOCHEMISTRY AT 298.15K
--------------------------

Temperature         ... 298.15 K
Pressure            ... 1.00 atm
Total Mass          ... 181.30 AMU

Throughout the following assumptions are being made:
  (1) The electronic state is orbitally nondegenerate
  (2) There are no thermally accessible electronically excited states
  (3) Hindered rotations indicated by low frequency modes are not
      treated as such but are treated as vibrations and this may
      cause some error
  (4) All equations used are the standard statistical mechanics
      equations for an ideal gas
  (5) All vibrations are strictly harmonic

freq.      27.04  E(vib)   ...       0.55 
freq.      38.93  E(vib)   ...       0.54 
freq.     120.55  E(vib)   ...       0.44 
freq.     146.85  E(vib)   ...       0.41 
freq.     148.99  E(vib)   ...       0.40 
freq.     224.15  E(vib)   ...       0.33 
freq.     230.23  E(vib)   ...       0.32 
freq.     256.68  E(vib)   ...       0.30 
freq.     262.79  E(vib)   ...       0.29 
freq.     271.19  E(vib)   ...       0.29 
freq.     278.99  E(vib)   ...       0.28 
freq.     330.40  E(vib)   ...       0.24 
freq.     332.56  E(vib)   ...       0.24 
freq.     344.33  E(vib)   ...       0.23 
freq.     354.60  E(vib)   ...       0.22 
freq.     366.00  E(vib)   ...       0.22 
freq.     371.69  E(vib)   ...       0.21 
freq.     401.29  E(vib)   ...       0.19 
freq.     443.68  E(vib)   ...       0.17 
freq.     468.56  E(vib)   ...       0.16 
freq.     470.01  E(vib)   ...       0.16 
freq.     520.36  E(vib)   ...       0.13 
freq.     578.29  E(vib)   ...       0.11 
freq.     639.69  E(vib)   ...       0.09 
freq.     678.64  E(vib)   ...       0.08 
freq.     692.03  E(vib)   ...       0.07 
freq.     774.71  E(vib)   ...       0.05 
freq.     845.67  E(vib)   ...       0.04 
freq.     849.54  E(vib)   ...       0.04 
freq.     891.47  E(vib)   ...       0.03 
freq.     923.31  E(vib)   ...       0.03 
freq.     948.47  E(vib)   ...       0.03 
freq.     948.59  E(vib)   ...       0.03 
freq.     958.99  E(vib)   ...       0.03 
freq.     959.64  E(vib)   ...       0.03 
freq.     968.19  E(vib)   ...       0.03 
freq.     968.53  E(vib)   ...       0.03 
freq.    1023.20  E(vib)   ...       0.02 
freq.    1040.25  E(vib)   ...       0.02 
freq.    1049.84  E(vib)   ...       0.02 
freq.    1050.68  E(vib)   ...       0.02 
freq.    1054.12  E(vib)   ...       0.02 
freq.    1054.78  E(vib)   ...       0.02 
freq.    1126.26  E(vib)   ...       0.01 
freq.    1151.21  E(vib)   ...       0.01 
freq.    1222.73  E(vib)   ...       0.01 
freq.    1236.72  E(vib)   ...       0.01 
freq.    1266.02  E(vib)   ...       0.01 
freq.    1269.83  E(vib)   ...       0.01 
freq.    1277.51  E(vib)   ...       0.01 
freq.    1279.61  E(vib)   ...       0.01 
freq.    1304.22  E(vib)   ...       0.01 
freq.    1356.48  E(vib)   ...       0.01 
freq.    1396.21  E(vib)   ...       0.00 
freq.    1396.42  E(vib)   ...       0.00 
freq.    1401.38  E(vib)   ...       0.00 
freq.    1401.72  E(vib)   ...       0.00 
freq.    1413.62  E(vib)   ...       0.00 
freq.    1413.83  E(vib)   ...       0.00 
freq.    1441.79  E(vib)   ...       0.00 
freq.    1441.80  E(vib)   ...       0.00 
freq.    1442.49  E(vib)   ...       0.00 
freq.    1448.22  E(vib)   ...       0.00 
freq.    1448.30  E(vib)   ...       0.00 
freq.    1449.69  E(vib)   ...       0.00 
freq.    1453.97  E(vib)   ...       0.00 
freq.    1462.23  E(vib)   ...       0.00 
freq.    1472.09  E(vib)   ...       0.00 
freq.    1472.25  E(vib)   ...       0.00 
freq.    1476.43  E(vib)   ...       0.00 
freq.    1478.32  E(vib)   ...       0.00 
freq.    1478.67  E(vib)   ...       0.00 
freq.    1489.32  E(vib)   ...       0.00 
freq.    1636.67  E(vib)   ...       0.00 
freq.    1654.09  E(vib)   ...       0.00 
freq.    3071.22  E(vib)   ...       0.00 
freq.    3071.24  E(vib)   ...       0.00 
freq.    3072.74  E(vib)   ...       0.00 
freq.    3072.74  E(vib)   ...       0.00 
freq.    3076.37  E(vib)   ...       0.00 
freq.    3076.43  E(vib)   ...       0.00 
freq.    3174.72  E(vib)   ...       0.00 
freq.    3174.84  E(vib)   ...       0.00 
freq.    3178.98  E(vib)   ...       0.00 
freq.    3178.99  E(vib)   ...       0.00 
freq.    3179.97  E(vib)   ...       0.00 
freq.    3179.99  E(vib)   ...       0.00 
freq.    3184.62  E(vib)   ...       0.00 
freq.    3184.63  E(vib)   ...       0.00 
freq.    3185.18  E(vib)   ...       0.00 
freq.    3185.22  E(vib)   ...       0.00 
freq.    3189.87  E(vib)   ...       0.00 
freq.    3189.98  E(vib)   ...       0.00 
freq.    3306.74  E(vib)   ...       0.00 
freq.    3323.77  E(vib)   ...       0.00 
freq.    3336.17  E(vib)   ...       0.00 

------------
INNER ENERGY
------------

The inner energy is: U= E(el) + E(ZPE) + E(vib) + E(rot) + E(trans)
    E(el)   - is the total energy from the electronic structure calculation
              = E(kin-el) + E(nuc-el) + E(el-el) + E(nuc-nuc)
    E(ZPE)  - the the zero temperature vibrational energy from the frequency calculation
    E(vib)  - the the finite temperature correction to E(ZPE) due to population
              of excited vibrational states
    E(rot)  - is the rotational thermal energy
    E(trans)- is the translational thermal energy

Summary of contributions to the inner energy U:
Electronic energy                ...   -540.69432345 Eh
Zero point energy                ...      0.31111347 Eh     195.23 kcal/mol
Thermal vibrational correction   ...      0.01166384 Eh       7.32 kcal/mol
Thermal rotational correction    ...      0.00141627 Eh       0.89 kcal/mol
Thermal translational correction ...      0.00141627 Eh       0.89 kcal/mol
-----------------------------------------------------------------------
Total thermal energy                   -540.36871360 Eh


Summary of corrections to the electronic energy:
(perhaps to be used in another calculation)
Total thermal correction                  0.01449638 Eh       9.10 kcal/mol
Non-thermal (ZPE) correction              0.31111347 Eh     195.23 kcal/mol
-----------------------------------------------------------------------
Total correction                          0.32560985 Eh     204.32 kcal/mol


--------
ENTHALPY
--------

The enthalpy is H = U + kB*T
                kB is Boltzmann's constant
Total free energy                 ...   -540.36871360 Eh 
Thermal Enthalpy correction       ...      0.00094421 Eh       0.59 kcal/mol
-----------------------------------------------------------------------
Total Enthalpy                    ...   -540.36776939 Eh


Note: Rotational entropy computed according to Herzberg 
Infrared and Raman Spectra, Chapter V,1, Van Nostrand Reinhold, 1945 
Point Group:  C2v, Symmetry Number:   2  
Rotational constants in cm-1:     0.055426     0.014781     0.013815 

Vibrational entropy computed according to the QRRHO of S. Grimme
Chem.Eur.J. 2012 18 9955


-------
ENTROPY
-------

The entropy contributions are T*S = T*(S(el)+S(vib)+S(rot)+S(trans))
     S(el)   - electronic entropy
     S(vib)  - vibrational entropy
     S(rot)  - rotational entropy
     S(trans)- translational entropy
The entropies will be listed as multiplied by the temperature to get
units of energy

Electronic entropy                ...      0.00000000 Eh      0.00 kcal/mol
Vibrational entropy               ...      0.01977351 Eh     12.41 kcal/mol
Rotational entropy                ...      0.01423303 Eh      8.93 kcal/mol
Translational entropy             ...      0.01971392 Eh     12.37 kcal/mol
-----------------------------------------------------------------------
Final entropy term                ...      0.05372046 Eh     33.71 kcal/mol

In case the symmetry of your molecule has not been determined correctly
or in case you have a reason to use a different symmetry number we print 
out the resulting rotational entropy values for sn=1,12 :
 --------------------------------------------------------
|  sn= 1 | S(rot)=       0.01488748 Eh      9.34 kcal/mol|
|  sn= 2 | S(rot)=       0.01423303 Eh      8.93 kcal/mol|
|  sn= 3 | S(rot)=       0.01385019 Eh      8.69 kcal/mol|
|  sn= 4 | S(rot)=       0.01357857 Eh      8.52 kcal/mol|
|  sn= 5 | S(rot)=       0.01336788 Eh      8.39 kcal/mol|
|  sn= 6 | S(rot)=       0.01319574 Eh      8.28 kcal/mol|
|  sn= 7 | S(rot)=       0.01305019 Eh      8.19 kcal/mol|
|  sn= 8 | S(rot)=       0.01292411 Eh      8.11 kcal/mol|
|  sn= 9 | S(rot)=       0.01281290 Eh      8.04 kcal/mol|
|  sn=10 | S(rot)=       0.01271343 Eh      7.98 kcal/mol|
|  sn=11 | S(rot)=       0.01262344 Eh      7.92 kcal/mol|
|  sn=12 | S(rot)=       0.01254128 Eh      7.87 kcal/mol|
 --------------------------------------------------------


-------------------
GIBBS FREE ENERGY
-------------------

The Gibbs free energy is G = H - T*S

Total enthalpy                    ...   -540.36776939 Eh 
Total entropy correction          ...     -0.05372046 Eh    -33.71 kcal/mol
-----------------------------------------------------------------------
Final Gibbs free energy         ...   -540.42148985 Eh

For completeness - the Gibbs free energy minus the electronic energy
G-E(el)                           ...      0.27283360 Eh    171.21 kcal/mol


Timings for individual modules:

Sum of individual times         ...     1365.303 sec (=  22.755 min)
GTO integral calculation        ...        3.247 sec (=   0.054 min)   0.2 %
SCF iterations                  ...      516.329 sec (=   8.605 min)  37.8 %
SCF Gradient evaluation         ...      133.398 sec (=   2.223 min)   9.8 %
Geometry relaxation             ...        0.405 sec (=   0.007 min)   0.0 %
Analytical frequency calculation...      711.924 sec (=  11.865 min)  52.1 %
                             ****ORCA TERMINATED NORMALLY****
TOTAL RUN TIME: 0 days 0 hours 22 minutes 47 seconds 432 msec
