
                                 *****************
                                 * O   R   C   A *
                                 *****************

                                            #,                                       
                                            ###                                      
                                            ####                                     
                                            #####                                    
                                            ######                                   
                                           ########,                                 
                                     ,,################,,,,,                         
                               ,,#################################,,                 
                          ,,##########################################,,             
                       ,#########################################, ''#####,          
                    ,#############################################,,   '####,        
                  ,##################################################,,,,####,       
                ,###########''''           ''''###############################       
              ,#####''   ,,,,##########,,,,          '''####'''          '####       
            ,##' ,,,,###########################,,,                        '##       
           ' ,,###''''                  '''############,,,                           
         ,,##''                                '''############,,,,        ,,,,,,###''
      ,#''                                            '''#######################'''  
     '                                                          ''''####''''         
             ,#######,   #######,   ,#######,      ##                                
            ,#'     '#,  ##    ##  ,#'     '#,    #''#        ######   ,####,        
            ##       ##  ##   ,#'  ##            #'  '#       #        #'  '#        
            ##       ##  #######   ##           ,######,      #####,   #    #        
            '#,     ,#'  ##    ##  '#,     ,#' ,#      #,         ##   #,  ,#        
             '#######'   ##     ##  '#######'  #'      '#     #####' # '####'        



                  #######################################################
                  #                        -***-                        #
                  #          Department of theory and spectroscopy      #
                  #    Directorship and core code : Frank Neese         #
                  #        Max Planck Institute fuer Kohlenforschung    #
                  #                Kaiser Wilhelm Platz 1               #
                  #                 D-45470 Muelheim/Ruhr               #
                  #                      Germany                        #
                  #                                                     #
                  #                  All rights reserved                #
                  #                        -***-                        #
                  #######################################################


                         Program Version 5.0.4 -  RELEASE  -


 With contributions from (in alphabetic order):
   Daniel Aravena         : Magnetic Suceptibility
   Michael Atanasov       : Ab Initio Ligand Field Theory (pilot matlab implementation)
   Alexander A. Auer      : GIAO ZORA, VPT2 properties, NMR spectrum
   Ute Becker             : Parallelization
   Giovanni Bistoni       : ED, misc. LED, open-shell LED, HFLD
   Martin Brehm           : Molecular dynamics
   Dmytro Bykov           : SCF Hessian
   Vijay G. Chilkuri      : MRCI spin determinant printing, contributions to CSF-ICE
   Dipayan Datta          : RHF DLPNO-CCSD density
   Achintya Kumar Dutta   : EOM-CC, STEOM-CC
   Dmitry Ganyushin       : Spin-Orbit,Spin-Spin,Magnetic field MRCI
   Miquel Garcia          : C-PCM and meta-GGA Hessian, CC/C-PCM, Gaussian charge scheme
   Yang Guo               : DLPNO-NEVPT2, F12-NEVPT2, CIM, IAO-localization
   Andreas Hansen         : Spin unrestricted coupled pair/coupled cluster methods
   Benjamin Helmich-Paris : MC-RPA, TRAH-SCF, COSX integrals
   Lee Huntington         : MR-EOM, pCC
   Robert Izsak           : Overlap fitted RIJCOSX, COSX-SCS-MP3, EOM
   Marcus Kettner         : VPT2
   Christian Kollmar      : KDIIS, OOCD, Brueckner-CCSD(T), CCSD density, CASPT2, CASPT2-K
   Simone Kossmann        : Meta GGA functionals, TD-DFT gradient, OOMP2, MP2 Hessian
   Martin Krupicka        : Initial AUTO-CI
   Lucas Lang             : DCDCAS
   Marvin Lechner         : AUTO-CI (C++ implementation), FIC-MRCC
   Dagmar Lenk            : GEPOL surface, SMD
   Dimitrios Liakos       : Extrapolation schemes; Compound Job, initial MDCI parallelization
   Dimitrios Manganas     : Further ROCIS development; embedding schemes
   Dimitrios Pantazis     : SARC Basis sets
   Anastasios Papadopoulos: AUTO-CI, single reference methods and gradients
   Taras Petrenko         : DFT Hessian,TD-DFT gradient, ASA, ECA, R-Raman, ABS, FL, XAS/XES, NRVS
   Peter Pinski           : DLPNO-MP2, DLPNO-MP2 Gradient
   Christoph Reimann      : Effective Core Potentials
   Marius Retegan         : Local ZFS, SOC
   Christoph Riplinger    : Optimizer, TS searches, QM/MM, DLPNO-CCSD(T), (RO)-DLPNO pert. Triples
   Tobias Risthaus        : Range-separated hybrids, TD-DFT gradient, RPA, STAB
   Michael Roemelt        : Original ROCIS implementation
   Masaaki Saitow         : Open-shell DLPNO-CCSD energy and density
   Barbara Sandhoefer     : DKH picture change effects
   Avijit Sen             : IP-ROCIS
   Kantharuban Sivalingam : CASSCF convergence, NEVPT2, FIC-MRCI
   Bernardo de Souza      : ESD, SOC TD-DFT
   Georgi Stoychev        : AutoAux, RI-MP2 NMR, DLPNO-MP2 response
   Willem Van den Heuvel  : Paramagnetic NMR
   Boris Wezisla          : Elementary symmetry handling
   Frank Wennmohs         : Technical directorship


 We gratefully acknowledge several colleagues who have allowed us to
 interface, adapt or use parts of their codes:
   Stefan Grimme, W. Hujo, H. Kruse, P. Pracht,  : VdW corrections, initial TS optimization,
                  C. Bannwarth, S. Ehlert          DFT functionals, gCP, sTDA/sTD-DF
   Ed Valeev, F. Pavosevic, A. Kumar             : LibInt (2-el integral package), F12 methods
   Garnet Chan, S. Sharma, J. Yang, R. Olivares  : DMRG
   Ulf Ekstrom                                   : XCFun DFT Library
   Mihaly Kallay                                 : mrcc  (arbitrary order and MRCC methods)
   Jiri Pittner, Ondrej Demel                    : Mk-CCSD
   Frank Weinhold                                : gennbo (NPA and NBO analysis)
   Christopher J. Cramer and Donald G. Truhlar   : smd solvation model
   Lars Goerigk                                  : TD-DFT with DH, B97 family of functionals
   V. Asgeirsson, H. Jonsson                     : NEB implementation
   FAccTs GmbH                                   : IRC, NEB, NEB-TS, DLPNO-Multilevel, CI-OPT
                                                   MM, QMMM, 2- and 3-layer-ONIOM, Crystal-QMMM,
                                                   LR-CPCM, SF, NACMEs, symmetry and pop. for TD-DFT,
                                                   nearIR, NL-DFT gradient (VV10), updates on ESD,
                                                   ML-optimized integration grids
   S Lehtola, MJT Oliveira, MAL Marques          : LibXC Library
   Liviu Ungur et al                             : ANISO software


 Your calculation uses the libint2 library for the computation of 2-el integrals
 For citations please refer to: http://libint.valeyev.net

 Your ORCA version has been built with support for libXC version: 5.1.0
 For citations please refer to: https://tddft.org/programs/libxc/

 This ORCA versions uses:
   CBLAS   interface :  Fast vector & matrix operations
   LAPACKE interface :  Fast linear algebra routines
   SCALAPACK package :  Parallel linear algebra routines
   Shared memory     :  Shared parallel matrices
   BLAS/LAPACK       :  OpenBLAS 0.3.15  USE64BITINT DYNAMIC_ARCH NO_AFFINITY SkylakeX SINGLE_THREADED
        Core in use  :  SkylakeX
   Copyright (c) 2011-2014, The OpenBLAS Project




***************************************
The coordinates will be read from file: 5+.xyz
***************************************


Your calculation utilizes the atom-pairwise dispersion correction
based on tight binding partial charges (D4)
Cite in your paper:
E.Caldeweyher, C.Bannwarth, S.Grimme, J.Chem.Phys., (2017), 147, 034112.
E.Caldeweyher, S.Ehlert, A.Hansen, H.Neugebauer, S.Grimme, J.Chem.Phys., (2018), in progress.
   

XCFun DFT library Copyright 2009-2010 Ulf Ekstrom and contributors.
See http://admol.org/xcfun for more information.
This is free software; see the source code for copying conditions.
There is ABSOLUTELY NO WARRANTY; not even for MERCHANTABILITY or FITNESS FOR A PARTICULAR PURPOSE.
For details see the documentation.
Scientific users of this library should cite U. Ekstrom, L. Visscher, R. Bast, A. J. Thorvaldsen and K. Ruud;
J.Chem.Theor.Comp. 2010, DOI: 10.1021/ct100117s
XCFun Version 0.99 

================================================================================

----- Orbital basis set information -----
Your calculation utilizes the basis: def2-SVP
   F. Weigend and R. Ahlrichs, Phys. Chem. Chem. Phys. 7, 3297 (2005).

----- AuxJ basis set information -----
Your calculation utilizes the auxiliary basis: def2/J
   F. Weigend, Phys. Chem. Chem. Phys. 8, 1057 (2006).

================================================================================
                                        WARNINGS
                       Please study these warnings very carefully!
================================================================================


INFO   : the flag for use of the SHARK integral package has been found!

================================================================================
                                       INPUT FILE
================================================================================
NAME = 5+.inp
|  1> # ORCA 5.0.4 - 5+.inp # write input file
|  2> # Basic Mode
|  3> #
|  4> ! Freq wB97X Def2-SVP D4 SlowConv TightSCF DEFGRID2 Def2/J RIJCOSX 
|  5> 
|  6> 
|  7> 
|  8> %maxcore 4500
|  9> 
| 10> %geom
| 11> Maxiter 150
| 12> END
| 13> 
| 14> * xyzfile 1 1 5+.xyz
| 15> 
| 16>                          ****END OF INPUT****
================================================================================

                       ****************************
                       * Single Point Calculation *
                       ****************************

---------------------------------
CARTESIAN COORDINATES (ANGSTROEM)
---------------------------------
  C     -0.000000    2.514526    0.209467
  C      0.000000   -2.514526    0.209467
  N      0.000001    1.087594   -0.242693
  N      0.000002   -1.087595   -0.242694
  C      0.000003    0.679517   -1.560063
  C      0.000004   -0.679517   -1.560064
  C      0.000001   -0.000000    0.526977
  H      0.000003    1.379780   -2.392700
  H      0.000005   -1.379780   -2.392701
  H     -0.000000   -0.000000    1.613685
  C      1.263439    3.178849   -0.339501
  C      1.263437   -3.178850   -0.339505
  C     -1.263441   -3.178846   -0.339500
  C     -1.263439    3.178847   -0.339504
  H      1.283147    3.169933   -1.439640
  H      1.283142   -3.169936   -1.439644
  H     -1.283149   -3.169933   -1.439639
  H     -1.283145    3.169933   -1.439643
  H      1.290552    4.227511   -0.009167
  H      1.290551   -4.227511   -0.009170
  H     -1.290559   -4.227507   -0.009163
  H     -1.290555    4.227508   -0.009168
  H      2.164862    2.671555    0.036530
  H      2.164862   -2.671556    0.036522
  H     -2.164862   -2.671547    0.036529
  H     -2.164862    2.671551    0.036525
  C     -0.000003    2.561086    1.734190
  C      0.000003   -2.561086    1.734189
  H     -0.000004    3.615426    2.044234
  H      0.000003   -3.615426    2.044234
  H     -0.898324    2.086795    2.158388
  H     -0.898318   -2.086796    2.158390
  H      0.898325   -2.086797    2.158388
  H      0.898319    2.086797    2.158391

----------------------------
CARTESIAN COORDINATES (A.U.)
----------------------------
  NO LB      ZA    FRAG     MASS         X           Y           Z
   0 C     6.0000    0    12.011   -0.000000    4.751765    0.395835
   1 C     6.0000    0    12.011    0.000000   -4.751765    0.395835
   2 N     7.0000    0    14.007    0.000002    2.055255   -0.458623
   3 N     7.0000    0    14.007    0.000004   -2.055257   -0.458625
   4 C     6.0000    0    12.011    0.000006    1.284101   -2.948092
   5 C     6.0000    0    12.011    0.000008   -1.284101   -2.948094
   6 C     6.0000    0    12.011    0.000002   -0.000000    0.995842
   7 H     1.0000    0     1.008    0.000006    2.607406   -4.521548
   8 H     1.0000    0     1.008    0.000009   -2.607406   -4.521550
   9 H     1.0000    0     1.008   -0.000000   -0.000000    3.049423
  10 C     6.0000    0    12.011    2.387554    6.007154   -0.641564
  11 C     6.0000    0    12.011    2.387550   -6.007156   -0.641571
  12 C     6.0000    0    12.011   -2.387557   -6.007148   -0.641562
  13 C     6.0000    0    12.011   -2.387554    6.007150   -0.641570
  14 H     1.0000    0     1.008    2.424796    5.990305   -2.720525
  15 H     1.0000    0     1.008    2.424787   -5.990311   -2.720533
  16 H     1.0000    0     1.008   -2.424800   -5.990305   -2.720523
  17 H     1.0000    0     1.008   -2.424793    5.990305   -2.720531
  18 H     1.0000    0     1.008    2.438790    7.988838   -0.017323
  19 H     1.0000    0     1.008    2.438788   -7.988838   -0.017329
  20 H     1.0000    0     1.008   -2.438803   -7.988830   -0.017316
  21 H     1.0000    0     1.008   -2.438796    7.988832   -0.017325
  22 H     1.0000    0     1.008    4.090996    5.048507    0.069032
  23 H     1.0000    0     1.008    4.090996   -5.048509    0.069017
  24 H     1.0000    0     1.008   -4.090996   -5.048492    0.069030
  25 H     1.0000    0     1.008   -4.090996    5.048500    0.069022
  26 C     6.0000    0    12.011   -0.000006    4.839751    3.277144
  27 C     6.0000    0    12.011    0.000006   -4.839751    3.277142
  28 H     1.0000    0     1.008   -0.000008    6.832165    3.863042
  29 H     1.0000    0     1.008    0.000006   -6.832165    3.863042
  30 H     1.0000    0     1.008   -1.697586    3.943471    4.078762
  31 H     1.0000    0     1.008   -1.697575   -3.943473    4.078766
  32 H     1.0000    0     1.008    1.697588   -3.943475    4.078762
  33 H     1.0000    0     1.008    1.697577    3.943475    4.078768

--------------------------------
INTERNAL COORDINATES (ANGSTROEM)
--------------------------------
 C      0   0   0     0.000000000000     0.00000000     0.00000000
 C      1   0   0     5.029052000000     0.00000000     0.00000000
 N      1   2   0     1.496857908495    17.58214052     0.00000000
 N      2   1   3     1.496857257285    17.58218857     0.00000000
 C      3   1   2     1.379126736320   124.79336657   179.99995378
 C      5   3   1     1.359034000001   107.21126820   179.99997047
 C      3   1   2     1.332386061821   127.13152848     0.00000000
 H      5   3   1     1.087958015246   122.72432250     0.00000000
 H      6   5   3     1.087958015246   130.06449361   179.99995945
 H      7   3   1     1.086708000000   125.28633100     0.00000000
 C      1   2   4     1.529368830621   115.74567283   293.48534293
 C      2   1   3     1.529369048572   115.74571049    66.51459805
 C      2   1   3     1.529368820779   115.74554823   293.48489148
 C      1   2   4     1.529369038723   115.74558589    66.51504949
 H     11   1   2     1.100351634543   111.72535737    78.35533804
 H     12   2   1     1.100351564611   111.72542486   281.64459276
 H     13   2   1     1.100351610238   111.72539317    78.35557115
 H     14   1   2     1.100351582519   111.72543304   281.64453437
 H     11   1   2     1.099794370130   109.07064000   197.57003138
 H     12   2   1     1.099793741636   109.07063852   162.42990236
 H     13   2   1     1.099794440982   109.07068371   197.57031697
 H     14   1   2     1.099794091307   109.07060411   162.42980510
 H     11   1   2     1.100595266356   110.71755374   316.84443163
 H     12   2   1     1.100595537784   110.71757837    43.15551218
 H     13   2   1     1.100595249619   110.71751601   316.84470922
 H     14   1   2     1.100595504891   110.71753357    43.15551278
 C      1   2   4     1.525433728596    91.74908017   180.00014070
 C      2   1   3     1.525432729062    91.74908131   179.99976055
 H     27   1   2     1.098981399996   108.13581956   180.00002140
 H     28   2   1     1.098981682115   108.13587072   179.99996654
 H     27   1   2     1.100852630885   111.83948728   298.46400814
 H     28   2   1     1.100853356057   111.83944333    61.53608615
 H     28   2   1     1.100852970567   111.83953911   298.46388478
 H     27   1   2     1.100853741242   111.83943756    61.53616254

---------------------------
INTERNAL COORDINATES (A.U.)
---------------------------
 C      0   0   0     0.000000000000     0.00000000     0.00000000
 C      1   0   0     9.503530993249     0.00000000     0.00000000
 N      1   2   0     2.828651508450    17.58214052     0.00000000
 N      2   1   3     2.828650277841    17.58218857     0.00000000
 C      3   1   2     2.606171835614   124.79336657   179.99995378
 C      5   3   1     2.568202066689   107.21126820   179.99997047
 C      3   1   2     2.517844761496   127.13152848     0.00000000
 H      5   3   1     2.055942694019   122.72432250     0.00000000
 H      6   5   3     2.055942694020   130.06449361   179.99995945
 H      7   3   1     2.053580507542   125.28633100     0.00000000
 C      1   2   4     2.890088247628   115.74567283   293.48534293
 C      2   1   3     2.890088659496   115.74571049    66.51459805
 C      2   1   3     2.890088229030   115.74554823   293.48489148
 C      1   2   4     2.890088640884   115.74558589    66.51504949
 H     11   1   2     2.079363240298   111.72535737    78.35533804
 H     12   2   1     2.079363108147   111.72542486   281.64459276
 H     13   2   1     2.079363194370   111.72539317    78.35557115
 H     14   1   2     2.079363141989   111.72543304   281.64453437
 H     11   1   2     2.078310163174   109.07064000   197.57003138
 H     12   2   1     2.078308975493   109.07063852   162.42990236
 H     13   2   1     2.078310297064   109.07068371   197.57031697
 H     14   1   2     2.078309636274   109.07060411   162.42980510
 H     11   1   2     2.079823637704   110.71755374   316.84443163
 H     12   2   1     2.079824150627   110.71757837    43.15551218
 H     13   2   1     2.079823606074   110.71751601   316.84470922
 H     14   1   2     2.079824088469   110.71753357    43.15551278
 C      1   2   4     2.882651982493    91.74908017   180.00014070
 C      2   1   3     2.882650093647    91.74908131   179.99976055
 H     27   1   2     2.076773872266   108.13581956   180.00002140
 H     28   2   1     2.076774405394   108.13587072   179.99996654
 H     27   1   2     2.080309986179   111.83948728   298.46400814
 H     28   2   1     2.080311356556   111.83944333    61.53608615
 H     28   2   1     2.080310628085   111.83953911   298.46388478
 H     27   1   2     2.080312084450   111.83943756    61.53616254

---------------------
BASIS SET INFORMATION
---------------------
There are 3 groups of distinct atoms

 Group   1 Type C   : 7s4p1d contracted to 3s2p1d pattern {511/31/1}
 Group   2 Type N   : 7s4p1d contracted to 3s2p1d pattern {511/31/1}
 Group   3 Type H   : 4s1p contracted to 2s1p pattern {31/1}

Atom   0C    basis set group =>   1
Atom   1C    basis set group =>   1
Atom   2N    basis set group =>   2
Atom   3N    basis set group =>   2
Atom   4C    basis set group =>   1
Atom   5C    basis set group =>   1
Atom   6C    basis set group =>   1
Atom   7H    basis set group =>   3
Atom   8H    basis set group =>   3
Atom   9H    basis set group =>   3
Atom  10C    basis set group =>   1
Atom  11C    basis set group =>   1
Atom  12C    basis set group =>   1
Atom  13C    basis set group =>   1
Atom  14H    basis set group =>   3
Atom  15H    basis set group =>   3
Atom  16H    basis set group =>   3
Atom  17H    basis set group =>   3
Atom  18H    basis set group =>   3
Atom  19H    basis set group =>   3
Atom  20H    basis set group =>   3
Atom  21H    basis set group =>   3
Atom  22H    basis set group =>   3
Atom  23H    basis set group =>   3
Atom  24H    basis set group =>   3
Atom  25H    basis set group =>   3
Atom  26C    basis set group =>   1
Atom  27C    basis set group =>   1
Atom  28H    basis set group =>   3
Atom  29H    basis set group =>   3
Atom  30H    basis set group =>   3
Atom  31H    basis set group =>   3
Atom  32H    basis set group =>   3
Atom  33H    basis set group =>   3
---------------------------------
AUXILIARY/J BASIS SET INFORMATION
---------------------------------
There are 3 groups of distinct atoms

 Group   1 Type C   : 12s5p4d2f1g contracted to 6s4p3d1f1g pattern {711111/2111/211/2/1}
 Group   2 Type N   : 12s5p4d2f1g contracted to 6s4p3d1f1g pattern {711111/2111/211/2/1}
 Group   3 Type H   : 5s2p1d contracted to 3s1p1d pattern {311/2/1}

Atom   0C    basis set group =>   1
Atom   1C    basis set group =>   1
Atom   2N    basis set group =>   2
Atom   3N    basis set group =>   2
Atom   4C    basis set group =>   1
Atom   5C    basis set group =>   1
Atom   6C    basis set group =>   1
Atom   7H    basis set group =>   3
Atom   8H    basis set group =>   3
Atom   9H    basis set group =>   3
Atom  10C    basis set group =>   1
Atom  11C    basis set group =>   1
Atom  12C    basis set group =>   1
Atom  13C    basis set group =>   1
Atom  14H    basis set group =>   3
Atom  15H    basis set group =>   3
Atom  16H    basis set group =>   3
Atom  17H    basis set group =>   3
Atom  18H    basis set group =>   3
Atom  19H    basis set group =>   3
Atom  20H    basis set group =>   3
Atom  21H    basis set group =>   3
Atom  22H    basis set group =>   3
Atom  23H    basis set group =>   3
Atom  24H    basis set group =>   3
Atom  25H    basis set group =>   3
Atom  26C    basis set group =>   1
Atom  27C    basis set group =>   1
Atom  28H    basis set group =>   3
Atom  29H    basis set group =>   3
Atom  30H    basis set group =>   3
Atom  31H    basis set group =>   3
Atom  32H    basis set group =>   3
Atom  33H    basis set group =>   3
------------------------------------------------------------------------------
                           ORCA GTO INTEGRAL CALCULATION
                           -- RI-GTO INTEGRALS CHOSEN --
------------------------------------------------------------------------------
------------------------------------------------------------------------------
                   ___                                                        
                  /   \      - P O W E R E D   B Y -                         
                 /     \                                                     
                 |  |  |   _    _      __       _____    __    __             
                 |  |  |  | |  | |    /  \     |  _  \  |  |  /  |          
                  \  \/   | |  | |   /    \    | | | |  |  | /  /          
                 / \  \   | |__| |  /  /\  \   | |_| |  |  |/  /          
                |  |  |   |  __  | /  /__\  \  |    /   |      \           
                |  |  |   | |  | | |   __   |  |    \   |  |\   \          
                \     /   | |  | | |  |  |  |  | |\  \  |  | \   \       
                 \___/    |_|  |_| |__|  |__|  |_| \__\ |__|  \__/        
                                                                              
                      - O R C A' S   B I G   F R I E N D -                    
                                      &                                       
                       - I N T E G R A L  F E E D E R -                       
                                                                              
 v1 FN, 2020, v2 2021                                                         
------------------------------------------------------------------------------


Reading SHARK input file 5+.SHARKINP.tmp ... ok
----------------------
SHARK INTEGRAL PACKAGE
----------------------

Number of atoms                             ...     34
Number of basis functions                   ...    287
Number of shells                            ...    141
Maximum angular momentum                    ...      2
Integral batch strategy                     ... SHARK/LIBINT Hybrid
RI-J (if used) integral strategy            ... SPLIT-RIJ (Revised 2003 algorithm where possible)
Printlevel                                  ...      1
Contraction scheme used                     ... SEGMENTED contraction
Coulomb Range Separation                    ... NOT USED
Exchange Range Separation                   ... Long Range
   Mu parameter                             ...  0.300000
   Scaling (regular/separated)              ...  0.157706  0.842294
Finite Nucleus Model                        ... NOT USED
Auxiliary Coulomb fitting basis             ... AVAILABLE
   # of basis functions in Aux-J            ...    868
   # of shells in Aux-J                     ...    300
   Maximum angular momentum in Aux-J        ...      4
Auxiliary J/K fitting basis                 ... NOT available
Auxiliary Correlation fitting basis         ... NOT available
Auxiliary 'external' fitting basis          ... NOT available
Integral threshold                          ...     2.500000e-11
Primitive cut-off                           ...     2.500000e-12
Primitive pair pre-selection threshold      ...     2.500000e-12

Calculating pre-screening integrals         ... done (  0.1 sec) Dimension = 141
Organizing shell pair data                  ... done (  0.1 sec)
Shell pair information
Total number of shell pairs                 ...     10011
Shell pairs after pre-screening             ...      8558
Total number of primitive shell pairs       ...     34423
Primitive shell pairs kept                  ...     20543
          la=0 lb=0:   2937 shell pairs
          la=1 lb=0:   3241 shell pairs
          la=1 lb=1:    929 shell pairs
          la=2 lb=0:    887 shell pairs
          la=2 lb=1:    489 shell pairs
          la=2 lb=2:     75 shell pairs

Calculating one electron integrals          ... done (  0.1 sec)
Calculating RI/J V-Matrix + Cholesky decomp.... done (  0.1 sec)
Calculating Nuclear repulsion               ... done (  0.0 sec) ENN=    872.451652230831 Eh

SHARK setup successfully completed in   0.4 seconds

Maximum memory used throughout the entire GTOINT-calculation: 48.4 MB
-------------------------------------------------------------------------------
                                 ORCA SCF
-------------------------------------------------------------------------------

------------
SCF SETTINGS
------------
Hamiltonian:
 Density Functional     Method          .... DFT(GTOs)
 Exchange Functional    Exchange        .... WB97X
 Correlation Functional Correlation     .... WB97X
 Gradients option       PostSCFGGA      .... off
 Hybrid DFT is turned on
   Fraction HF Exchange ScalHFX         ....  0.157706
   Scaling of DF-GGA-X  ScalDFX         ....  0.000000
   Scaling of DF-GGA-C  ScalDFC         ....  1.000000
   Scaling of DF-LDA-C  ScalLDAC        ....  1.000000
   Perturbative correction              ....  0.000000
   Density functional embedding theory  .... OFF
 Long-range corrected/Screened/Range-Separated Hybrid DFT is turned on
   Amount of maximum screened exact exchange              ....  0.842294
   Range separation parameter mu (erf(mu*r12)/r12)        ....  0.300000
 RI-approximation to the Coulomb term is turned on
   Number of AuxJ basis functions       .... 868
   RIJ-COSX (HFX calculated with COS-X)).... on


General Settings:
 Integral files         IntName         .... 5+
 Hartree-Fock type      HFTyp           .... RHF
 Total Charge           Charge          ....    1
 Multiplicity           Mult            ....    1
 Number of Electrons    NEL             ....  100
 Basis Dimension        Dim             ....  287
 Nuclear Repulsion      ENuc            ....    872.4516522308 Eh

Convergence Acceleration:
 DIIS                   CNVDIIS         .... on
   Start iteration      DIISMaxIt       ....     0
   Startup error        DIISStart       ....  0.200000
   # of expansion vecs  DIISMaxEq       ....     5
   Bias factor          DIISBfac        ....   1.050
   Max. coefficient     DIISMaxC        ....  10.000
 Trust-Rad. Augm. Hess. CNVTRAH         .... auto
   Auto Start mean grad. ratio tolernc. ....  1.125000
   Auto Start start iteration           ....    20
   Auto Start num. interpolation iter.  ....    10
   Max. Number of Micro iterations      ....    16
   Max. Number of Macro iterations      .... Maxiter - #DIIS iter
   Number of Davidson start vectors     ....     2
   Converg. threshold I  (grad. norm)   ....   1.000e-05
   Converg. threshold II (energy diff.) ....   1.000e-08
   Grad. Scal. Fac. for Micro threshold ....   0.100
   Minimum threshold for Micro iter.    ....   0.010
   NR start threshold (gradient norm)   ....   0.001
   Initial trust radius                 ....   0.400
   Minimum AH scaling param. (alpha)    ....   1.000
   Maximum AH scaling param. (alpha)    .... 1000.000
   Orbital update algorithm             .... Taylor
   White noise on init. David. guess    .... on
   Maximum white noise                  ....   0.010
   Quad. conv. algorithm                .... NR
 SOSCF                  CNVSOSCF        .... on
   Start iteration      SOSCFMaxIt      ....   150
   Startup grad/error   SOSCFStart      ....  0.001000
 Level Shifting         CNVShift        .... on
   Level shift para.    LevelShift      ....    0.2500
   Turn off err/grad.   ShiftErr        ....    0.0000
 Zerner damping         CNVZerner       .... off
 Static damping         CNVDamp         .... on
   Fraction old density DampFac         ....    0.8500
   Max. Damping (<1)    DampMax         ....    0.9800
   Min. Damping (>=0)   DampMin         ....    0.0000
   Turn off err/grad.   DampErr         ....    0.0300
 Fernandez-Rico         CNVRico         .... off

SCF Procedure:
 Maximum # iterations   MaxIter         ....   125
 SCF integral mode      SCFMode         .... Direct
   Integral package                     .... SHARK and LIBINT hybrid scheme
 Reset frequency        DirectResetFreq ....    20
 Integral Threshold     Thresh          ....  2.500e-11 Eh
 Primitive CutOff       TCut            ....  2.500e-12 Eh

Convergence Tolerance:
 Convergence Check Mode ConvCheckMode   .... Total+1el-Energy
 Convergence forced     ConvForced      .... 0
 Energy Change          TolE            ....  1.000e-08 Eh
 1-El. energy change                    ....  1.000e-05 Eh
 Orbital Gradient       TolG            ....  1.000e-05
 Orbital Rotation angle TolX            ....  1.000e-05
 DIIS Error             TolErr          ....  5.000e-07


Diagonalization of the overlap matrix:
Smallest eigenvalue                        ... 1.040e-03
Time for diagonalization                   ...    0.014 sec
Threshold for overlap eigenvalues          ... 1.000e-08
Number of eigenvalues below threshold      ... 0
Time for construction of square roots      ...    0.007 sec
Total time needed                          ...    0.022 sec

Time for model grid setup =    0.719 sec

------------------------------
INITIAL GUESS: MODEL POTENTIAL
------------------------------
Loading Hartree-Fock densities                     ... done
Calculating cut-offs                               ... done
Initializing the effective Hamiltonian             ... done
Setting up the integral package (SHARK)            ... done
Starting the Coulomb interaction                   ... done (   0.8 sec)
Reading the grid                                   ... done
Mapping shells                                     ... done
Starting the XC term evaluation                    ... done (   0.8 sec)
  promolecular density results
     # of electrons  =    100.986272831
     EX              =    -75.617849763
     EC              =     -3.352883550
     EX+EC           =    -78.970733313
Transforming the Hamiltonian                       ... done (   0.0 sec)
Diagonalizing the Hamiltonian                      ... done (   0.0 sec)
Back transforming the eigenvectors                 ... done (   0.0 sec)
Now organizing SCF variables                       ... done
                      ------------------
                      INITIAL GUESS DONE (   2.3 sec)
                      ------------------
-------------------
DFT GRID GENERATION
-------------------

General Integration Accuracy     IntAcc      ... 4.388
Radial Grid Type                 RadialGrid  ... OptM3 with GC (2021)
Angular Grid (max. ang.)         AngularGrid ... 4 (Lebedev-302)
Angular grid pruning method      GridPruning ... 4 (adaptive)
Weight generation scheme         WeightScheme... Becke
Basis function cutoff            BFCut       ... 1.0000e-11
Integration weight cutoff        WCut        ... 1.0000e-14
Angular grids for H and He will be reduced by one unit
Partially contracted basis set               ... off
Rotationally invariant grid construction     ... off

Total number of grid points                  ...   144161
Total number of batches                      ...     2270
Average number of points per batch           ...       63
Average number of grid points per atom       ...     4240
Time for grid setup =    2.672 sec

--------------------
COSX GRID GENERATION
--------------------

GRIDX 1
-------
General Integration Accuracy     IntAcc      ... 3.816
Radial Grid Type                 RadialGrid  ... OptM3 with GC (2021)
Angular Grid (max. ang.)         AngularGrid ... 1 (Lebedev-50)
Angular grid pruning method      GridPruning ... 4 (adaptive)
Weight generation scheme         WeightScheme... Becke
Basis function cutoff            BFCut       ... 1.0000e-11
Integration weight cutoff        WCut        ... 1.0000e-14
Angular grids for H and He will be reduced by one unit
Partially contracted basis set               ... on
Rotationally invariant grid construction     ... off

Total number of grid points                  ...    18396
Total number of batches                      ...      306
Average number of points per batch           ...       60
Average number of grid points per atom       ...      541
UseSFitting                                  ... on

GRIDX 2
-------
General Integration Accuracy     IntAcc      ... 4.020
Radial Grid Type                 RadialGrid  ... OptM3 with GC (2021)
Angular Grid (max. ang.)         AngularGrid ... 2 (Lebedev-110)
Angular grid pruning method      GridPruning ... 4 (adaptive)
Weight generation scheme         WeightScheme... Becke
Basis function cutoff            BFCut       ... 1.0000e-11
Integration weight cutoff        WCut        ... 1.0000e-14
Angular grids for H and He will be reduced by one unit
Partially contracted basis set               ... on
Rotationally invariant grid construction     ... off

Total number of grid points                  ...    38130
Total number of batches                      ...      612
Average number of points per batch           ...       62
Average number of grid points per atom       ...     1121
UseSFitting                                  ... on

GRIDX 3
-------
General Integration Accuracy     IntAcc      ... 4.338
Radial Grid Type                 RadialGrid  ... OptM3 with GC (2021)
Angular Grid (max. ang.)         AngularGrid ... 3 (Lebedev-194)
Angular grid pruning method      GridPruning ... 4 (adaptive)
Weight generation scheme         WeightScheme... Becke
Basis function cutoff            BFCut       ... 1.0000e-11
Integration weight cutoff        WCut        ... 1.0000e-14
Angular grids for H and He will be reduced by one unit
Partially contracted basis set               ... on
Rotationally invariant grid construction     ... off

Total number of grid points                  ...    82917
Total number of batches                      ...     1312
Average number of points per batch           ...       63
Average number of grid points per atom       ...     2439
UseSFitting                                  ... on

Time for X-Grid setup             =    3.439 sec

--------------
SCF ITERATIONS
--------------
ITER       Energy         Delta-E        Max-DP      RMS-DP      [F,P]     Damp
               ***  Starting incremental Fock matrix formation  ***
  0   -540.3326978427   0.000000000000 0.03329420  0.00063556  0.1463225 0.8500
  1   -540.3925033581  -0.059805515395 0.02992309  0.00059842  0.1177210 0.8500
                               ***Turning on DIIS***
  2   -540.4375222314  -0.045018873305 0.02345415  0.00048822  0.0902337 0.8500
  3   -540.4706013195  -0.033079088110 0.01476158  0.00034910  0.0682897 0.8500
  4   -540.4959040163  -0.025302696787 0.01003075  0.00027055  0.0543183 0.8500
  5   -540.5157053418  -0.019801325491 0.00785584  0.00022349  0.0448637 0.8500
  6   -540.5317323586  -0.016027016830 0.00691718  0.00018915  0.0377023 0.8500
  7   -540.5449557806  -0.013223421960 0.00605421  0.00016282  0.0319163 0.8500
  8   -540.5559916206  -0.011035840044 0.03516325  0.00093369  0.0269976 0.0000
  9   -540.6150226069  -0.059030986269 0.00134567  0.00003285  0.0011715 0.0000
                      *** Initiating the SOSCF procedure ***
                           *** Shutting down DIIS ***
                      *** Re-Reading the Fockian *** 
                      *** Removing any level shift *** 
ITER      Energy       Delta-E        Grad      Rot      Max-DP    RMS-DP
 10   -540.61504545  -0.0000228437  0.000210  0.000210  0.000768  0.000013
               *** Restarting incremental Fock matrix formation ***
 11   -540.61513211  -0.0000866548  0.000068  0.000134  0.000400  0.000009
 12   -540.61513248  -0.0000003794  0.000106  0.000210  0.000203  0.000004
 13   -540.61513258  -0.0000000958  0.000010  0.000014  0.000025  0.000001
 14   -540.61513261  -0.0000000260  0.000006  0.000015  0.000009  0.000000
                  ***Gradient check signals convergence***
              ***Rediagonalizing the Fockian in SOSCF/NRSCF***

               *****************************************************
               *                     SUCCESS                       *
               *           SCF CONVERGED AFTER  15 CYCLES          *
               *****************************************************

Old exchange energy                            =    -25.346791665 Eh
New exchange energy                            =    -25.346777933 Eh
Exchange energy change after final integration =      0.000013731 Eh
Total energy after final integration           =   -540.615118890 Eh
Final COS-X integration done in                =    94.686 sec

----------------
TOTAL SCF ENERGY
----------------

Total Energy       :         -540.61511889 Eh          -14710.88527 eV

Components:
Nuclear Repulsion  :          872.45165223 Eh           23740.61641 eV
Electronic Energy  :        -1413.06677112 Eh          -38451.50168 eV
One Electron Energy:        -2443.57987123 Eh          -66493.18874 eV
Two Electron Energy:         1030.51310011 Eh           28041.68707 eV
Max COSX asymmetry :            0.00000241 Eh               0.00007 eV

Virial components:
Potential Energy   :        -1074.47578626 Eh          -29237.97257 eV
Kinetic Energy     :          533.86066737 Eh           14527.08730 eV
Virial Ratio       :            2.01265209


DFT components:
N(Alpha)           :       49.999612832884 electrons
N(Beta)            :       49.999612832884 electrons
N(Total)           :       99.999225665768 electrons
E(XC)              :      -55.552724658713 Eh       
DFET-embed. en.    :        0.000000000000 Eh       

---------------
SCF CONVERGENCE
---------------

  Last Energy change         ...   -1.5118e-08  Tolerance :   1.0000e-08
  Last MAX-Density change    ...    5.3291e-15  Tolerance :   1.0000e-07
  Last RMS-Density change    ...    4.0195e-17  Tolerance :   5.0000e-09
  Last Orbital Gradient      ...    2.3829e-06  Tolerance :   1.0000e-05
  Last Orbital Rotation      ...    8.0063e-06  Tolerance :   1.0000e-05

             **** THE GBW FILE WAS UPDATED (5+.gbw) ****
             **** DENSITY 5+.scfp WAS UPDATED ****
             **** ENERGY FILE WAS UPDATED (5+.en.tmp) ****
             **** THE GBW FILE WAS UPDATED (5+.gbw) ****
             **** DENSITY 5+.scfp WAS UPDATED ****
----------------
ORBITAL ENERGIES
----------------

  NO   OCC          E(Eh)            E(eV) 
   0   2.0000     -14.646730      -398.5578 
   1   2.0000     -14.646680      -398.5564 
   2   2.0000     -10.524102      -286.3754 
   3   2.0000     -10.477080      -285.0958 
   4   2.0000     -10.477054      -285.0951 
   5   2.0000     -10.473478      -284.9978 
   6   2.0000     -10.472892      -284.9819 
   7   2.0000     -10.409437      -283.2552 
   8   2.0000     -10.409425      -283.2549 
   9   2.0000     -10.402433      -283.0646 
  10   2.0000     -10.402428      -283.0645 
  11   2.0000     -10.402418      -283.0642 
  12   2.0000     -10.402415      -283.0641 
  13   2.0000      -1.352461       -36.8023 
  14   2.0000      -1.232715       -33.5439 
  15   2.0000      -1.113619       -30.3031 
  16   2.0000      -1.065500       -28.9937 
  17   2.0000      -1.060945       -28.8698 
  18   2.0000      -0.965656       -26.2768 
  19   2.0000      -0.959110       -26.0987 
  20   2.0000      -0.952336       -25.9144 
  21   2.0000      -0.951564       -25.8934 
  22   2.0000      -0.924904       -25.1679 
  23   2.0000      -0.902665       -24.5628 
  24   2.0000      -0.866086       -23.5674 
  25   2.0000      -0.835462       -22.7341 
  26   2.0000      -0.778515       -21.1845 
  27   2.0000      -0.765342       -20.8260 
  28   2.0000      -0.737952       -20.0807 
  29   2.0000      -0.726685       -19.7741 
  30   2.0000      -0.722942       -19.6723 
  31   2.0000      -0.713669       -19.4199 
  32   2.0000      -0.708273       -19.2731 
  33   2.0000      -0.686913       -18.6919 
  34   2.0000      -0.685640       -18.6572 
  35   2.0000      -0.677797       -18.4438 
  36   2.0000      -0.650194       -17.6927 
  37   2.0000      -0.631344       -17.1797 
  38   2.0000      -0.631311       -17.1788 
  39   2.0000      -0.628491       -17.1021 
  40   2.0000      -0.625662       -17.0251 
  41   2.0000      -0.617065       -16.7912 
  42   2.0000      -0.610968       -16.6253 
  43   2.0000      -0.610669       -16.6172 
  44   2.0000      -0.597638       -16.2626 
  45   2.0000      -0.584456       -15.9038 
  46   2.0000      -0.584014       -15.8918 
  47   2.0000      -0.582180       -15.8419 
  48   2.0000      -0.544115       -14.8061 
  49   2.0000      -0.514716       -14.0061 
  50   0.0000      -0.077688        -2.1140 
  51   0.0000      -0.044617        -1.2141 
  52   0.0000      -0.002494        -0.0679 
  53   0.0000       0.014254         0.3879 
  54   0.0000       0.026919         0.7325 
  55   0.0000       0.031733         0.8635 
  56   0.0000       0.040362         1.0983 
  57   0.0000       0.048014         1.3065 
  58   0.0000       0.062671         1.7054 
  59   0.0000       0.065319         1.7774 
  60   0.0000       0.081873         2.2279 
  61   0.0000       0.085011         2.3133 
  62   0.0000       0.091711         2.4956 
  63   0.0000       0.093652         2.5484 
  64   0.0000       0.095176         2.5899 
  65   0.0000       0.111897         3.0449 
  66   0.0000       0.115445         3.1414 
  67   0.0000       0.123555         3.3621 
  68   0.0000       0.131979         3.5913 
  69   0.0000       0.136340         3.7100 
  70   0.0000       0.140818         3.8318 
  71   0.0000       0.141644         3.8543 
  72   0.0000       0.143692         3.9100 
  73   0.0000       0.146889         3.9970 
  74   0.0000       0.147697         4.0190 
  75   0.0000       0.157936         4.2977 
  76   0.0000       0.161462         4.3936 
  77   0.0000       0.166294         4.5251 
  78   0.0000       0.178132         4.8472 
  79   0.0000       0.182366         4.9624 
  80   0.0000       0.187248         5.0953 
  81   0.0000       0.201325         5.4783 
  82   0.0000       0.207581         5.6486 
  83   0.0000       0.218021         5.9327 
  84   0.0000       0.261829         7.1247 
  85   0.0000       0.287479         7.8227 
  86   0.0000       0.312390         8.5006 
  87   0.0000       0.340688         9.2706 
  88   0.0000       0.341195         9.2844 
  89   0.0000       0.352227         9.5846 
  90   0.0000       0.362318         9.8592 
  91   0.0000       0.375197        10.2096 
  92   0.0000       0.380719        10.3599 
  93   0.0000       0.409419        11.1409 
  94   0.0000       0.415750        11.3131 
  95   0.0000       0.417108        11.3501 
  96   0.0000       0.460096        12.5198 
  97   0.0000       0.461348        12.5539 
  98   0.0000       0.463918        12.6238 
  99   0.0000       0.487564        13.2673 
 100   0.0000       0.505050        13.7431 
 101   0.0000       0.512899        13.9567 
 102   0.0000       0.520767        14.1708 
 103   0.0000       0.529737        14.4149 
 104   0.0000       0.543779        14.7970 
 105   0.0000       0.550892        14.9905 
 106   0.0000       0.575524        15.6608 
 107   0.0000       0.585532        15.9331 
 108   0.0000       0.591473        16.0948 
 109   0.0000       0.601123        16.3574 
 110   0.0000       0.608249        16.5513 
 111   0.0000       0.609551        16.5867 
 112   0.0000       0.611343        16.6355 
 113   0.0000       0.614204        16.7134 
 114   0.0000       0.615067        16.7368 
 115   0.0000       0.624608        16.9964 
 116   0.0000       0.633002        17.2249 
 117   0.0000       0.637339        17.3429 
 118   0.0000       0.641204        17.4480 
 119   0.0000       0.647569        17.6212 
 120   0.0000       0.648648        17.6506 
 121   0.0000       0.651140        17.7184 
 122   0.0000       0.669355        18.2141 
 123   0.0000       0.676046        18.3962 
 124   0.0000       0.677806        18.4440 
 125   0.0000       0.683056        18.5869 
 126   0.0000       0.684673        18.6309 
 127   0.0000       0.685222        18.6458 
 128   0.0000       0.693364        18.8674 
 129   0.0000       0.696926        18.9643 
 130   0.0000       0.698633        19.0108 
 131   0.0000       0.701616        19.0920 
 132   0.0000       0.703875        19.1534 
 133   0.0000       0.708772        19.2867 
 134   0.0000       0.709067        19.2947 
 135   0.0000       0.722166        19.6511 
 136   0.0000       0.738959        20.1081 
 137   0.0000       0.740095        20.1390 
 138   0.0000       0.749953        20.4073 
 139   0.0000       0.758952        20.6521 
 140   0.0000       0.848768        23.0962 
 141   0.0000       0.852049        23.1854 
 142   0.0000       0.898286        24.4436 
 143   0.0000       0.904835        24.6218 
 144   0.0000       0.905708        24.6456 
 145   0.0000       0.919009        25.0075 
 146   0.0000       0.931131        25.3374 
 147   0.0000       0.961049        26.1515 
 148   0.0000       0.969384        26.3783 
 149   0.0000       1.026070        27.9208 
 150   0.0000       1.052087        28.6287 
 151   0.0000       1.058830        28.8122 
 152   0.0000       1.075310        29.2607 
 153   0.0000       1.103462        30.0267 
 154   0.0000       1.131386        30.7866 
 155   0.0000       1.146619        31.2011 
 156   0.0000       1.161672        31.6107 
 157   0.0000       1.193556        32.4783 
 158   0.0000       1.200017        32.6541 
 159   0.0000       1.202701        32.7272 
 160   0.0000       1.232902        33.5490 
 161   0.0000       1.233449        33.5639 
 162   0.0000       1.245448        33.8904 
 163   0.0000       1.262257        34.3478 
 164   0.0000       1.273239        34.6466 
 165   0.0000       1.291814        35.1521 
 166   0.0000       1.306293        35.5460 
 167   0.0000       1.340428        36.4749 
 168   0.0000       1.413040        38.4508 
 169   0.0000       1.494673        40.6721 
 170   0.0000       1.496246        40.7149 
 171   0.0000       1.503552        40.9137 
 172   0.0000       1.508646        41.0524 
 173   0.0000       1.510452        41.1015 
 174   0.0000       1.514854        41.2213 
 175   0.0000       1.515174        41.2300 
 176   0.0000       1.520996        41.3884 
 177   0.0000       1.528120        41.5823 
 178   0.0000       1.531093        41.6632 
 179   0.0000       1.540070        41.9074 
 180   0.0000       1.571203        42.7546 
 181   0.0000       1.621541        44.1244 
 182   0.0000       1.642783        44.7024 
 183   0.0000       1.642928        44.7063 
 184   0.0000       1.668326        45.3975 
 185   0.0000       1.672152        45.5016 
 186   0.0000       1.693900        46.0934 
 187   0.0000       1.705642        46.4129 
 188   0.0000       1.708873        46.5008 
 189   0.0000       1.714610        46.6569 
 190   0.0000       1.722223        46.8641 
 191   0.0000       1.739802        47.3424 
 192   0.0000       1.745411        47.4951 
 193   0.0000       1.760490        47.9054 
 194   0.0000       1.780086        48.4386 
 195   0.0000       1.785603        48.5887 
 196   0.0000       1.789751        48.7016 
 197   0.0000       1.791464        48.7482 
 198   0.0000       1.803146        49.0661 
 199   0.0000       1.805187        49.1216 
 200   0.0000       1.805691        49.1353 
 201   0.0000       1.807849        49.1941 
 202   0.0000       1.811321        49.2885 
 203   0.0000       1.819001        49.4975 
 204   0.0000       1.826605        49.7044 
 205   0.0000       1.828703        49.7615 
 206   0.0000       1.853421        50.4342 
 207   0.0000       1.853807        50.4446 
 208   0.0000       1.870402        50.8962 
 209   0.0000       1.874571        51.0097 
 210   0.0000       1.900037        51.7026 
 211   0.0000       1.905527        51.8520 
 212   0.0000       1.910327        51.9826 
 213   0.0000       1.913008        52.0556 
 214   0.0000       1.915308        52.1182 
 215   0.0000       1.930567        52.5334 
 216   0.0000       1.933735        52.6196 
 217   0.0000       1.937177        52.7133 
 218   0.0000       1.953611        53.1605 
 219   0.0000       1.974707        53.7345 
 220   0.0000       1.979125        53.8547 
 221   0.0000       2.011226        54.7282 
 222   0.0000       2.022547        55.0363 
 223   0.0000       2.092170        56.9308 
 224   0.0000       2.112437        57.4823 
 225   0.0000       2.121056        57.7169 
 226   0.0000       2.127067        57.8804 
 227   0.0000       2.149002        58.4773 
 228   0.0000       2.159589        58.7654 
 229   0.0000       2.162915        58.8559 
 230   0.0000       2.168488        59.0076 
 231   0.0000       2.176767        59.2328 
 232   0.0000       2.188787        59.5599 
 233   0.0000       2.302644        62.6581 
 234   0.0000       2.307017        62.7771 
 235   0.0000       2.311455        62.8979 
 236   0.0000       2.331766        63.4506 
 237   0.0000       2.349938        63.9451 
 238   0.0000       2.359910        64.2164 
 239   0.0000       2.362942        64.2989 
 240   0.0000       2.375305        64.6353 
 241   0.0000       2.386338        64.9355 
 242   0.0000       2.402658        65.3796 
 243   0.0000       2.422228        65.9122 
 244   0.0000       2.423480        65.9462 
 245   0.0000       2.448328        66.6224 
 246   0.0000       2.457001        66.8584 
 247   0.0000       2.463744        67.0419 
 248   0.0000       2.471342        67.2486 
 249   0.0000       2.476254        67.3823 
 250   0.0000       2.506884        68.2158 
 251   0.0000       2.527694        68.7820 
 252   0.0000       2.585060        70.3431 
 253   0.0000       2.590959        70.5036 
 254   0.0000       2.601951        70.8027 
 255   0.0000       2.614076        71.1326 
 256   0.0000       2.655202        72.2517 
 257   0.0000       2.658579        72.3436 
 258   0.0000       2.659429        72.3667 
 259   0.0000       2.673154        72.7402 
 260   0.0000       2.697882        73.4131 
 261   0.0000       2.714922        73.8768 
 262   0.0000       2.777129        75.5695 
 263   0.0000       2.805665        76.3460 
 264   0.0000       2.818476        76.6946 
 265   0.0000       2.830495        77.0217 
 266   0.0000       2.838702        77.2450 
 267   0.0000       2.848212        77.5038 
 268   0.0000       2.849370        77.5353 
 269   0.0000       2.857459        77.7554 
 270   0.0000       2.859559        77.8126 
 271   0.0000       2.863438        77.9181 
 272   0.0000       2.882903        78.4478 
 273   0.0000       2.911611        79.2290 
 274   0.0000       2.919910        79.4548 
 275   0.0000       2.924133        79.5697 
 276   0.0000       2.937601        79.9362 
 277   0.0000       2.938646        79.9646 
 278   0.0000       2.972132        80.8758 
 279   0.0000       2.985135        81.2296 
 280   0.0000       3.015006        82.0425 
 281   0.0000       3.048214        82.9461 
 282   0.0000       3.052256        83.0561 
 283   0.0000       3.151788        85.7645 
 284   0.0000       3.322334        90.4053 
 285   0.0000       3.434155        93.4481 
 286   0.0000       3.451510        93.9204 

                    ********************************
                    * MULLIKEN POPULATION ANALYSIS *
                    ********************************

-----------------------
MULLIKEN ATOMIC CHARGES
-----------------------
   0 C :   -0.270863
   1 C :   -0.270863
   2 N :   -0.173271
   3 N :   -0.173273
   4 C :    0.070047
   5 C :    0.070048
   6 C :    0.201543
   7 H :    0.092914
   8 H :    0.092914
   9 H :    0.099818
  10 C :    0.045106
  11 C :    0.045105
  12 C :    0.045106
  13 C :    0.045105
  14 H :    0.047103
  15 H :    0.047103
  16 H :    0.047103
  17 H :    0.047103
  18 H :    0.071109
  19 H :    0.071109
  20 H :    0.071110
  21 H :    0.071109
  22 H :    0.054803
  23 H :    0.054803
  24 H :    0.054802
  25 H :    0.054803
  26 C :    0.008101
  27 C :    0.008102
  28 H :    0.078579
  29 H :    0.078579
  30 H :    0.053786
  31 H :    0.053785
  32 H :    0.053786
  33 H :    0.053786
Sum of atomic charges:    1.0000000

--------------------------------
MULLIKEN REDUCED ORBITAL CHARGES
--------------------------------
  0 C s       :     3.236168  s :     3.236168
      pz      :     1.082445  p :     2.971242
      px      :     1.095899
      py      :     0.792898
      dz2     :     0.013638  d :     0.063453
      dxz     :     0.010495
      dyz     :     0.010583
      dx2y2   :     0.017510
      dxy     :     0.011226
  1 C s       :     3.236167  s :     3.236167
      pz      :     1.082446  p :     2.971243
      px      :     1.095899
      py      :     0.792899
      dz2     :     0.013638  d :     0.063453
      dxz     :     0.010495
      dyz     :     0.010583
      dx2y2   :     0.017510
      dxy     :     0.011226
  2 N s       :     3.392203  s :     3.392203
      pz      :     1.134776  p :     3.749160
      px      :     1.450402
      py      :     1.163982
      dz2     :     0.006308  d :     0.031908
      dxz     :     0.006231
      dyz     :     0.009922
      dx2y2   :     0.003922
      dxy     :     0.005525
  3 N s       :     3.392204  s :     3.392204
      pz      :     1.134776  p :     3.749161
      px      :     1.450403
      py      :     1.163982
      dz2     :     0.006308  d :     0.031908
      dxz     :     0.006231
      dyz     :     0.009922
      dx2y2   :     0.003922
      dxy     :     0.005525
  4 C s       :     3.138592  s :     3.138592
      pz      :     0.792446  p :     2.744141
      px      :     1.032479
      py      :     0.919215
      dz2     :     0.014619  d :     0.047220
      dxz     :     0.007570
      dyz     :     0.012589
      dx2y2   :     0.004892
      dxy     :     0.007551
  5 C s       :     3.138592  s :     3.138592
      pz      :     0.792447  p :     2.744140
      px      :     1.032479
      py      :     0.919214
      dz2     :     0.014619  d :     0.047220
      dxz     :     0.007570
      dyz     :     0.012589
      dx2y2   :     0.004892
      dxy     :     0.007551
  6 C s       :     3.097755  s :     3.097755
      pz      :     0.893754  p :     2.633388
      px      :     0.951762
      py      :     0.787871
      dz2     :     0.012960  d :     0.067315
      dxz     :     0.006255
      dyz     :     0.022028
      dx2y2   :     0.009133
      dxy     :     0.016939
  7 H s       :     0.882766  s :     0.882766
      pz      :     0.011034  p :     0.024319
      px      :     0.004789
      py      :     0.008497
  8 H s       :     0.882766  s :     0.882766
      pz      :     0.011034  p :     0.024319
      px      :     0.004789
      py      :     0.008497
  9 H s       :     0.875644  s :     0.875644
      pz      :     0.018205  p :     0.024538
      px      :     0.004533
      py      :     0.001800
 10 C s       :     3.011991  s :     3.011991
      pz      :     0.998012  p :     2.917341
      px      :     0.918790
      py      :     1.000540
      dz2     :     0.008075  d :     0.025562
      dxz     :     0.003702
      dyz     :     0.002587
      dx2y2   :     0.006025
      dxy     :     0.005173
 11 C s       :     3.011993  s :     3.011993
      pz      :     0.998011  p :     2.917340
      px      :     0.918790
      py      :     1.000539
      dz2     :     0.008075  d :     0.025562
      dxz     :     0.003702
      dyz     :     0.002587
      dx2y2   :     0.006025
      dxy     :     0.005173
 12 C s       :     3.011991  s :     3.011991
      pz      :     0.998012  p :     2.917341
      px      :     0.918789
      py      :     1.000541
      dz2     :     0.008075  d :     0.025562
      dxz     :     0.003702
      dyz     :     0.002587
      dx2y2   :     0.006025
      dxy     :     0.005173
 13 C s       :     3.011991  s :     3.011991
      pz      :     0.998012  p :     2.917342
      px      :     0.918789
      py      :     1.000541
      dz2     :     0.008075  d :     0.025562
      dxz     :     0.003702
      dyz     :     0.002587
      dx2y2   :     0.006025
      dxy     :     0.005173
 14 H s       :     0.929205  s :     0.929205
      pz      :     0.015113  p :     0.023692
      px      :     0.003928
      py      :     0.004651
 15 H s       :     0.929205  s :     0.929205
      pz      :     0.015113  p :     0.023692
      px      :     0.003928
      py      :     0.004651
 16 H s       :     0.929205  s :     0.929205
      pz      :     0.015113  p :     0.023692
      px      :     0.003928
      py      :     0.004651
 17 H s       :     0.929205  s :     0.929205
      pz      :     0.015113  p :     0.023692
      px      :     0.003928
      py      :     0.004651
 18 H s       :     0.904941  s :     0.904941
      pz      :     0.005454  p :     0.023950
      px      :     0.003972
      py      :     0.014524
 19 H s       :     0.904940  s :     0.904940
      pz      :     0.005454  p :     0.023951
      px      :     0.003972
      py      :     0.014524
 20 H s       :     0.904940  s :     0.904940
      pz      :     0.005454  p :     0.023950
      px      :     0.003972
      py      :     0.014524
 21 H s       :     0.904940  s :     0.904940
      pz      :     0.005454  p :     0.023950
      px      :     0.003972
      py      :     0.014524
 22 H s       :     0.921749  s :     0.921749
      pz      :     0.005623  p :     0.023449
      px      :     0.011407
      py      :     0.006419
 23 H s       :     0.921748  s :     0.921748
      pz      :     0.005623  p :     0.023449
      px      :     0.011407
      py      :     0.006419
 24 H s       :     0.921749  s :     0.921749
      pz      :     0.005623  p :     0.023449
      px      :     0.011407
      py      :     0.006419
 25 H s       :     0.921749  s :     0.921749
      pz      :     0.005623  p :     0.023448
      px      :     0.011407
      py      :     0.006419
 26 C s       :     3.017210  s :     3.017210
      pz      :     0.900090  p :     2.949065
      px      :     1.000681
      py      :     1.048294
      dz2     :     0.007823  d :     0.025624
      dxz     :     0.005589
      dyz     :     0.003051
      dx2y2   :     0.004878
      dxy     :     0.004283
 27 C s       :     3.017210  s :     3.017210
      pz      :     0.900090  p :     2.949064
      px      :     1.000680
      py      :     1.048294
      dz2     :     0.007823  d :     0.025624
      dxz     :     0.005589
      dyz     :     0.003051
      dx2y2   :     0.004878
      dxy     :     0.004283
 28 H s       :     0.897414  s :     0.897414
      pz      :     0.004663  p :     0.024007
      px      :     0.004762
      py      :     0.014581
 29 H s       :     0.897414  s :     0.897414
      pz      :     0.004663  p :     0.024007
      px      :     0.004762
      py      :     0.014581
 30 H s       :     0.922568  s :     0.922568
      pz      :     0.005430  p :     0.023646
      px      :     0.011804
      py      :     0.006411
 31 H s       :     0.922569  s :     0.922569
      pz      :     0.005430  p :     0.023646
      px      :     0.011804
      py      :     0.006411
 32 H s       :     0.922568  s :     0.922568
      pz      :     0.005430  p :     0.023646
      px      :     0.011804
      py      :     0.006411
 33 H s       :     0.922568  s :     0.922568
      pz      :     0.005430  p :     0.023646
      px      :     0.011804
      py      :     0.006411


                     *******************************
                     * LOEWDIN POPULATION ANALYSIS *
                     *******************************

----------------------
LOEWDIN ATOMIC CHARGES
----------------------
   0 C :    0.009581
   1 C :    0.009580
   2 N :    0.098456
   3 N :    0.098456
   4 C :    0.022209
   5 C :    0.022210
   6 C :    0.102977
   7 H :    0.054473
   8 H :    0.054473
   9 H :    0.052440
  10 C :   -0.040370
  11 C :   -0.040370
  12 C :   -0.040370
  13 C :   -0.040370
  14 H :    0.033324
  15 H :    0.033324
  16 H :    0.033324
  17 H :    0.033324
  18 H :    0.049525
  19 H :    0.049525
  20 H :    0.049525
  21 H :    0.049525
  22 H :    0.037693
  23 H :    0.037693
  24 H :    0.037693
  25 H :    0.037693
  26 C :   -0.046967
  27 C :   -0.046967
  28 H :    0.055359
  29 H :    0.055360
  30 H :    0.034417
  31 H :    0.034418
  32 H :    0.034418
  33 H :    0.034418

-------------------------------
LOEWDIN REDUCED ORBITAL CHARGES
-------------------------------
  0 C s       :     2.848758  s :     2.848758
      pz      :     1.061004  p :     2.999902
      px      :     1.086033
      py      :     0.852865
      dz2     :     0.032777  d :     0.141759
      dxz     :     0.020946
      dyz     :     0.022558
      dx2y2   :     0.039365
      dxy     :     0.026112
  1 C s       :     2.848758  s :     2.848758
      pz      :     1.061004  p :     2.999903
      px      :     1.086033
      py      :     0.852866
      dz2     :     0.032777  d :     0.141759
      dxz     :     0.020946
      dyz     :     0.022559
      dx2y2   :     0.039365
      dxy     :     0.026112
  2 N s       :     3.058626  s :     3.058626
      pz      :     1.194483  p :     3.769389
      px      :     1.378224
      py      :     1.196682
      dz2     :     0.017024  d :     0.073529
      dxz     :     0.012068
      dyz     :     0.026158
      dx2y2   :     0.009173
      dxy     :     0.009106
  3 N s       :     3.058626  s :     3.058626
      pz      :     1.194483  p :     3.769389
      px      :     1.378225
      py      :     1.196682
      dz2     :     0.017024  d :     0.073529
      dxz     :     0.012068
      dyz     :     0.026158
      dx2y2   :     0.009173
      dxy     :     0.009106
  4 C s       :     2.853552  s :     2.853552
      pz      :     0.929599  p :     3.008249
      px      :     1.025970
      py      :     1.052681
      dz2     :     0.037845  d :     0.115989
      dxz     :     0.014573
      dyz     :     0.035247
      dx2y2   :     0.013782
      dxy     :     0.014541
  5 C s       :     2.853552  s :     2.853552
      pz      :     0.929599  p :     3.008249
      px      :     1.025969
      py      :     1.052681
      dz2     :     0.037845  d :     0.115989
      dxz     :     0.014573
      dyz     :     0.035247
      dx2y2   :     0.013782
      dxy     :     0.014541
  6 C s       :     2.834024  s :     2.834024
      pz      :     1.025909  p :     2.905361
      px      :     0.971595
      py      :     0.907858
      dz2     :     0.030415  d :     0.157637
      dxz     :     0.009837
      dyz     :     0.058883
      dx2y2   :     0.023509
      dxy     :     0.034995
  7 H s       :     0.873532  s :     0.873532
      pz      :     0.032384  p :     0.071996
      px      :     0.015092
      py      :     0.024520
  8 H s       :     0.873532  s :     0.873532
      pz      :     0.032384  p :     0.071996
      px      :     0.015092
      py      :     0.024520
  9 H s       :     0.872135  s :     0.872135
      pz      :     0.052767  p :     0.075424
      px      :     0.014637
      py      :     0.008020
 10 C s       :     2.839817  s :     2.839817
      pz      :     1.056419  p :     3.131270
      px      :     1.010427
      py      :     1.064425
      dz2     :     0.021550  d :     0.069282
      dxz     :     0.010151
      dyz     :     0.006822
      dx2y2   :     0.016293
      dxy     :     0.014466
 11 C s       :     2.839818  s :     2.839818
      pz      :     1.056419  p :     3.131270
      px      :     1.010427
      py      :     1.064425
      dz2     :     0.021550  d :     0.069282
      dxz     :     0.010151
      dyz     :     0.006822
      dx2y2   :     0.016293
      dxy     :     0.014466
 12 C s       :     2.839818  s :     2.839818
      pz      :     1.056419  p :     3.131270
      px      :     1.010426
      py      :     1.064425
      dz2     :     0.021550  d :     0.069282
      dxz     :     0.010151
      dyz     :     0.006822
      dx2y2   :     0.016293
      dxy     :     0.014466
 13 C s       :     2.839817  s :     2.839817
      pz      :     1.056419  p :     3.131270
      px      :     1.010427
      py      :     1.064425
      dz2     :     0.021550  d :     0.069282
      dxz     :     0.010151
      dyz     :     0.006822
      dx2y2   :     0.016293
      dxy     :     0.014466
 14 H s       :     0.900748  s :     0.900748
      pz      :     0.041327  p :     0.065928
      px      :     0.011888
      py      :     0.012713
 15 H s       :     0.900748  s :     0.900748
      pz      :     0.041327  p :     0.065928
      px      :     0.011888
      py      :     0.012713
 16 H s       :     0.900748  s :     0.900748
      pz      :     0.041327  p :     0.065928
      px      :     0.011888
      py      :     0.012713
 17 H s       :     0.900748  s :     0.900748
      pz      :     0.041327  p :     0.065928
      px      :     0.011888
      py      :     0.012713
 18 H s       :     0.884428  s :     0.884428
      pz      :     0.014532  p :     0.066047
      px      :     0.011702
      py      :     0.039813
 19 H s       :     0.884428  s :     0.884428
      pz      :     0.014532  p :     0.066047
      px      :     0.011702
      py      :     0.039813
 20 H s       :     0.884428  s :     0.884428
      pz      :     0.014532  p :     0.066047
      px      :     0.011702
      py      :     0.039813
 21 H s       :     0.884428  s :     0.884428
      pz      :     0.014532  p :     0.066047
      px      :     0.011702
      py      :     0.039813
 22 H s       :     0.896445  s :     0.896445
      pz      :     0.015184  p :     0.065862
      px      :     0.032931
      py      :     0.017747
 23 H s       :     0.896445  s :     0.896445
      pz      :     0.015184  p :     0.065862
      px      :     0.032932
      py      :     0.017747
 24 H s       :     0.896445  s :     0.896445
      pz      :     0.015184  p :     0.065862
      px      :     0.032931
      py      :     0.017747
 25 H s       :     0.896445  s :     0.896445
      pz      :     0.015184  p :     0.065862
      px      :     0.032931
      py      :     0.017747
 26 C s       :     2.837921  s :     2.837921
      pz      :     0.992552  p :     3.139702
      px      :     1.062060
      py      :     1.085089
      dz2     :     0.022777  d :     0.069344
      dxz     :     0.014468
      dyz     :     0.007933
      dx2y2   :     0.012889
      dxy     :     0.011277
 27 C s       :     2.837921  s :     2.837921
      pz      :     0.992553  p :     3.139702
      px      :     1.062060
      py      :     1.085089
      dz2     :     0.022777  d :     0.069344
      dxz     :     0.014468
      dyz     :     0.007933
      dx2y2   :     0.012889
      dxy     :     0.011277
 28 H s       :     0.878307  s :     0.878307
      pz      :     0.014358  p :     0.066333
      px      :     0.012062
      py      :     0.039914
 29 H s       :     0.878307  s :     0.878307
      pz      :     0.014358  p :     0.066333
      px      :     0.012062
      py      :     0.039914
 30 H s       :     0.899268  s :     0.899268
      pz      :     0.016974  p :     0.066314
      px      :     0.031887
      py      :     0.017453
 31 H s       :     0.899268  s :     0.899268
      pz      :     0.016974  p :     0.066314
      px      :     0.031887
      py      :     0.017453
 32 H s       :     0.899268  s :     0.899268
      pz      :     0.016974  p :     0.066314
      px      :     0.031887
      py      :     0.017453
 33 H s       :     0.899268  s :     0.899268
      pz      :     0.016974  p :     0.066314
      px      :     0.031887
      py      :     0.017453


                      *****************************
                      * MAYER POPULATION ANALYSIS *
                      *****************************

  NA   - Mulliken gross atomic population
  ZA   - Total nuclear charge
  QA   - Mulliken gross atomic charge
  VA   - Mayer's total valence
  BVA  - Mayer's bonded valence
  FA   - Mayer's free valence

  ATOM       NA         ZA         QA         VA         BVA        FA
  0 C      6.2709     6.0000    -0.2709     4.0954     4.0954    -0.0000
  1 C      6.2709     6.0000    -0.2709     4.0954     4.0954     0.0000
  2 N      7.1733     7.0000    -0.1733     3.3493     3.3493     0.0000
  3 N      7.1733     7.0000    -0.1733     3.3493     3.3493     0.0000
  4 C      5.9300     6.0000     0.0700     3.8804     3.8804     0.0000
  5 C      5.9300     6.0000     0.0700     3.8804     3.8804     0.0000
  6 C      5.7985     6.0000     0.2015     3.8878     3.8878     0.0000
  7 H      0.9071     1.0000     0.0929     0.9989     0.9989     0.0000
  8 H      0.9071     1.0000     0.0929     0.9989     0.9989     0.0000
  9 H      0.9002     1.0000     0.0998     1.0237     1.0237     0.0000
 10 C      5.9549     6.0000     0.0451     3.8767     3.8767     0.0000
 11 C      5.9549     6.0000     0.0451     3.8767     3.8767     0.0000
 12 C      5.9549     6.0000     0.0451     3.8767     3.8767     0.0000
 13 C      5.9549     6.0000     0.0451     3.8767     3.8767     0.0000
 14 H      0.9529     1.0000     0.0471     1.0008     1.0008     0.0000
 15 H      0.9529     1.0000     0.0471     1.0008     1.0008     0.0000
 16 H      0.9529     1.0000     0.0471     1.0008     1.0008    -0.0000
 17 H      0.9529     1.0000     0.0471     1.0008     1.0008     0.0000
 18 H      0.9289     1.0000     0.0711     0.9994     0.9994    -0.0000
 19 H      0.9289     1.0000     0.0711     0.9994     0.9994     0.0000
 20 H      0.9289     1.0000     0.0711     0.9994     0.9994     0.0000
 21 H      0.9289     1.0000     0.0711     0.9994     0.9994     0.0000
 22 H      0.9452     1.0000     0.0548     0.9962     0.9962     0.0000
 23 H      0.9452     1.0000     0.0548     0.9962     0.9962     0.0000
 24 H      0.9452     1.0000     0.0548     0.9962     0.9962     0.0000
 25 H      0.9452     1.0000     0.0548     0.9962     0.9962     0.0000
 26 C      5.9919     6.0000     0.0081     3.9331     3.9331    -0.0000
 27 C      5.9919     6.0000     0.0081     3.9331     3.9331     0.0000
 28 H      0.9214     1.0000     0.0786     0.9989     0.9989    -0.0000
 29 H      0.9214     1.0000     0.0786     0.9989     0.9989     0.0000
 30 H      0.9462     1.0000     0.0538     0.9919     0.9919     0.0000
 31 H      0.9462     1.0000     0.0538     0.9919     0.9919    -0.0000
 32 H      0.9462     1.0000     0.0538     0.9919     0.9919     0.0000
 33 H      0.9462     1.0000     0.0538     0.9919     0.9919     0.0000

  Mayer bond orders larger than 0.100000
B(  0-C ,  2-N ) :   0.7953 B(  0-C , 10-C ) :   1.0323 B(  0-C , 13-C ) :   1.0323 
B(  0-C , 26-C ) :   1.0581 B(  1-C ,  3-N ) :   0.7953 B(  1-C , 11-C ) :   1.0323 
B(  1-C , 12-C ) :   1.0323 B(  1-C , 27-C ) :   1.0581 B(  2-N ,  4-C ) :   1.1744 
B(  2-N ,  6-C ) :   1.3560 B(  3-N ,  5-C ) :   1.1744 B(  3-N ,  6-C ) :   1.3560 
B(  4-C ,  5-C ) :   1.6208 B(  4-C ,  7-H ) :   0.9820 B(  5-C ,  8-H ) :   0.9820 
B(  6-C ,  9-H ) :   0.9640 B( 10-C , 14-H ) :   0.9613 B( 10-C , 18-H ) :   0.9686 
B( 10-C , 22-H ) :   0.9646 B( 11-C , 15-H ) :   0.9613 B( 11-C , 19-H ) :   0.9686 
B( 11-C , 23-H ) :   0.9646 B( 12-C , 16-H ) :   0.9613 B( 12-C , 20-H ) :   0.9686 
B( 12-C , 24-H ) :   0.9646 B( 13-C , 17-H ) :   0.9613 B( 13-C , 21-H ) :   0.9686 
B( 13-C , 25-H ) :   0.9646 B( 26-C , 28-H ) :   0.9605 B( 26-C , 30-H ) :   0.9567 
B( 26-C , 33-H ) :   0.9567 B( 27-C , 29-H ) :   0.9605 B( 27-C , 31-H ) :   0.9567 
B( 27-C , 32-H ) :   0.9567 

-------
TIMINGS
-------

Total SCF time: 0 days 0 hours 9 min 39 sec 

Total time                  ....     579.193 sec
Sum of individual times     ....     578.745 sec  ( 99.9%)

Fock matrix formation       ....     569.930 sec  ( 98.4%)
  Split-RI-J                ....      24.039 sec  (  4.2% of F)
  Chain of spheres X        ....     501.081 sec  ( 87.9% of F)
  XC integration            ....      44.621 sec  (  7.8% of F)
    Basis function eval.    ....      16.106 sec  ( 36.1% of XC)
    Density eval.           ....      11.233 sec  ( 25.2% of XC)
    XC-Functional eval.     ....       5.379 sec  ( 12.1% of XC)
    XC-Potential eval.      ....      10.766 sec  ( 24.1% of XC)
Diagonalization             ....       0.187 sec  (  0.0%)
Density matrix formation    ....       0.028 sec  (  0.0%)
Population analysis         ....       0.016 sec  (  0.0%)
Initial guess               ....       1.612 sec  (  0.3%)
Orbital Transformation      ....       0.000 sec  (  0.0%)
Orbital Orthonormalization  ....       0.000 sec  (  0.0%)
DIIS solution               ....       0.070 sec  (  0.0%)
SOSCF solution              ....       0.073 sec  (  0.0%)
Grid generation             ....       6.830 sec  (  1.2%)

Maximum memory used throughout the entire SCF-calculation: 111.1 MB


-------------------------------------------------------------------------------
                          DFT DISPERSION CORRECTION                            
                                                                               
                                 DFTD4 V2.5                                    
-------------------------------------------------------------------------------
The WB97X functional is recognized
Active option DFTDOPT                   ...         5   

Starting D4
-------------------------   ----------------
Dispersion correction           -0.005587229
-------------------------   ----------------


-------------------------   --------------------
FINAL SINGLE POINT ENERGY      -540.620706119348
-------------------------   --------------------


                            ***************************************
                            *     ORCA property calculations      *
                            ***************************************

                                    ---------------------
                                    Active property flags
                                    ---------------------
   (+) Dipole Moment


------------------------------------------------------------------------------
                       ORCA ELECTRIC PROPERTIES CALCULATION
------------------------------------------------------------------------------

Dipole Moment Calculation                       ... on
Quadrupole Moment Calculation                   ... off
Polarizability Calculation                      ... off
GBWName                                         ... 5+.gbw
Electron density                                ... 5+.scfp
The origin for moment calculation is the CENTER OF MASS  = ( 0.000001, -0.000000 -0.037870)

-------------
DIPOLE MOMENT
-------------
                                X             Y             Z
Electronic contribution:      0.00002       0.00000      -4.02645
Nuclear contribution   :     -0.00002       0.00000       4.05236
                        -----------------------------------------
Total Dipole Moment    :      0.00000       0.00000       0.02592
                        -----------------------------------------
Magnitude (a.u.)       :      0.02592
Magnitude (Debye)      :      0.06588



--------------------
Rotational spectrum 
--------------------
 
Rotational constants in cm-1:     0.055426     0.014781     0.013815 
Rotational constants in MHz :  1661.634580   443.134962   414.171314 

 Dipole components along the rotational axes: 
x,y,z [a.u.] :     0.000003    -0.025917    -0.000001 
x,y,z [Debye]:     0.000007    -0.065877    -0.000002 

 

-------------------------------------------------------------------------------
                               ORCA SCF HESSIAN
-------------------------------------------------------------------------------

                   --------- SHARK INITIALIZATION DONE ---------

Hessian of the Kohn-Sham DFT energy:
Kohn-Sham wavefunction type                      ... RKS
Hartree-Fock exchange scaling                    ...    0.158
Number of operators                              ...    1
Number of atoms                                  ...   34
Basis set dimensions                             ...  287
Integral neglect threshold                       ... 2.5e-11
Integral primitive cutoff                        ... 2.5e-12

Setting up DFT Hessian calculations              ... 

HESS GRID
---------

General Integration Accuracy     IntAcc      ... 4.629
Radial Grid Type                 RadialGrid  ... OptM3 with GC (2021)
Angular Grid (max. ang.)         AngularGrid ... 5 (Lebedev-434)
Angular grid pruning method      GridPruning ... 4 (adaptive)
Weight generation scheme         WeightScheme... Becke
Basis function cutoff            BFCut       ... 1.0000e-11
Integration weight cutoff        WCut        ... 1.0000e-14
Angular grids for H and He will be reduced by one unit
Partially contracted basis set               ... off
Rotationally invariant grid construction     ... off

Total number of grid points                  ...   222257
Total number of batches                      ...     3491
[...]
     70       0.049951  -0.065595  -0.064837  -0.001365  -0.001014   0.000031
     71       0.040723  -0.052390  -0.051831  -0.000722  -0.000411   0.000117
     72      -0.090064   0.119189   0.117923   0.002415   0.001675  -0.000176
     73       0.049595  -0.065556  -0.064800  -0.001365  -0.001014   0.000031
     74       0.040438  -0.052357  -0.051800  -0.000722  -0.000411   0.000117
     75      -0.091091  -0.118735   0.118418  -0.002415   0.001675  -0.000176
     76      -0.050160  -0.065305   0.065071  -0.001365   0.001014  -0.000031
     77       0.040894   0.052158  -0.052017   0.000722  -0.000411   0.000117
     78      -0.000008   0.000006  -0.000006   0.000000  -0.000000   0.000000
     79      -0.048350   0.044702  -0.045161  -0.000037   0.000146   0.000175
     80      -0.000146   0.000214  -0.000185   0.000039   0.000034  -0.000396
     81      -0.000003   0.000003   0.000003  -0.000000  -0.000000  -0.000000
     82       0.048063   0.044868   0.044966  -0.000036  -0.000146  -0.000175
     83      -0.000144  -0.000215  -0.000184  -0.000039   0.000034  -0.000396
     84      -0.000002   0.000001  -0.000001   0.000000  -0.000000   0.000000
     85       0.436154  -0.407007   0.411247  -0.000894   0.000118  -0.003306
     86       0.126531  -0.119693   0.120906  -0.000585   0.000222   0.000043
     87       0.000000   0.000000   0.000000  -0.000000  -0.000000   0.000000
     88      -0.433559  -0.408512  -0.409477  -0.000894  -0.000118   0.003306
     89       0.125778   0.120136   0.120386   0.000585   0.000222   0.000043
     90       0.140433  -0.128382   0.130145   0.000102   0.000219  -0.004440
     91       0.069061  -0.063834   0.064582   0.000068   0.000432  -0.004140
     92      -0.064847   0.059575  -0.060374   0.000057  -0.000212   0.002387
     93       0.139574   0.128808   0.129535  -0.000102   0.000219  -0.004440
     94      -0.068634  -0.064043  -0.064277   0.000068  -0.000432   0.004140
     95      -0.064452  -0.059772  -0.060091  -0.000057  -0.000212   0.002387
     96      -0.139542  -0.128838  -0.129566   0.000102  -0.000219   0.004440
     97      -0.068620  -0.064059  -0.064293   0.000068  -0.000432   0.004140
     98      -0.064435  -0.059786  -0.060105  -0.000057  -0.000212   0.002387
     99      -0.140342   0.128307  -0.130069  -0.000102  -0.000219   0.004440
    100       0.069010  -0.063793   0.064540   0.000068   0.000432  -0.004140
    101      -0.064805   0.059540  -0.060339   0.000057  -0.000212   0.002387


-----------
IR SPECTRUM
-----------

 Mode   freq       eps      Int      T**2         TX        TY        TZ
       cm**-1   L/(mol*cm) km/mol    a.u.
----------------------------------------------------------------------------
  7:     28.31   0.000000    0.00  0.000004  (-0.001907  0.000000 -0.000000)
  8:    123.86   0.000044    0.22  0.000110  (-0.010475  0.000000  0.000000)
  9:    145.63   0.000015    0.08  0.000033  (-0.000000 -0.000000 -0.005741)
 10:    151.09   0.000000    0.00  0.000000  ( 0.000000 -0.000000 -0.000000)
 11:    239.24   0.000000    0.00  0.000000  (-0.000352  0.000000 -0.000000)
 12:    243.88   0.000000    0.00  0.000000  (-0.000000 -0.000000  0.000000)
 13:    267.48   0.000003    0.02  0.000004  (-0.000000 -0.000000  0.001985)
 14:    271.70   0.000001    0.00  0.000001  ( 0.000000 -0.000942  0.000000)
 15:    286.10   0.000021    0.10  0.000023  (-0.000000 -0.000002  0.004759)
 16:    286.54   0.000005    0.03  0.000005  (-0.000000  0.002340  0.000005)
 17:    333.97   0.000000    0.00  0.000000  ( 0.000000 -0.000000 -0.000000)
 18:    336.12   0.000005    0.02  0.000004  ( 0.002120 -0.000000 -0.000000)
 19:    345.74   0.000060    0.30  0.000054  ( 0.007369 -0.000000  0.000000)
 20:    354.69   0.000002    0.01  0.000002  ( 0.000000  0.000000 -0.001397)
 21:    363.64   0.000000    0.00  0.000000  ( 0.000000  0.000000  0.000000)
 22:    367.87   0.000000    0.00  0.000000  ( 0.000000 -0.000260 -0.000000)
 23:    406.47   0.000059    0.30  0.000045  (-0.000000 -0.006744  0.000000)
 24:    444.54   0.000210    1.06  0.000147  (-0.012137 -0.000000  0.000000)
 25:    466.28   0.000000    0.00  0.000000  (-0.000000  0.000000  0.000000)
 26:    471.51   0.000100    0.50  0.000066  ( 0.000000  0.000000 -0.008117)
 27:    520.97   0.000117    0.59  0.000070  (-0.000000  0.008385  0.000000)
 28:    580.14   0.000169    0.85  0.000091  ( 0.000000 -0.000000 -0.009534)
 29:    639.95   0.001833    9.26  0.000894  ( 0.000000  0.029896 -0.000000)
 30:    686.74   0.006971   35.23  0.003168  ( 0.056284 -0.000000  0.000000)
 31:    692.25   0.000000    0.00  0.000000  ( 0.000001 -0.000000  0.000000)
 32:    775.87   0.004722   23.86  0.001899  (-0.043579 -0.000000 -0.000000)
 33:    845.56   0.000009    0.04  0.000003  ( 0.000000  0.000000  0.001772)
 34:    849.35   0.000042    0.21  0.000015  ( 0.000000 -0.003930  0.000000)
 35:    887.89   0.002621   13.24  0.000921  ( 0.030349  0.000000  0.000000)
 36:    919.69   0.000000    0.00  0.000000  (-0.000000  0.000000 -0.000000)
 37:    950.01   0.000647    3.27  0.000213  ( 0.014580  0.000000 -0.000000)
 38:    950.17   0.000000    0.00  0.000000  (-0.000010 -0.000000  0.000000)
 39:    958.41   0.000659    3.33  0.000215  ( 0.000000  0.000001  0.014653)
 40:    958.90   0.000004    0.02  0.000001  (-0.000000  0.001173 -0.000008)
 41:    968.71   0.000000    0.00  0.000000  (-0.000002  0.000000 -0.000000)
 42:    968.82   0.000019    0.10  0.000006  (-0.002494 -0.000000 -0.000000)
 43:   1023.64   0.000629    3.18  0.000192  ( 0.000000 -0.013844  0.000000)
 44:   1039.30   0.000171    0.87  0.000051  (-0.000000  0.000000  0.007174)
 45:   1051.17   0.000033    0.17  0.000010  (-0.000000  0.000000 -0.003129)
 46:   1052.59   0.000058    0.30  0.000017  ( 0.000001  0.004161  0.000000)
 47:   1055.60   0.000000    0.00  0.000000  (-0.000001  0.000000  0.000000)
 48:   1056.43   0.000121    0.61  0.000036  ( 0.005989 -0.000000 -0.000000)
 49:   1117.31   0.003220   16.27  0.000899  (-0.000000 -0.000001  0.029991)
 50:   1143.90   0.012347   62.40  0.003368  (-0.000000  0.058039  0.000000)
 51:   1228.37   0.000590    2.98  0.000150  (-0.000000  0.000001  0.012239)
 52:   1243.87   0.051735  261.45  0.012979  ( 0.000000 -0.113927  0.000000)
 53:   1263.81   0.000404    2.04  0.000100  ( 0.000000  0.009993  0.000000)
 54:   1273.62   0.000006    0.03  0.000002  ( 0.000000  0.000000  0.001229)
 55:   1285.43   0.000000    0.00  0.000000  ( 0.000000 -0.000000 -0.000000)
 56:   1287.91   0.002045   10.33  0.000495  (-0.022258 -0.000000  0.000000)
 57:   1303.13   0.000062    0.31  0.000015  (-0.000000  0.003848  0.000000)
 58:   1357.75   0.001927    9.74  0.000443  (-0.000000 -0.000000  0.021046)
 59:   1405.26   0.000000    0.00  0.000000  (-0.000002 -0.000001 -0.000001)
 60:   1405.68   0.000141    0.71  0.000031  ( 0.000019 -0.005600  0.000016)
 61:   1405.79   0.009479   47.90  0.002104  (-0.045872 -0.000002  0.000002)
 62:   1407.10   0.010658   53.86  0.002364  (-0.000002 -0.000002 -0.048618)
 63:   1429.01   0.003315   16.75  0.000724  (-0.000000 -0.026905 -0.000001)
 64:   1429.68   0.000150    0.76  0.000033  ( 0.000000  0.000005 -0.005717)
 65:   1448.28   0.000181    0.92  0.000039  ( 0.000000 -0.006246 -0.000001)
 66:   1454.07   0.000000    0.00  0.000000  (-0.000000  0.000000  0.000000)
 67:   1454.55   0.000049    0.25  0.000011  ( 0.003245 -0.000000  0.000000)
 68:   1457.32   0.000000    0.00  0.000000  ( 0.000000  0.000000 -0.000000)
 69:   1457.69   0.000016    0.08  0.000003  ( 0.001850  0.000000  0.000000)
 70:   1461.12   0.000119    0.60  0.000025  ( 0.000000 -0.000000  0.005049)
 71:   1464.87   0.000555    2.81  0.000118  (-0.000000 -0.010876 -0.000002)
 72:   1471.10   0.002890   14.61  0.000613  ( 0.000000  0.000001 -0.024761)
 73:   1486.99   0.000000    0.00  0.000000  ( 0.000006 -0.000001  0.000000)
 74:   1487.29   0.000448    2.27  0.000094  ( 0.000004 -0.009700 -0.000002)
 75:   1487.66   0.004277   21.62  0.000897  ( 0.029954  0.000001  0.000000)
 76:   1489.97   0.002110   10.67  0.000442  (-0.000001 -0.000001  0.021024)
 77:   1496.54   0.002743   13.86  0.000572  ( 0.000000  0.023917  0.000000)
 78:   1499.13   0.000489    2.47  0.000102  (-0.000000  0.000000 -0.010087)
 79:   1639.55   0.025054  126.61  0.004769  ( 0.000000  0.069055  0.000001)
 80:   1653.67   0.002356   11.91  0.000445  (-0.000000  0.000004 -0.021085)
 81:   3071.74   0.001034    5.23  0.000105  ( 0.000000  0.010251  0.000007)
 82:   3071.93   0.001849    9.34  0.000188  ( 0.000001 -0.000006  0.013705)
 83:   3073.64   0.000000    0.00  0.000000  ( 0.000118  0.000001  0.000001)
 84:   3073.67   0.002169   10.96  0.000220  (-0.014840  0.000001  0.000000)
 85:   3077.02   0.000047    0.24  0.000005  ( 0.000001  0.002191  0.000029)
 86:   3077.05   0.000226    1.14  0.000023  ( 0.000001  0.000013 -0.004790)
 87:   3173.93   0.002087   10.55  0.000205  (-0.014326  0.000001 -0.000000)
 88:   3174.05   0.000000    0.00  0.000000  ( 0.000000 -0.000000  0.000000)
 89:   3179.82   0.000000    0.00  0.000000  ( 0.000164  0.000000  0.000004)
 90:   3179.83   0.001582    7.99  0.000155  ( 0.012460  0.000001  0.000001)
 91:   3181.42   0.000107    0.54  0.000011  (-0.000003  0.003240  0.000018)
 92:   3181.51   0.003779   19.10  0.000371  (-0.000000 -0.000003  0.019253)
 93:   3187.51   0.000000    0.00  0.000000  ( 0.000154  0.000002 -0.000010)
 94:   3187.54   0.000824    4.16  0.000081  ( 0.008980 -0.000005  0.000007)
 95:   3188.15   0.000012    0.06  0.000001  (-0.000011 -0.001090  0.000028)
 96:   3188.27   0.000858    4.34  0.000084  (-0.000007  0.000006  0.009164)
 97:   3193.32   0.002483   12.55  0.000243  ( 0.000002  0.015576 -0.000008)
 98:   3193.46   0.000108    0.54  0.000011  ( 0.000000 -0.000031 -0.003245)
 99:   3302.99   0.002467   12.47  0.000233  ( 0.000000 -0.015266  0.000000)
100:   3320.59   0.003665   18.52  0.000344  ( 0.000000 -0.000000 -0.018558)
101:   3334.36   0.003232   16.33  0.000302  (-0.000000  0.000000  0.017392)

* The epsilon (eps) is given for a Dirac delta lineshape.
** The dipole moment derivative (T) already includes vibrational overlap.

The first frequency considered to be a vibration is 7
The total number of vibrations considered is 95


--------------------------
THERMOCHEMISTRY AT 298.15K
--------------------------

Temperature         ... 298.15 K
Pressure            ... 1.00 atm
Total Mass          ... 181.30 AMU

Throughout the following assumptions are being made:
  (1) The electronic state is orbitally nondegenerate
  (2) There are no thermally accessible electronically excited states
  (3) Hindered rotations indicated by low frequency modes are not
      treated as such but are treated as vibrations and this may
      cause some error
  (4) All equations used are the standard statistical mechanics
      equations for an ideal gas
  (5) All vibrations are strictly harmonic

freq.      28.31  E(vib)   ...       0.55 
freq.     123.86  E(vib)   ...       0.43 
freq.     145.63  E(vib)   ...       0.41 
freq.     151.09  E(vib)   ...       0.40 
freq.     239.24  E(vib)   ...       0.31 
freq.     243.88  E(vib)   ...       0.31 
freq.     267.48  E(vib)   ...       0.29 
freq.     271.70  E(vib)   ...       0.29 
freq.     286.10  E(vib)   ...       0.27 
freq.     286.54  E(vib)   ...       0.27 
freq.     333.97  E(vib)   ...       0.24 
freq.     336.12  E(vib)   ...       0.24 
freq.     345.74  E(vib)   ...       0.23 
freq.     354.69  E(vib)   ...       0.22 
freq.     363.64  E(vib)   ...       0.22 
freq.     367.87  E(vib)   ...       0.21 
freq.     406.47  E(vib)   ...       0.19 
freq.     444.54  E(vib)   ...       0.17 
freq.     466.28  E(vib)   ...       0.16 
freq.     471.51  E(vib)   ...       0.15 
freq.     520.97  E(vib)   ...       0.13 
freq.     580.14  E(vib)   ...       0.11 
freq.     639.95  E(vib)   ...       0.09 
freq.     686.74  E(vib)   ...       0.07 
freq.     692.25  E(vib)   ...       0.07 
freq.     775.87  E(vib)   ...       0.05 
freq.     845.56  E(vib)   ...       0.04 
freq.     849.35  E(vib)   ...       0.04 
freq.     887.89  E(vib)   ...       0.04 
freq.     919.69  E(vib)   ...       0.03 
freq.     950.01  E(vib)   ...       0.03 
freq.     950.17  E(vib)   ...       0.03 
freq.     958.41  E(vib)   ...       0.03 
freq.     958.90  E(vib)   ...       0.03 
freq.     968.71  E(vib)   ...       0.03 
freq.     968.82  E(vib)   ...       0.03 
freq.    1023.64  E(vib)   ...       0.02 
freq.    1039.30  E(vib)   ...       0.02 
freq.    1051.17  E(vib)   ...       0.02 
freq.    1052.59  E(vib)   ...       0.02 
freq.    1055.60  E(vib)   ...       0.02 
freq.    1056.43  E(vib)   ...       0.02 
freq.    1117.31  E(vib)   ...       0.01 
freq.    1143.90  E(vib)   ...       0.01 
freq.    1228.37  E(vib)   ...       0.01 
freq.    1243.87  E(vib)   ...       0.01 
freq.    1263.81  E(vib)   ...       0.01 
freq.    1273.62  E(vib)   ...       0.01 
freq.    1285.43  E(vib)   ...       0.01 
freq.    1287.91  E(vib)   ...       0.01 
freq.    1303.13  E(vib)   ...       0.01 
freq.    1357.75  E(vib)   ...       0.01 
freq.    1405.26  E(vib)   ...       0.00 
freq.    1405.68  E(vib)   ...       0.00 
freq.    1405.79  E(vib)   ...       0.00 
freq.    1407.10  E(vib)   ...       0.00 
freq.    1429.01  E(vib)   ...       0.00 
freq.    1429.68  E(vib)   ...       0.00 
freq.    1448.28  E(vib)   ...       0.00 
freq.    1454.07  E(vib)   ...       0.00 
freq.    1454.55  E(vib)   ...       0.00 
freq.    1457.32  E(vib)   ...       0.00 
freq.    1457.69  E(vib)   ...       0.00 
freq.    1461.12  E(vib)   ...       0.00 
freq.    1464.87  E(vib)   ...       0.00 
freq.    1471.10  E(vib)   ...       0.00 
freq.    1486.99  E(vib)   ...       0.00 
freq.    1487.29  E(vib)   ...       0.00 
freq.    1487.66  E(vib)   ...       0.00 
freq.    1489.97  E(vib)   ...       0.00 
freq.    1496.54  E(vib)   ...       0.00 
freq.    1499.13  E(vib)   ...       0.00 
freq.    1639.55  E(vib)   ...       0.00 
freq.    1653.67  E(vib)   ...       0.00 
freq.    3071.74  E(vib)   ...       0.00 
freq.    3071.93  E(vib)   ...       0.00 
freq.    3073.64  E(vib)   ...       0.00 
freq.    3073.67  E(vib)   ...       0.00 
freq.    3077.02  E(vib)   ...       0.00 
freq.    3077.05  E(vib)   ...       0.00 
freq.    3173.93  E(vib)   ...       0.00 
freq.    3174.05  E(vib)   ...       0.00 
freq.    3179.82  E(vib)   ...       0.00 
freq.    3179.83  E(vib)   ...       0.00 
freq.    3181.42  E(vib)   ...       0.00 
freq.    3181.51  E(vib)   ...       0.00 
freq.    3187.51  E(vib)   ...       0.00 
freq.    3187.54  E(vib)   ...       0.00 
freq.    3188.15  E(vib)   ...       0.00 
freq.    3188.27  E(vib)   ...       0.00 
freq.    3193.32  E(vib)   ...       0.00 
freq.    3193.46  E(vib)   ...       0.00 
freq.    3302.99  E(vib)   ...       0.00 
freq.    3320.59  E(vib)   ...       0.00 
freq.    3334.36  E(vib)   ...       0.00 

------------
INNER ENERGY
------------

The inner energy is: U= E(el) + E(ZPE) + E(vib) + E(rot) + E(trans)
    E(el)   - is the total energy from the electronic structure calculation
              = E(kin-el) + E(nuc-el) + E(el-el) + E(nuc-nuc)
    E(ZPE)  - the the zero temperature vibrational energy from the frequency calculation
    E(vib)  - the the finite temperature correction to E(ZPE) due to population
              of excited vibrational states
    E(rot)  - is the rotational thermal energy
    E(trans)- is the translational thermal energy

Summary of contributions to the inner energy U:
Electronic energy                ...   -540.62070612 Eh
Zero point energy                ...      0.31182652 Eh     195.67 kcal/mol
Thermal vibrational correction   ...      0.01067782 Eh       6.70 kcal/mol
Thermal rotational correction    ...      0.00141627 Eh       0.89 kcal/mol
Thermal translational correction ...      0.00141627 Eh       0.89 kcal/mol
-----------------------------------------------------------------------
Total thermal energy                   -540.29536924 Eh


Summary of corrections to the electronic energy:
(perhaps to be used in another calculation)
Total thermal correction                  0.01351037 Eh       8.48 kcal/mol
Non-thermal (ZPE) correction              0.31182652 Eh     195.67 kcal/mol
-----------------------------------------------------------------------
Total correction                          0.32533688 Eh     204.15 kcal/mol


--------
ENTHALPY
--------

The enthalpy is H = U + kB*T
                kB is Boltzmann's constant
Total free energy                 ...   -540.29536924 Eh 
Thermal Enthalpy correction       ...      0.00094421 Eh       0.59 kcal/mol
-----------------------------------------------------------------------
Total Enthalpy                    ...   -540.29442503 Eh


Note: Rotational entropy computed according to Herzberg 
Infrared and Raman Spectra, Chapter V,1, Van Nostrand Reinhold, 1945 
Point Group:  C2v, Symmetry Number:   2  
Rotational constants in cm-1:     0.055426     0.014781     0.013815 

Vibrational entropy computed according to the QRRHO of S. Grimme
Chem.Eur.J. 2012 18 9955


-------
ENTROPY
-------

The entropy contributions are T*S = T*(S(el)+S(vib)+S(rot)+S(trans))
     S(el)   - electronic entropy
     S(vib)  - vibrational entropy
     S(rot)  - rotational entropy
     S(trans)- translational entropy
The entropies will be listed as multiplied by the temperature to get
units of energy

Electronic entropy                ...      0.00000000 Eh      0.00 kcal/mol
Vibrational entropy               ...      0.01765145 Eh     11.08 kcal/mol
Rotational entropy                ...      0.01423303 Eh      8.93 kcal/mol
Translational entropy             ...      0.01971392 Eh     12.37 kcal/mol
-----------------------------------------------------------------------
Final entropy term                ...      0.05159840 Eh     32.38 kcal/mol

In case the symmetry of your molecule has not been determined correctly
or in case you have a reason to use a different symmetry number we print 
out the resulting rotational entropy values for sn=1,12 :
 --------------------------------------------------------
|  sn= 1 | S(rot)=       0.01488748 Eh      9.34 kcal/mol|
|  sn= 2 | S(rot)=       0.01423303 Eh      8.93 kcal/mol|
|  sn= 3 | S(rot)=       0.01385019 Eh      8.69 kcal/mol|
|  sn= 4 | S(rot)=       0.01357857 Eh      8.52 kcal/mol|
|  sn= 5 | S(rot)=       0.01336788 Eh      8.39 kcal/mol|
|  sn= 6 | S(rot)=       0.01319574 Eh      8.28 kcal/mol|
|  sn= 7 | S(rot)=       0.01305019 Eh      8.19 kcal/mol|
|  sn= 8 | S(rot)=       0.01292411 Eh      8.11 kcal/mol|
|  sn= 9 | S(rot)=       0.01281290 Eh      8.04 kcal/mol|
|  sn=10 | S(rot)=       0.01271343 Eh      7.98 kcal/mol|
|  sn=11 | S(rot)=       0.01262343 Eh      7.92 kcal/mol|
|  sn=12 | S(rot)=       0.01254128 Eh      7.87 kcal/mol|
 --------------------------------------------------------


-------------------
GIBBS FREE ENERGY
-------------------

The Gibbs free energy is G = H - T*S

Total enthalpy                    ...   -540.29442503 Eh 
Total entropy correction          ...     -0.05159840 Eh    -32.38 kcal/mol
-----------------------------------------------------------------------
Final Gibbs free energy         ...   -540.34602343 Eh

For completeness - the Gibbs free energy minus the electronic energy
G-E(el)                           ...      0.27468269 Eh    172.37 kcal/mol


Timings for individual modules:

Sum of individual times         ...     3067.828 sec (=  51.130 min)
GTO integral calculation        ...        0.451 sec (=   0.008 min)   0.0 %
SCF iterations                  ...      579.230 sec (=   9.654 min)  18.9 %
Analytical frequency calculation...     2488.148 sec (=  41.469 min)  81.1 %
                             ****ORCA TERMINATED NORMALLY****
TOTAL RUN TIME: 0 days 0 hours 51 minutes 8 seconds 249 msec
