
                                 *****************
                                 * O   R   C   A *
                                 *****************

                                            #,                                       
                                            ###                                      
                                            ####                                     
                                            #####                                    
                                            ######                                   
                                           ########,                                 
                                     ,,################,,,,,                         
                               ,,#################################,,                 
                          ,,##########################################,,             
                       ,#########################################, ''#####,          
                    ,#############################################,,   '####,        
                  ,##################################################,,,,####,       
                ,###########''''           ''''###############################       
              ,#####''   ,,,,##########,,,,          '''####'''          '####       
            ,##' ,,,,###########################,,,                        '##       
           ' ,,###''''                  '''############,,,                           
         ,,##''                                '''############,,,,        ,,,,,,###''
      ,#''                                            '''#######################'''  
     '                                                          ''''####''''         
             ,#######,   #######,   ,#######,      ##                                
            ,#'     '#,  ##    ##  ,#'     '#,    #''#        ######   ,####,        
            ##       ##  ##   ,#'  ##            #'  '#       #        #'  '#        
            ##       ##  #######   ##           ,######,      #####,   #    #        
            '#,     ,#'  ##    ##  '#,     ,#' ,#      #,         ##   #,  ,#        
             '#######'   ##     ##  '#######'  #'      '#     #####' # '####'        



                  #######################################################
                  #                        -***-                        #
                  #          Department of theory and spectroscopy      #
                  #    Directorship and core code : Frank Neese         #
                  #        Max Planck Institute fuer Kohlenforschung    #
                  #                Kaiser Wilhelm Platz 1               #
                  #                 D-45470 Muelheim/Ruhr               #
                  #                      Germany                        #
                  #                                                     #
                  #                  All rights reserved                #
                  #                        -***-                        #
                  #######################################################


                         Program Version 5.0.4 -  RELEASE  -


 With contributions from (in alphabetic order):
   Daniel Aravena         : Magnetic Suceptibility
   Michael Atanasov       : Ab Initio Ligand Field Theory (pilot matlab implementation)
   Alexander A. Auer      : GIAO ZORA, VPT2 properties, NMR spectrum
   Ute Becker             : Parallelization
   Giovanni Bistoni       : ED, misc. LED, open-shell LED, HFLD
   Martin Brehm           : Molecular dynamics
   Dmytro Bykov           : SCF Hessian
   Vijay G. Chilkuri      : MRCI spin determinant printing, contributions to CSF-ICE
   Dipayan Datta          : RHF DLPNO-CCSD density
   Achintya Kumar Dutta   : EOM-CC, STEOM-CC
   Dmitry Ganyushin       : Spin-Orbit,Spin-Spin,Magnetic field MRCI
   Miquel Garcia          : C-PCM and meta-GGA Hessian, CC/C-PCM, Gaussian charge scheme
   Yang Guo               : DLPNO-NEVPT2, F12-NEVPT2, CIM, IAO-localization
   Andreas Hansen         : Spin unrestricted coupled pair/coupled cluster methods
   Benjamin Helmich-Paris : MC-RPA, TRAH-SCF, COSX integrals
   Lee Huntington         : MR-EOM, pCC
   Robert Izsak           : Overlap fitted RIJCOSX, COSX-SCS-MP3, EOM
   Marcus Kettner         : VPT2
   Christian Kollmar      : KDIIS, OOCD, Brueckner-CCSD(T), CCSD density, CASPT2, CASPT2-K
   Simone Kossmann        : Meta GGA functionals, TD-DFT gradient, OOMP2, MP2 Hessian
   Martin Krupicka        : Initial AUTO-CI
   Lucas Lang             : DCDCAS
   Marvin Lechner         : AUTO-CI (C++ implementation), FIC-MRCC
   Dagmar Lenk            : GEPOL surface, SMD
   Dimitrios Liakos       : Extrapolation schemes; Compound Job, initial MDCI parallelization
   Dimitrios Manganas     : Further ROCIS development; embedding schemes
   Dimitrios Pantazis     : SARC Basis sets
   Anastasios Papadopoulos: AUTO-CI, single reference methods and gradients
   Taras Petrenko         : DFT Hessian,TD-DFT gradient, ASA, ECA, R-Raman, ABS, FL, XAS/XES, NRVS
   Peter Pinski           : DLPNO-MP2, DLPNO-MP2 Gradient
   Christoph Reimann      : Effective Core Potentials
   Marius Retegan         : Local ZFS, SOC
   Christoph Riplinger    : Optimizer, TS searches, QM/MM, DLPNO-CCSD(T), (RO)-DLPNO pert. Triples
   Tobias Risthaus        : Range-separated hybrids, TD-DFT gradient, RPA, STAB
   Michael Roemelt        : Original ROCIS implementation
   Masaaki Saitow         : Open-shell DLPNO-CCSD energy and density
   Barbara Sandhoefer     : DKH picture change effects
   Avijit Sen             : IP-ROCIS
   Kantharuban Sivalingam : CASSCF convergence, NEVPT2, FIC-MRCI
   Bernardo de Souza      : ESD, SOC TD-DFT
   Georgi Stoychev        : AutoAux, RI-MP2 NMR, DLPNO-MP2 response
   Willem Van den Heuvel  : Paramagnetic NMR
   Boris Wezisla          : Elementary symmetry handling
   Frank Wennmohs         : Technical directorship


 We gratefully acknowledge several colleagues who have allowed us to
 interface, adapt or use parts of their codes:
   Stefan Grimme, W. Hujo, H. Kruse, P. Pracht,  : VdW corrections, initial TS optimization,
                  C. Bannwarth, S. Ehlert          DFT functionals, gCP, sTDA/sTD-DF
   Ed Valeev, F. Pavosevic, A. Kumar             : LibInt (2-el integral package), F12 methods
   Garnet Chan, S. Sharma, J. Yang, R. Olivares  : DMRG
   Ulf Ekstrom                                   : XCFun DFT Library
   Mihaly Kallay                                 : mrcc  (arbitrary order and MRCC methods)
   Jiri Pittner, Ondrej Demel                    : Mk-CCSD
   Frank Weinhold                                : gennbo (NPA and NBO analysis)
   Christopher J. Cramer and Donald G. Truhlar   : smd solvation model
   Lars Goerigk                                  : TD-DFT with DH, B97 family of functionals
   V. Asgeirsson, H. Jonsson                     : NEB implementation
   FAccTs GmbH                                   : IRC, NEB, NEB-TS, DLPNO-Multilevel, CI-OPT
                                                   MM, QMMM, 2- and 3-layer-ONIOM, Crystal-QMMM,
                                                   LR-CPCM, SF, NACMEs, symmetry and pop. for TD-DFT,
                                                   nearIR, NL-DFT gradient (VV10), updates on ESD,
                                                   ML-optimized integration grids
   S Lehtola, MJT Oliveira, MAL Marques          : LibXC Library
   Liviu Ungur et al                             : ANISO software


 Your calculation uses the libint2 library for the computation of 2-el integrals
 For citations please refer to: http://libint.valeyev.net

 Your ORCA version has been built with support for libXC version: 5.1.0
 For citations please refer to: https://tddft.org/programs/libxc/

 This ORCA versions uses:
   CBLAS   interface :  Fast vector & matrix operations
   LAPACKE interface :  Fast linear algebra routines
   SCALAPACK package :  Parallel linear algebra routines
   Shared memory     :  Shared parallel matrices
   BLAS/LAPACK       :  OpenBLAS 0.3.15  USE64BITINT DYNAMIC_ARCH NO_AFFINITY SkylakeX SINGLE_THREADED
        Core in use  :  SkylakeX
   Copyright (c) 2011-2014, The OpenBLAS Project


Your calculation utilizes the atom-pairwise dispersion correction
based on tight binding partial charges (D4)
Cite in your paper:
E.Caldeweyher, C.Bannwarth, S.Grimme, J.Chem.Phys., (2017), 147, 034112.
E.Caldeweyher, S.Ehlert, A.Hansen, H.Neugebauer, S.Grimme, J.Chem.Phys., (2018), in progress.
   

XCFun DFT library Copyright 2009-2010 Ulf Ekstrom and contributors.
See http://admol.org/xcfun for more information.
This is free software; see the source code for copying conditions.
There is ABSOLUTELY NO WARRANTY; not even for MERCHANTABILITY or FITNESS FOR A PARTICULAR PURPOSE.
For details see the documentation.
Scientific users of this library should cite U. Ekstrom, L. Visscher, R. Bast, A. J. Thorvaldsen and K. Ruud;
J.Chem.Theor.Comp. 2010, DOI: 10.1021/ct100117s
XCFun Version 0.99 

================================================================================

----- Orbital basis set information -----
Your calculation utilizes the basis: def2-SVP
   F. Weigend and R. Ahlrichs, Phys. Chem. Chem. Phys. 7, 3297 (2005).

----- AuxJ basis set information -----
Your calculation utilizes the auxiliary basis: def2/J
   F. Weigend, Phys. Chem. Chem. Phys. 8, 1057 (2006).

================================================================================
                                        WARNINGS
                       Please study these warnings very carefully!
================================================================================


INFO   : the flag for use of the SHARK integral package has been found!

================================================================================
                                       INPUT FILE
================================================================================
NAME = DFT_water_outs/5-gasSP.inp
|  1> ! SP wB97X D4 def2-SVP def2/J defgrid2 
|  2> %maxcore 3000
|  3> %PAL NPROCS 4 END
|  4> * xyz 0 1
|  5> C 1.5797 -0.07 0.4057
|  6> C 0.8176 -1.0868 0.871
|  7> N 0.7311 0.7511 -0.3237
|  8> N -0.471 -0.8494 0.4134
|  9> C -0.547 0.2866 -0.3306
| 10> H 2.6419 0.1275 0.539
| 11> H 1.0911 -1.9442 1.4832
| 12> C 1.2047 1.9935 -0.9806
| 13> C -1.6014 -1.7584 0.7211
| 14> C 0.0626 2.6526 -1.7486
| 15> C -1.3033 -3.133 0.1129
| 16> C -1.7447 -1.8642 2.2433
| 17> C 2.3303 1.6347 -1.9563
| 18> H -0.3267 1.988 -2.5333
| 19> H -0.3822 -3.5686 0.5301
| 20> H -0.8447 -2.2954 2.7078
| 21> H 1.9697 0.9189 -2.7116
| 22> H -0.7702 2.916 -1.0822
| 23> H -1.1859 -3.0526 -0.9792
| 24> H -1.9219 -0.8702 2.6833
| 25> H 3.1932 1.1884 -1.4388
| 26> H 0.4429 3.5712 -2.2208
| 27> H -2.1315 -3.8265 0.3241
| 28> H -2.5971 -2.513 2.4956
| 29> H 2.6807 2.5404 -2.474
| 30> C 1.716 2.952 0.1007
| 31> C -2.8953 -1.2086 0.1279
| 32> H 2.0693 3.8878 -0.3587
| 33> H -3.7152 -1.901 0.3721
| 34> H 0.9101 3.1949 0.8109
| 35> H -2.8257 -1.1139 -0.9648
| 36> H -3.135 -0.2178 0.5394
| 37> H 2.5549 2.5138 0.6632
| 38> **                         ****END OF INPUT****
================================================================================

                       ****************************
                       * Single Point Calculation *
                       ****************************

---------------------------------
CARTESIAN COORDINATES (ANGSTROEM)
---------------------------------
  C      1.579700   -0.070000    0.405700
  C      0.817600   -1.086800    0.871000
  N      0.731100    0.751100   -0.323700
  N     -0.471000   -0.849400    0.413400
  C     -0.547000    0.286600   -0.330600
  H      2.641900    0.127500    0.539000
  H      1.091100   -1.944200    1.483200
  C      1.204700    1.993500   -0.980600
  C     -1.601400   -1.758400    0.721100
  C      0.062600    2.652600   -1.748600
  C     -1.303300   -3.133000    0.112900
  C     -1.744700   -1.864200    2.243300
  C      2.330300    1.634700   -1.956300
  H     -0.326700    1.988000   -2.533300
  H     -0.382200   -3.568600    0.530100
  H     -0.844700   -2.295400    2.707800
  H      1.969700    0.918900   -2.711600
  H     -0.770200    2.916000   -1.082200
  H     -1.185900   -3.052600   -0.979200
  H     -1.921900   -0.870200    2.683300
  H      3.193200    1.188400   -1.438800
  H      0.442900    3.571200   -2.220800
  H     -2.131500   -3.826500    0.324100
  H     -2.597100   -2.513000    2.495600
  H      2.680700    2.540400   -2.474000
  C      1.716000    2.952000    0.100700
  C     -2.895300   -1.208600    0.127900
  H      2.069300    3.887800   -0.358700
  H     -3.715200   -1.901000    0.372100
  H      0.910100    3.194900    0.810900
  H     -2.825700   -1.113900   -0.964800
  H     -3.135000   -0.217800    0.539400
  H      2.554900    2.513800    0.663200

----------------------------
CARTESIAN COORDINATES (A.U.)
----------------------------
  NO LB      ZA    FRAG     MASS         X           Y           Z
   0 C     6.0000    0    12.011    2.985200   -0.132281    0.766662
   1 C     6.0000    0    12.011    1.545040   -2.053754    1.645951
   2 N     7.0000    0    14.007    1.381579    1.419373   -0.611704
   3 N     7.0000    0    14.007   -0.890061   -1.605133    0.781213
   4 C     6.0000    0    12.011   -1.033680    0.541596   -0.624743
   5 H     1.0000    0     1.008    4.992467    0.240940    1.018562
   6 H     1.0000    0     1.008    2.061880   -3.674006    2.802842
   7 C     6.0000    0    12.011    2.276553    3.767169   -1.853065
   8 C     6.0000    0    12.011   -3.026207   -3.322894    1.362682
   9 C     6.0000    0    12.011    0.118297    5.012688   -3.304375
  10 C     6.0000    0    12.011   -2.462880   -5.920512    0.213350
  11 C     6.0000    0    12.011   -3.297005   -3.522827    4.239223
  12 C     6.0000    0    12.011    4.403629    3.089135   -3.696871
  13 H     1.0000    0     1.008   -0.617374    3.756776   -4.787243
  14 H     1.0000    0     1.008   -0.722253   -6.743677    1.001744
  15 H     1.0000    0     1.008   -1.596252   -4.337677    5.117000
  16 H     1.0000    0     1.008    3.722194    1.736469   -5.124181
  17 H     1.0000    0     1.008   -1.455467    5.510441   -2.045062
  18 H     1.0000    0     1.008   -2.241026   -5.768578   -1.850420
  19 H     1.0000    0     1.008   -3.631865   -1.644440    5.070702
  20 H     1.0000    0     1.008    6.034273    2.245751   -2.718938
  21 H     1.0000    0     1.008    0.836960    6.748590   -4.196704
  22 H     1.0000    0     1.008   -4.027951   -7.231037    0.612460
  23 H     1.0000    0     1.008   -4.907808   -4.748882    4.716001
  24 H     1.0000    0     1.008    5.065789    4.800660   -4.675182
  25 C     6.0000    0    12.011    3.242770    5.578472    0.190295
  26 C     6.0000    0    12.011   -5.471324   -2.283923    0.241696
  27 H     1.0000    0     1.008    3.910410    7.346877   -0.677845
  28 H     1.0000    0     1.008   -7.020711   -3.592369    0.703167
  29 H     1.0000    0     1.008    1.719840    6.037486    1.532379
  30 H     1.0000    0     1.008   -5.339799   -2.104966   -1.823208
  31 H     1.0000    0     1.008   -5.924291   -0.411582    1.019318
  32 H     1.0000    0     1.008    4.828061    4.750394    1.253266

--------------------------------
INTERNAL COORDINATES (ANGSTROEM)
--------------------------------
 C      0   0   0     0.000000000000     0.00000000     0.00000000
 C      1   0   0     1.353212008519     0.00000000     0.00000000
 N      1   2   0     1.387930664695   106.31360417     0.00000000
 N      2   1   3     1.387892820069   106.31934512   359.81177098
 C      3   1   2     1.359907154919   112.03843527     0.19453130
 H      1   2   3     1.088597253349   130.07131558   179.83826596
 H      2   1   3     1.088451124305   130.07425358   179.91704626
 C      3   1   2     1.483028094811   122.21776185   179.16372302
 C      4   2   1     1.482823135104   122.31108100   179.94680559
 C      8   3   1     1.525984672269   110.22777988   177.83237762
 C      9   4   2     1.532415090633   108.61661813   297.82259515
 C      9   4   2     1.532586496743   108.64488206    58.08482584
 C      8   3   1     1.532221684352   108.69229525    58.06536012
 H     10   8   3     1.099546151828   111.29030443   299.37475078
 H     11   9   4     1.101012447704   111.54565944    60.51618891
 H     12   9   4     1.100769589878   111.69784270   298.03469052
 H     13   8   3     1.101308353732   110.38864344    59.02827126
 H     10   8   3     1.098646603781   111.44516170    60.02822786
 H     11   9   4     1.101330708734   110.41487807   299.93018181
 H     12   9   4     1.101379062812   110.45869235    58.83252875
 H     13   8   3     1.100720832001   111.80578584   298.27579084
 H     10   8   3     1.100648395265   108.52957278   179.80201396
 H     11   9   4     1.100664767311   110.03868183   180.24687704
 H     12   9   4     1.100537364200   109.92657311   178.42513082
 H     13   8   3     1.100493498391   109.92229711   178.62508070
 C      8   3   1     1.532762091781   108.53752374   297.81116925
 C      9   4   2     1.525891047880   110.17431089   177.88226437
 H     26   8   3     1.100722894284   110.13809042   180.33888376
 H     27   9   4     1.100585030790   108.58833888   180.06278273
 H     26   8   3     1.101298896758   110.41095305   300.08525844
 H     27   9   4     1.099002065512   111.33826861    60.32016294
 H     27   9   4     1.099305680873   111.35363576   299.77965483
 H     26   8   3     1.100989872796   111.45092574    60.63900585

---------------------------
INTERNAL COORDINATES (A.U.)
---------------------------
 C      0   0   0     0.000000000000     0.00000000     0.00000000
 C      1   0   0     2.557200097234     0.00000000     0.00000000
 N      1   2   0     2.622808849144   106.31360417     0.00000000
 N      2   1   3     2.622737333167   106.31934512   359.81177098
 C      3   1   2     2.569852090357   112.03843527     0.19453130
 H      1   2   3     2.057150678969   130.07131558   179.83826596
 H      2   1   3     2.056874535094   130.07425358   179.91704626
 C      3   1   2     2.802516948105   122.21776185   179.16372302
 C      4   2   1     2.802129630389   122.31108100   179.94680559
 C      8   3   1     2.883693115150   110.22777988   177.83237762
 C      9   4   2     2.895844844785   108.61661813   297.82259515
 C      9   4   2     2.896168755391   108.64488206    58.08482584
 C      8   3   1     2.895479359882   108.69229525    58.06536012
 H     10   8   3     2.077841098562   111.29030443   299.37475078
 H     11   9   4     2.080611996200   111.54565944    60.51618891
 H     12   9   4     2.080153061418   111.69784270   298.03469052
 H     13   8   3     2.081171177553   110.38864344    59.02827126
 H     10   8   3     2.076141199109   111.44516170    60.02822786
 H     11   9   4     2.081213422384   110.41487807   299.93018181
 H     12   9   4     2.081304798349   110.45869235    58.83252875
 H     13   8   3     2.080060922383   111.80578584   298.27579084
 H     10   8   3     2.079924036791   108.52957278   179.80201396
 H     11   9   4     2.079954975474   110.03868183   180.24687704
 H     12   9   4     2.079714218485   109.92657311   178.42513082
 H     13   8   3     2.079631324119   109.92229711   178.62508070
 C      8   3   1     2.896500581922   108.53752374   297.81116925
 C      9   4   2     2.883516190695   110.17431089   177.88226437
 H     26   8   3     2.080064819533   110.13809042   180.33888376
 H     27   9   4     2.079804295287   108.58833888   180.06278273
 H     26   8   3     2.081153306462   110.41095305   300.08525844
 H     27   9   4     2.076812924432   111.33826861    60.32016294
 H     27   9   4     2.077386674314   111.35363576   299.77965483
 H     26   8   3     2.080569335806   111.45092574    60.63900585

---------------------
BASIS SET INFORMATION
---------------------
There are 3 groups of distinct atoms

 Group   1 Type C   : 7s4p1d contracted to 3s2p1d pattern {511/31/1}
 Group   2 Type N   : 7s4p1d contracted to 3s2p1d pattern {511/31/1}
 Group   3 Type H   : 4s1p contracted to 2s1p pattern {31/1}

Atom   0C    basis set group =>   1
Atom   1C    basis set group =>   1
Atom   2N    basis set group =>   2
Atom   3N    basis set group =>   2
Atom   4C    basis set group =>   1
Atom   5H    basis set group =>   3
Atom   6H    basis set group =>   3
Atom   7C    basis set group =>   1
Atom   8C    basis set group =>   1
Atom   9C    basis set group =>   1
Atom  10C    basis set group =>   1
Atom  11C    basis set group =>   1
Atom  12C    basis set group =>   1
Atom  13H    basis set group =>   3
Atom  14H    basis set group =>   3
Atom  15H    basis set group =>   3
Atom  16H    basis set group =>   3
Atom  17H    basis set group =>   3
Atom  18H    basis set group =>   3
Atom  19H    basis set group =>   3
Atom  20H    basis set group =>   3
Atom  21H    basis set group =>   3
Atom  22H    basis set group =>   3
Atom  23H    basis set group =>   3
Atom  24H    basis set group =>   3
Atom  25C    basis set group =>   1
Atom  26C    basis set group =>   1
Atom  27H    basis set group =>   3
Atom  28H    basis set group =>   3
Atom  29H    basis set group =>   3
Atom  30H    basis set group =>   3
Atom  31H    basis set group =>   3
Atom  32H    basis set group =>   3
---------------------------------
AUXILIARY/J BASIS SET INFORMATION
---------------------------------
There are 3 groups of distinct atoms

 Group   1 Type C   : 12s5p4d2f1g contracted to 6s4p3d1f1g pattern {711111/2111/211/2/1}
 Group   2 Type N   : 12s5p4d2f1g contracted to 6s4p3d1f1g pattern {711111/2111/211/2/1}
 Group   3 Type H   : 5s2p1d contracted to 3s1p1d pattern {311/2/1}

Atom   0C    basis set group =>   1
Atom   1C    basis set group =>   1
Atom   2N    basis set group =>   2
Atom   3N    basis set group =>   2
Atom   4C    basis set group =>   1
Atom   5H    basis set group =>   3
Atom   6H    basis set group =>   3
Atom   7C    basis set group =>   1
Atom   8C    basis set group =>   1
Atom   9C    basis set group =>   1
Atom  10C    basis set group =>   1
Atom  11C    basis set group =>   1
Atom  12C    basis set group =>   1
Atom  13H    basis set group =>   3
Atom  14H    basis set group =>   3
Atom  15H    basis set group =>   3
Atom  16H    basis set group =>   3
Atom  17H    basis set group =>   3
Atom  18H    basis set group =>   3
Atom  19H    basis set group =>   3
Atom  20H    basis set group =>   3
Atom  21H    basis set group =>   3
Atom  22H    basis set group =>   3
Atom  23H    basis set group =>   3
Atom  24H    basis set group =>   3
Atom  25C    basis set group =>   1
Atom  26C    basis set group =>   1
Atom  27H    basis set group =>   3
Atom  28H    basis set group =>   3
Atom  29H    basis set group =>   3
Atom  30H    basis set group =>   3
Atom  31H    basis set group =>   3
Atom  32H    basis set group =>   3


           ************************************************************
           *        Program running with 4 parallel MPI-processes     *
           *              working on a common directory               *
           ************************************************************
------------------------------------------------------------------------------
                           ORCA GTO INTEGRAL CALCULATION
                           -- RI-GTO INTEGRALS CHOSEN --
------------------------------------------------------------------------------
------------------------------------------------------------------------------
                   ___                                                        
                  /   \      - P O W E R E D   B Y -                         
                 /     \                                                     
                 |  |  |   _    _      __       _____    __    __             
                 |  |  |  | |  | |    /  \     |  _  \  |  |  /  |          
                  \  \/   | |  | |   /    \    | | | |  |  | /  /          
                 / \  \   | |__| |  /  /\  \   | |_| |  |  |/  /          
                |  |  |   |  __  | /  /__\  \  |    /   |      \           
                |  |  |   | |  | | |   __   |  |    \   |  |\   \          
                \     /   | |  | | |  |  |  |  | |\  \  |  | \   \       
                 \___/    |_|  |_| |__|  |__|  |_| \__\ |__|  \__/        
                                                                              
                      - O R C A' S   B I G   F R I E N D -                    
                                      &                                       
                       - I N T E G R A L  F E E D E R -                       
                                                                              
 v1 FN, 2020, v2 2021                                                         
------------------------------------------------------------------------------


Reading SHARK input file DFT_water_outs/5-gasSP.SHARKINP.tmp ... ok
----------------------
SHARK INTEGRAL PACKAGE
----------------------

Number of atoms                             ...     33
Number of basis functions                   ...    282
Number of shells                            ...    138
Maximum angular momentum                    ...      2
Integral batch strategy                     ... SHARK/LIBINT Hybrid
RI-J (if used) integral strategy            ... SPLIT-RIJ (Revised 2003 algorithm where possible)
Printlevel                                  ...      1
Contraction scheme used                     ... SEGMENTED contraction
Coulomb Range Separation                    ... NOT USED
Exchange Range Separation                   ... Long Range
   Mu parameter                             ...  0.300000
   Scaling (regular/separated)              ...  0.157706  0.842294
Finite Nucleus Model                        ... NOT USED
Auxiliary Coulomb fitting basis             ... AVAILABLE
   # of basis functions in Aux-J            ...    857
   # of shells in Aux-J                     ...    295
   Maximum angular momentum in Aux-J        ...      4
Auxiliary J/K fitting basis                 ... NOT available
Auxiliary Correlation fitting basis         ... NOT available
Auxiliary 'external' fitting basis          ... NOT available
Integral threshold                          ...     1.000000e-10
Primitive cut-off                           ...     1.000000e-11
Primitive pair pre-selection threshold      ...     1.000000e-11

Calculating pre-screening integrals         ... done (  0.0 sec) Dimension = 138
Organizing shell pair data                  ... done (  0.0 sec)
Shell pair information
Total number of shell pairs                 ...      9591
Shell pairs after pre-screening             ...      8080
Total number of primitive shell pairs       ...     33125
Primitive shell pairs kept                  ...     19386
          la=0 lb=0:   2768 shell pairs
          la=1 lb=0:   3047 shell pairs
          la=1 lb=1:    874 shell pairs
          la=2 lb=0:    849 shell pairs
          la=2 lb=1:    467 shell pairs
          la=2 lb=2:     75 shell pairs

Calculating one electron integrals          ... done (  0.0 sec)
Calculating RI/J V-Matrix + Cholesky decomp.... done (  0.0 sec)
Calculating Nuclear repulsion               ... done (  0.0 sec) ENN=    853.823812759579 Eh

SHARK setup successfully completed in   0.3 seconds

Maximum memory used throughout the entire GTOINT-calculation: 16.3 MB


           ************************************************************
           *        Program running with 4 parallel MPI-processes     *
           *              working on a common directory               *
           ************************************************************
-------------------------------------------------------------------------------
                                 ORCA SCF
-------------------------------------------------------------------------------

------------
SCF SETTINGS
------------
Hamiltonian:
 Density Functional     Method          .... DFT(GTOs)
 Exchange Functional    Exchange        .... WB97X
 Correlation Functional Correlation     .... WB97X
 Gradients option       PostSCFGGA      .... off
 Hybrid DFT is turned on
   Fraction HF Exchange ScalHFX         ....  0.157706
   Scaling of DF-GGA-X  ScalDFX         ....  0.000000
   Scaling of DF-GGA-C  ScalDFC         ....  1.000000
   Scaling of DF-LDA-C  ScalLDAC        ....  1.000000
   Perturbative correction              ....  0.000000
   Density functional embedding theory  .... OFF
 Long-range corrected/Screened/Range-Separated Hybrid DFT is turned on
   Amount of maximum screened exact exchange              ....  0.842294
   Range separation parameter mu (erf(mu*r12)/r12)        ....  0.300000
 RI-approximation to the Coulomb term is turned on
   Number of AuxJ basis functions       .... 857
   RIJ-COSX (HFX calculated with COS-X)).... on


General Settings:
 Integral files         IntName         .... DFT_water_outs/5-gasSP
 Hartree-Fock type      HFTyp           .... RHF
 Total Charge           Charge          ....    0
 Multiplicity           Mult            ....    1
 Number of Electrons    NEL             ....  100
 Basis Dimension        Dim             ....  282
 Nuclear Repulsion      ENuc            ....    853.8238127596 Eh

Convergence Acceleration:
 DIIS                   CNVDIIS         .... on
   Start iteration      DIISMaxIt       ....    12
   Startup error        DIISStart       ....  0.200000
   # of expansion vecs  DIISMaxEq       ....     5
   Bias factor          DIISBfac        ....   1.050
   Max. coefficient     DIISMaxC        ....  10.000
 Trust-Rad. Augm. Hess. CNVTRAH         .... auto
   Auto Start mean grad. ratio tolernc. ....  1.125000
   Auto Start start iteration           ....    20
   Auto Start num. interpolation iter.  ....    10
   Max. Number of Micro iterations      ....    16
   Max. Number of Macro iterations      .... Maxiter - #DIIS iter
   Number of Davidson start vectors     ....     2
   Converg. threshold I  (grad. norm)   ....   5.000e-05
   Converg. threshold II (energy diff.) ....   1.000e-06
   Grad. Scal. Fac. for Micro threshold ....   0.100
   Minimum threshold for Micro iter.    ....   0.010
   NR start threshold (gradient norm)   ....   0.001
   Initial trust radius                 ....   0.400
   Minimum AH scaling param. (alpha)    ....   1.000
   Maximum AH scaling param. (alpha)    .... 1000.000
   Orbital update algorithm             .... Taylor
   White noise on init. David. guess    .... on
   Maximum white noise                  ....   0.010
   Quad. conv. algorithm                .... NR
 SOSCF                  CNVSOSCF        .... on
   Start iteration      SOSCFMaxIt      ....   150
   Startup grad/error   SOSCFStart      ....  0.003300
 Level Shifting         CNVShift        .... on
   Level shift para.    LevelShift      ....    0.2500
   Turn off err/grad.   ShiftErr        ....    0.0010
 Zerner damping         CNVZerner       .... off
 Static damping         CNVDamp         .... on
   Fraction old density DampFac         ....    0.7000
   Max. Damping (<1)    DampMax         ....    0.9800
   Min. Damping (>=0)   DampMin         ....    0.0000
   Turn off err/grad.   DampErr         ....    0.1000
 Fernandez-Rico         CNVRico         .... off

SCF Procedure:
 Maximum # iterations   MaxIter         ....   125
 SCF integral mode      SCFMode         .... Direct
   Integral package                     .... SHARK and LIBINT hybrid scheme
 Reset frequency        DirectResetFreq ....    20
 Integral Threshold     Thresh          ....  1.000e-10 Eh
 Primitive CutOff       TCut            ....  1.000e-11 Eh

Convergence Tolerance:
 Convergence Check Mode ConvCheckMode   .... Total+1el-Energy
 Convergence forced     ConvForced      .... 0
 Energy Change          TolE            ....  1.000e-06 Eh
 1-El. energy change                    ....  1.000e-03 Eh
 Orbital Gradient       TolG            ....  5.000e-05
 Orbital Rotation angle TolX            ....  5.000e-05
 DIIS Error             TolErr          ....  1.000e-06


Diagonalization of the overlap matrix:
Smallest eigenvalue                        ... 1.014e-03
Time for diagonalization                   ...    0.013 sec
Threshold for overlap eigenvalues          ... 1.000e-08
Number of eigenvalues below threshold      ... 0
Time for construction of square roots      ...    0.007 sec
Total time needed                          ...    0.021 sec

Time for model grid setup =    0.246 sec

------------------------------
INITIAL GUESS: MODEL POTENTIAL
------------------------------
Loading Hartree-Fock densities                     ... done
Calculating cut-offs                               ... done
Initializing the effective Hamiltonian             ... done
Setting up the integral package (SHARK)            ... done
Starting the Coulomb interaction                   ... done (   0.2 sec)
Reading the grid                                   ... done
Mapping shells                                     ... done
Starting the XC term evaluation                    ... done (   0.2 sec)
  promolecular density results
     # of electrons  =     99.992892438
     EX              =    -75.258800809
     EC              =     -3.311998646
     EX+EC           =    -78.570799455
Transforming the Hamiltonian                       ... done (   0.0 sec)
Diagonalizing the Hamiltonian                      ... done (   0.0 sec)
Back transforming the eigenvectors                 ... done (   0.0 sec)
Now organizing SCF variables                       ... done
                      ------------------
                      INITIAL GUESS DONE (   0.7 sec)
                      ------------------
-------------------
DFT GRID GENERATION
-------------------

General Integration Accuracy     IntAcc      ... 4.388
Radial Grid Type                 RadialGrid  ... OptM3 with GC (2021)
Angular Grid (max. ang.)         AngularGrid ... 4 (Lebedev-302)
Angular grid pruning method      GridPruning ... 4 (adaptive)
Weight generation scheme         WeightScheme... Becke
Basis function cutoff            BFCut       ... 1.0000e-10
Integration weight cutoff        WCut        ... 1.0000e-14
Angular grids for H and He will be reduced by one unit
Partially contracted basis set               ... off
Rotationally invariant grid construction     ... off

Total number of grid points                  ...   141255
Total number of batches                      ...     2225
Average number of points per batch           ...       63
Average number of grid points per atom       ...     4280
Time for grid setup =    1.066 sec

--------------------
COSX GRID GENERATION
--------------------

GRIDX 1
-------
General Integration Accuracy     IntAcc      ... 3.816
Radial Grid Type                 RadialGrid  ... OptM3 with GC (2021)
Angular Grid (max. ang.)         AngularGrid ... 1 (Lebedev-50)
Angular grid pruning method      GridPruning ... 4 (adaptive)
Weight generation scheme         WeightScheme... Becke
Basis function cutoff            BFCut       ... 1.0000e-10
Integration weight cutoff        WCut        ... 1.0000e-14
Angular grids for H and He will be reduced by one unit
Partially contracted basis set               ... on
Rotationally invariant grid construction     ... off

Total number of grid points                  ...    18062
Total number of batches                      ...      300
Average number of points per batch           ...       60
Average number of grid points per atom       ...      547
UseSFitting                                  ... on

GRIDX 2
-------
General Integration Accuracy     IntAcc      ... 4.020
Radial Grid Type                 RadialGrid  ... OptM3 with GC (2021)
Angular Grid (max. ang.)         AngularGrid ... 2 (Lebedev-110)
Angular grid pruning method      GridPruning ... 4 (adaptive)
Weight generation scheme         WeightScheme... Becke
Basis function cutoff            BFCut       ... 1.0000e-10
Integration weight cutoff        WCut        ... 1.0000e-14
Angular grids for H and He will be reduced by one unit
Partially contracted basis set               ... on
Rotationally invariant grid construction     ... off

Total number of grid points                  ...    37565
Total number of batches                      ...      606
Average number of points per batch           ...       61
Average number of grid points per atom       ...     1138
UseSFitting                                  ... on

GRIDX 3
-------
General Integration Accuracy     IntAcc      ... 4.338
Radial Grid Type                 RadialGrid  ... OptM3 with GC (2021)
Angular Grid (max. ang.)         AngularGrid ... 3 (Lebedev-194)
Angular grid pruning method      GridPruning ... 4 (adaptive)
Weight generation scheme         WeightScheme... Becke
Basis function cutoff            BFCut       ... 1.0000e-10
Integration weight cutoff        WCut        ... 1.0000e-14
Angular grids for H and He will be reduced by one unit
Partially contracted basis set               ... on
Rotationally invariant grid construction     ... off

Total number of grid points                  ...    81672
Total number of batches                      ...     1293
Average number of points per batch           ...       63
Average number of grid points per atom       ...     2475
UseSFitting                                  ... on

Time for X-Grid setup             =    1.219 sec

--------------
SCF ITERATIONS
--------------
ITER       Energy         Delta-E        Max-DP      RMS-DP      [F,P]     Damp
               ***  Starting incremental Fock matrix formation  ***
  0   -539.8343392621   0.000000000000 0.07987406  0.00138122  0.1544482 0.7000
  1   -539.9659519559  -0.131612693790 0.07373450  0.00104895  0.0944978 0.7000
                               ***Turning on DIIS***
  2   -540.0372642007  -0.071312244774 0.17850431  0.00217736  0.0501830 0.0000
  3   -540.1536225116  -0.116358310957 0.03338486  0.00066452  0.0331223 0.0000
  4   -540.1694597149  -0.015837203247 0.00496437  0.00014596  0.0048571 0.0000
                      *** Initiating the SOSCF procedure ***
                           *** Shutting down DIIS ***
                      *** Re-Reading the Fockian *** 
                      *** Removing any level shift *** 
ITER      Energy       Delta-E        Grad      Rot      Max-DP    RMS-DP
  5   -540.16988889  -0.0004291787  0.001312  0.001312  0.004735  0.000060
               *** Restarting incremental Fock matrix formation ***
  6   -540.16987605   0.0000128453  0.000639  0.001387  0.002322  0.000035
  7   -540.16988498  -0.0000089366  0.000421  0.001280  0.001823  0.000023
  8   -540.16988835  -0.0000033632  0.000060  0.000057  0.000637  0.000007
  9   -540.16988856  -0.0000002151  0.000018  0.000031  0.000322  0.000003
                 **** Energy Check signals convergence ****
              ***Rediagonalizing the Fockian in SOSCF/NRSCF***

               *****************************************************
               *                     SUCCESS                       *
               *           SCF CONVERGED AFTER  10 CYCLES          *
               *****************************************************

Old exchange energy                            =    -25.309237075 Eh
New exchange energy                            =    -25.309220675 Eh
Exchange energy change after final integration =      0.000016399 Eh
Total energy after final integration           =   -540.169872271 Eh
Final COS-X integration done in                =    22.581 sec

----------------
TOTAL SCF ENERGY
----------------

Total Energy       :         -540.16987227 Eh          -14698.76950 eV

Components:
Nuclear Repulsion  :          853.82381276 Eh           23233.72713 eV
Electronic Energy  :        -1393.99368503 Eh          -37932.49662 eV
One Electron Energy:        -2422.67290528 Eh          -65924.28128 eV
Two Electron Energy:         1028.67922025 Eh           27991.78466 eV
Max COSX asymmetry :            0.00000223 Eh               0.00006 eV

Virial components:
Potential Energy   :        -1073.63023821 Eh          -29214.96404 eV
Kinetic Energy     :          533.46036594 Eh           14516.19455 eV
Virial Ratio       :            2.01257733


DFT components:
N(Alpha)           :       49.999793432813 electrons
N(Beta)            :       49.999793432813 electrons
N(Total)           :       99.999586865626 electrons
E(XC)              :      -55.446343185840 Eh       
DFET-embed. en.    :        0.000000000000 Eh       

---------------
SCF CONVERGENCE
---------------

  Last Energy change         ...   -1.0714e-07  Tolerance :   1.0000e-06
  Last MAX-Density change    ...    3.1086e-15  Tolerance :   1.0000e-05
  Last RMS-Density change    ...    4.2102e-17  Tolerance :   1.0000e-06
  Last Orbital Gradient      ...    1.0263e-05  Tolerance :   5.0000e-05
  Last Orbital Rotation      ...    2.6091e-05  Tolerance :   5.0000e-05

             **** THE GBW FILE WAS UPDATED (DFT_water_outs/5-gasSP.gbw) ****
             **** DENSITY DFT_water_outs/5-gasSP.scfp WAS UPDATED ****
             **** ENERGY FILE WAS UPDATED (DFT_water_outs/5-gasSP.en.tmp) ****
             **** THE GBW FILE WAS UPDATED (DFT_water_outs/5-gasSP.gbw) ****
             **** DENSITY DFT_water_outs/5-gasSP.scfp WAS UPDATED ****
----------------
ORBITAL ENERGIES
----------------

  NO   OCC          E(Eh)            E(eV) 
   0   2.0000     -14.436924      -392.8487 
   1   2.0000     -14.436896      -392.8479 
   2   2.0000     -10.315128      -280.6889 
   3   2.0000     -10.315071      -280.6873 
   4   2.0000     -10.289997      -280.0051 
   5   2.0000     -10.289401      -279.9888 
   6   2.0000     -10.266041      -279.3532 
   7   2.0000     -10.265988      -279.3517 
   8   2.0000     -10.265451      -279.3371 
   9   2.0000     -10.265417      -279.3362 
  10   2.0000     -10.259895      -279.1859 
  11   2.0000     -10.252981      -278.9978 
  12   2.0000     -10.252884      -278.9952 
  13   2.0000      -1.136644       -30.9297 
  14   2.0000      -1.036417       -28.2023 
  15   2.0000      -0.949606       -25.8401 
  16   2.0000      -0.898156       -24.4401 
  17   2.0000      -0.860171       -23.4064 
  18   2.0000      -0.812257       -22.1026 
  19   2.0000      -0.811864       -22.0920 
  20   2.0000      -0.807396       -21.9704 
  21   2.0000      -0.799924       -21.7670 
  22   2.0000      -0.754108       -20.5203 
  23   2.0000      -0.713981       -19.4284 
  24   2.0000      -0.655099       -17.8262 
  25   2.0000      -0.645416       -17.5627 
  26   2.0000      -0.615620       -16.7519 
  27   2.0000      -0.578745       -15.7485 
  28   2.0000      -0.576594       -15.6899 
  29   2.0000      -0.558172       -15.1886 
  30   2.0000      -0.555817       -15.1246 
  31   2.0000      -0.549803       -14.9609 
  32   2.0000      -0.535263       -14.5653 
  33   2.0000      -0.526984       -14.3400 
  34   2.0000      -0.526675       -14.3316 
  35   2.0000      -0.505047       -13.7430 
  36   2.0000      -0.491375       -13.3710 
  37   2.0000      -0.482908       -13.1406 
  38   2.0000      -0.478957       -13.0331 
  39   2.0000      -0.470666       -12.8075 
  40   2.0000      -0.466387       -12.6910 
  41   2.0000      -0.465636       -12.6706 
  42   2.0000      -0.461216       -12.5503 
  43   2.0000      -0.445580       -12.1248 
  44   2.0000      -0.436964       -11.8904 
  45   2.0000      -0.433676       -11.8009 
  46   2.0000      -0.429237       -11.6801 
  47   2.0000      -0.361972        -9.8497 
  48   2.0000      -0.316815        -8.6210 
  49   2.0000      -0.295566        -8.0428 
  50   0.0000       0.125779         3.4226 
  51   0.0000       0.135054         3.6750 
  52   0.0000       0.141753         3.8573 
  53   0.0000       0.144437         3.9303 
  54   0.0000       0.170696         4.6449 
  55   0.0000       0.172213         4.6861 
  56   0.0000       0.184663         5.0249 
  57   0.0000       0.201224         5.4756 
  58   0.0000       0.201988         5.4964 
  59   0.0000       0.208985         5.6868 
  60   0.0000       0.213887         5.8202 
  61   0.0000       0.220521         6.0007 
  62   0.0000       0.226203         6.1553 
  63   0.0000       0.227553         6.1920 
  64   0.0000       0.246169         6.6986 
  65   0.0000       0.256026         6.9668 
  66   0.0000       0.258991         7.0475 
  67   0.0000       0.263258         7.1636 
  68   0.0000       0.270460         7.3596 
  69   0.0000       0.276599         7.5266 
  70   0.0000       0.281724         7.6661 
  71   0.0000       0.282470         7.6864 
  72   0.0000       0.287120         7.8129 
  73   0.0000       0.291406         7.9296 
  74   0.0000       0.297410         8.0929 
  75   0.0000       0.308278         8.3887 
  76   0.0000       0.311069         8.4646 
  77   0.0000       0.330926         9.0049 
  78   0.0000       0.345512         9.4019 
  79   0.0000       0.348899         9.4940 
  80   0.0000       0.358184         9.7467 
  81   0.0000       0.363304         9.8860 
  82   0.0000       0.383773        10.4430 
  83   0.0000       0.433019        11.7831 
  84   0.0000       0.447727        12.1833 
  85   0.0000       0.484115        13.1734 
  86   0.0000       0.493395        13.4260 
  87   0.0000       0.494347        13.4519 
  88   0.0000       0.504792        13.7361 
  89   0.0000       0.517603        14.0847 
  90   0.0000       0.526827        14.3357 
  91   0.0000       0.530175        14.4268 
  92   0.0000       0.554898        15.0995 
  93   0.0000       0.564216        15.3531 
  94   0.0000       0.576399        15.6846 
  95   0.0000       0.619088        16.8462 
  96   0.0000       0.624136        16.9836 
  97   0.0000       0.637446        17.3458 
  98   0.0000       0.649067        17.6620 
  99   0.0000       0.662159        18.0183 
 100   0.0000       0.665238        18.1021 
 101   0.0000       0.673590        18.3293 
 102   0.0000       0.678172        18.4540 
 103   0.0000       0.683162        18.5898 
 104   0.0000       0.714843        19.4519 
 105   0.0000       0.716764        19.5041 
 106   0.0000       0.733568        19.9614 
 107   0.0000       0.733804        19.9678 
 108   0.0000       0.748255        20.3611 
 109   0.0000       0.748378        20.3644 
 110   0.0000       0.750809        20.4306 
 111   0.0000       0.756726        20.5916 
 112   0.0000       0.757171        20.6037 
 113   0.0000       0.762841        20.7579 
 114   0.0000       0.765466        20.8294 
 115   0.0000       0.782876        21.3031 
 116   0.0000       0.786399        21.3990 
 117   0.0000       0.787409        21.4265 
 118   0.0000       0.797732        21.7074 
 119   0.0000       0.798799        21.7364 
 120   0.0000       0.801573        21.8119 
 121   0.0000       0.806949        21.9582 
 122   0.0000       0.812057        22.0972 
 123   0.0000       0.817018        22.2322 
 124   0.0000       0.825071        22.4513 
 125   0.0000       0.827359        22.5136 
 126   0.0000       0.834052        22.6957 
 127   0.0000       0.836667        22.7669 
 128   0.0000       0.842116        22.9151 
 129   0.0000       0.848566        23.0907 
 130   0.0000       0.851751        23.1773 
 131   0.0000       0.853886        23.2354 
 132   0.0000       0.857589        23.3362 
 133   0.0000       0.860122        23.4051 
 134   0.0000       0.869663        23.6647 
 135   0.0000       0.873821        23.7779 
 136   0.0000       0.899591        24.4791 
 137   0.0000       0.920685        25.0531 
 138   0.0000       0.948669        25.8146 
 139   0.0000       1.025194        27.8970 
 140   0.0000       1.056916        28.7601 
 141   0.0000       1.060729        28.8639 
 142   0.0000       1.069384        29.0994 
 143   0.0000       1.084848        29.5202 
 144   0.0000       1.098570        29.8936 
 145   0.0000       1.105297        30.0767 
 146   0.0000       1.119304        30.4578 
 147   0.0000       1.132893        30.8276 
 148   0.0000       1.189588        32.3703 
 149   0.0000       1.219329        33.1796 
 150   0.0000       1.230912        33.4948 
 151   0.0000       1.252034        34.0696 
 152   0.0000       1.277160        34.7533 
 153   0.0000       1.288691        35.0671 
 154   0.0000       1.324026        36.0286 
 155   0.0000       1.344303        36.5803 
 156   0.0000       1.352494        36.8032 
 157   0.0000       1.379957        37.5505 
 158   0.0000       1.381955        37.6049 
 159   0.0000       1.395916        37.9848 
 160   0.0000       1.425894        38.8005 
 161   0.0000       1.433750        39.0143 
 162   0.0000       1.446637        39.3650 
 163   0.0000       1.474349        40.1191 
 164   0.0000       1.494811        40.6759 
 165   0.0000       1.598039        43.4848 
 166   0.0000       1.607190        43.7339 
 167   0.0000       1.636041        44.5189 
 168   0.0000       1.644996        44.7626 
 169   0.0000       1.648437        44.8562 
 170   0.0000       1.652611        44.9698 
 171   0.0000       1.661923        45.2232 
 172   0.0000       1.662955        45.2513 
 173   0.0000       1.663261        45.2596 
 174   0.0000       1.668015        45.3890 
 175   0.0000       1.684508        45.8378 
 176   0.0000       1.684727        45.8437 
 177   0.0000       1.715647        46.6851 
 178   0.0000       1.765488        48.0414 
 179   0.0000       1.777981        48.3813 
 180   0.0000       1.823001        49.6064 
 181   0.0000       1.832583        49.8671 
 182   0.0000       1.837576        50.0030 
 183   0.0000       1.849210        50.3196 
 184   0.0000       1.859187        50.5911 
 185   0.0000       1.863099        50.6975 
 186   0.0000       1.870495        50.8988 
 187   0.0000       1.876845        51.0715 
 188   0.0000       1.890378        51.4398 
 189   0.0000       1.903649        51.8009 
 190   0.0000       1.912579        52.0439 
 191   0.0000       1.922200        52.3057 
 192   0.0000       1.933374        52.6098 
 193   0.0000       1.942669        52.8627 
 194   0.0000       1.944516        52.9130 
 195   0.0000       1.949674        53.0533 
 196   0.0000       1.950633        53.0794 
 197   0.0000       1.954093        53.1736 
 198   0.0000       1.962793        53.4103 
 199   0.0000       1.963905        53.4406 
 200   0.0000       1.966445        53.5097 
 201   0.0000       1.968662        53.5700 
 202   0.0000       1.986530        54.0562 
 203   0.0000       1.997663        54.3592 
 204   0.0000       2.009138        54.6714 
 205   0.0000       2.013976        54.8031 
 206   0.0000       2.027498        55.1710 
 207   0.0000       2.035175        55.3799 
 208   0.0000       2.046299        55.6826 
 209   0.0000       2.048408        55.7400 
 210   0.0000       2.076667        56.5090 
 211   0.0000       2.084944        56.7342 
 212   0.0000       2.099248        57.1234 
 213   0.0000       2.120848        57.7112 
 214   0.0000       2.122144        57.7465 
 215   0.0000       2.125973        57.8507 
 216   0.0000       2.129285        57.9408 
 217   0.0000       2.175541        59.1995 
 218   0.0000       2.215154        60.2774 
 219   0.0000       2.250226        61.2318 
 220   0.0000       2.273436        61.8633 
 221   0.0000       2.274907        61.9034 
 222   0.0000       2.278176        61.9923 
 223   0.0000       2.296461        62.4899 
 224   0.0000       2.301423        62.6249 
 225   0.0000       2.311123        62.8889 
 226   0.0000       2.319538        63.1178 
 227   0.0000       2.340417        63.6860 
 228   0.0000       2.360342        64.2282 
 229   0.0000       2.369456        64.4762 
 230   0.0000       2.463509        67.0355 
 231   0.0000       2.465692        67.0949 
 232   0.0000       2.475545        67.3630 
 233   0.0000       2.500769        68.0494 
 234   0.0000       2.503559        68.1253 
 235   0.0000       2.507703        68.2381 
 236   0.0000       2.517925        68.5162 
 237   0.0000       2.527660        68.7811 
 238   0.0000       2.535841        69.0038 
 239   0.0000       2.552886        69.4676 
 240   0.0000       2.560627        69.6782 
 241   0.0000       2.582809        70.2818 
 242   0.0000       2.616850        71.2081 
 243   0.0000       2.629060        71.5404 
 244   0.0000       2.632398        71.6312 
 245   0.0000       2.660494        72.3957 
 246   0.0000       2.676014        72.8180 
 247   0.0000       2.683161        73.0125 
 248   0.0000       2.725924        74.1762 
 249   0.0000       2.730001        74.2871 
 250   0.0000       2.745979        74.7219 
 251   0.0000       2.757442        75.0338 
 252   0.0000       2.805356        76.3376 
 253   0.0000       2.806267        76.3624 
 254   0.0000       2.826685        76.9180 
 255   0.0000       2.842561        77.3500 
 256   0.0000       2.842856        77.3581 
 257   0.0000       2.892736        78.7154 
 258   0.0000       2.965166        80.6863 
 259   0.0000       2.970557        80.8330 
 260   0.0000       2.978207        81.0411 
 261   0.0000       2.979445        81.0748 
 262   0.0000       2.992621        81.4334 
 263   0.0000       3.003319        81.7245 
 264   0.0000       3.008554        81.8669 
 265   0.0000       3.020662        82.1964 
 266   0.0000       3.025322        82.3232 
 267   0.0000       3.056957        83.1840 
 268   0.0000       3.060486        83.2800 
 269   0.0000       3.061642        83.3115 
 270   0.0000       3.069033        83.5126 
 271   0.0000       3.074881        83.6718 
 272   0.0000       3.103542        84.4517 
 273   0.0000       3.111792        84.6762 
 274   0.0000       3.131908        85.2235 
 275   0.0000       3.179422        86.5165 
 276   0.0000       3.199506        87.0630 
 277   0.0000       3.201751        87.1241 
 278   0.0000       3.312679        90.1426 
 279   0.0000       3.466361        94.3245 
 280   0.0000       3.470538        94.4381 
 281   0.0000       3.643690        99.1498 

                    ********************************
                    * MULLIKEN POPULATION ANALYSIS *
                    ********************************

-----------------------
MULLIKEN ATOMIC CHARGES
-----------------------
   0 C :    0.035338
   1 C :    0.035090
   2 N :   -0.207804
   3 N :   -0.207554
   4 C :   -0.122796
   5 H :    0.026106
   6 H :    0.025909
   7 C :   -0.210486
   8 C :   -0.211197
   9 C :    0.081032
  10 C :    0.052564
  11 C :    0.049056
  12 C :    0.048311
  13 H :    0.033070
  14 H :    0.014681
  15 H :    0.014589
  16 H :    0.037539
  17 H :    0.037025
  18 H :    0.037576
  19 H :    0.037590
  20 H :    0.014732
  21 H :    0.012154
  22 H :    0.024333
  23 H :    0.024903
  24 H :    0.025039
  25 C :    0.053198
  26 C :    0.081334
  27 H :    0.024352
  28 H :    0.012242
  29 H :    0.037432
  30 H :    0.036456
  31 H :    0.033700
  32 H :    0.014486
Sum of atomic charges:   -0.0000000

--------------------------------
MULLIKEN REDUCED ORBITAL CHARGES
--------------------------------
  0 C s       :     3.129440  s :     3.129440
      pz      :     1.000654  p :     2.787739
      px      :     0.855746
      py      :     0.931340
      dz2     :     0.009063  d :     0.047482
      dxz     :     0.008353
      dyz     :     0.007244
      dx2y2   :     0.010455
      dxy     :     0.012368
  1 C s       :     3.129696  s :     3.129696
      pz      :     1.010368  p :     2.787730
      px      :     0.830972
      py      :     0.946390
      dz2     :     0.004932  d :     0.047483
      dxz     :     0.012465
      dyz     :     0.005839
      dx2y2   :     0.013155
      dxy     :     0.011092
  2 N s       :     3.392708  s :     3.392708
      pz      :     1.397497  p :     3.783981
      px      :     1.141723
      py      :     1.244761
      dz2     :     0.003892  d :     0.031116
      dxz     :     0.006625
      dyz     :     0.004447
      dx2y2   :     0.007055
      dxy     :     0.009097
  3 N s       :     3.392513  s :     3.392513
      pz      :     1.397378  p :     3.783931
      px      :     1.136610
      py      :     1.249942
      dz2     :     0.004715  d :     0.031109
      dxz     :     0.006187
      dyz     :     0.003542
      dx2y2   :     0.007396
      dxy     :     0.009269
  4 C s       :     3.630934  s :     3.630934
      pz      :     0.751981  p :     2.426363
      px      :     0.947944
      py      :     0.726438
      dz2     :     0.010969  d :     0.065498
      dxz     :     0.009989
      dyz     :     0.012984
      dx2y2   :     0.020421
      dxy     :     0.011135
  5 H s       :     0.949767  s :     0.949767
      pz      :     0.004776  p :     0.024127
      px      :     0.015581
      py      :     0.003769
  6 H s       :     0.949966  s :     0.949966
      pz      :     0.008924  p :     0.024124
      px      :     0.003349
      py      :     0.011851
  7 C s       :     3.214590  s :     3.214590
      pz      :     0.993361  p :     2.932033
      px      :     1.050672
      py      :     0.888000
      dz2     :     0.009252  d :     0.063863
      dxz     :     0.014024
      dyz     :     0.016111
      dx2y2   :     0.012717
      dxy     :     0.011759
  8 C s       :     3.214883  s :     3.214883
      pz      :     1.021997  p :     2.932429
      px      :     0.946385
      py      :     0.964047
      dz2     :     0.015124  d :     0.063886
      dxz     :     0.010705
      dyz     :     0.010444
      dx2y2   :     0.011037
      dxy     :     0.016575
  9 C s       :     2.966329  s :     2.966329
      pz      :     0.996854  p :     2.926355
      px      :     0.961684
      py      :     0.967817
      dz2     :     0.002066  d :     0.026284
      dxz     :     0.007990
      dyz     :     0.006612
      dx2y2   :     0.004038
      dxy     :     0.005578
 10 C s       :     2.991287  s :     2.991287
      pz      :     1.003829  p :     2.929945
      px      :     0.989767
      py      :     0.936348
      dz2     :     0.008151  d :     0.026205
      dxz     :     0.002554
      dyz     :     0.003863
      dx2y2   :     0.004082
      dxy     :     0.007555
 11 C s       :     2.992571  s :     2.992571
      pz      :     0.931552  p :     2.932177
      px      :     0.990194
      py      :     1.010430
      dz2     :     0.007033  d :     0.026196
      dxz     :     0.004655
      dyz     :     0.005091
      dx2y2   :     0.003758
      dxy     :     0.005659
 12 C s       :     2.993026  s :     2.993026
      pz      :     0.971594  p :     2.932460
      px      :     0.961770
      py      :     0.999096
      dz2     :     0.002277  d :     0.026203
      dxz     :     0.007223
      dyz     :     0.007337
      dx2y2   :     0.004470
      dxy     :     0.004896
 13 H s       :     0.943325  s :     0.943325
      pz      :     0.009424  p :     0.023606
      px      :     0.005634
      py      :     0.008548
 14 H s       :     0.961770  s :     0.961770
      pz      :     0.005930  p :     0.023549
      px      :     0.011969
      py      :     0.005650
 15 H s       :     0.961812  s :     0.961812
      pz      :     0.005645  p :     0.023599
      px      :     0.011547
      py      :     0.006407
 16 H s       :     0.939223  s :     0.939223
      pz      :     0.008969  p :     0.023237
      px      :     0.005119
      py      :     0.009149
 17 H s       :     0.939263  s :     0.939263
      pz      :     0.008147  p :     0.023712
      px      :     0.010569
      py      :     0.004997
 18 H s       :     0.939176  s :     0.939176
      pz      :     0.014746  p :     0.023248
      px      :     0.004792
      py      :     0.003710
 19 H s       :     0.939181  s :     0.939181
      pz      :     0.005074  p :     0.023229
      px      :     0.004911
      py      :     0.013244
 20 H s       :     0.961658  s :     0.961658
      pz      :     0.006369  p :     0.023610
      px      :     0.010628
      py      :     0.006614
 21 H s       :     0.964304  s :     0.964304
      pz      :     0.006605  p :     0.023541
      px      :     0.005207
      py      :     0.011729
 22 H s       :     0.952092  s :     0.952092
      pz      :     0.004979  p :     0.023575
      px      :     0.010475
      py      :     0.008121
 23 H s       :     0.951510  s :     0.951510
      pz      :     0.004287  p :     0.023587
      px      :     0.010978
      py      :     0.008322
 24 H s       :     0.951369  s :     0.951369
      pz      :     0.006754  p :     0.023592
      px      :     0.005348
      py      :     0.011491
 25 C s       :     2.991140  s :     2.991140
      pz      :     0.971898  p :     2.929473
      px      :     0.998914
      py      :     0.958661
      dz2     :     0.001892  d :     0.026189
      dxz     :     0.008609
      dyz     :     0.006719
      dx2y2   :     0.004419
      dxy     :     0.004549
 26 C s       :     2.965959  s :     2.965959
      pz      :     1.015005  p :     2.926420
      px      :     0.927293
      py      :     0.984121
      dz2     :     0.008012  d :     0.026287
      dxz     :     0.003561
      dyz     :     0.003133
      dx2y2   :     0.004439
      dxy     :     0.007141
 27 H s       :     0.952078  s :     0.952078
      pz      :     0.005854  p :     0.023570
      px      :     0.005813
      py      :     0.011904
 28 H s       :     0.964225  s :     0.964225
      pz      :     0.005203  p :     0.023532
      px      :     0.009890
      py      :     0.008440
 29 H s       :     0.939316  s :     0.939316
      pz      :     0.008483  p :     0.023252
      px      :     0.010138
      py      :     0.004631
 30 H s       :     0.939853  s :     0.939853
      pz      :     0.014994  p :     0.023691
      px      :     0.003875
      py      :     0.004822
 31 H s       :     0.942669  s :     0.942669
      pz      :     0.005688  p :     0.023630
      px      :     0.004259
      py      :     0.013683
 32 H s       :     0.961957  s :     0.961957
      pz      :     0.007080  p :     0.023558
      px      :     0.010572
      py      :     0.005906


                     *******************************
                     * LOEWDIN POPULATION ANALYSIS *
                     *******************************

----------------------
LOEWDIN ATOMIC CHARGES
----------------------
   0 C :   -0.036193
   1 C :   -0.036159
   2 N :    0.028662
   3 N :    0.028722
   4 C :   -0.249419
   5 H :    0.024174
   6 H :    0.024137
   7 C :    0.007016
   8 C :    0.006904
   9 C :   -0.042209
  10 C :   -0.048996
  11 C :   -0.049160
  12 C :   -0.049172
  13 H :    0.030657
  14 H :    0.020330
  15 H :    0.019943
  16 H :    0.030998
  17 H :    0.031256
  18 H :    0.031104
  19 H :    0.031021
  20 H :    0.019934
  21 H :    0.021876
  22 H :    0.027441
  23 H :    0.027860
  24 H :    0.027929
  25 C :   -0.048913
  26 C :   -0.042292
  27 H :    0.027366
  28 H :    0.021813
  29 H :    0.031092
  30 H :    0.031254
  31 H :    0.030711
  32 H :    0.020315

-------------------------------
LOEWDIN REDUCED ORBITAL CHARGES
-------------------------------
  0 C s       :     2.856970  s :     2.856970
      pz      :     1.028290  p :     3.060606
      px      :     1.015351
      py      :     1.016965
      dz2     :     0.019941  d :     0.118617
      dxz     :     0.019653
      dyz     :     0.017799
      dx2y2   :     0.027064
      dxy     :     0.034161
  1 C s       :     2.856929  s :     2.856929
      pz      :     1.051825  p :     3.060600
      px      :     0.946383
      py      :     1.062392
      dz2     :     0.009937  d :     0.118630
      dxz     :     0.029692
      dyz     :     0.013891
      dx2y2   :     0.034836
      dxy     :     0.030274
  2 N s       :     3.069838  s :     3.069838
      pz      :     1.357107  p :     3.827865
      px      :     1.229045
      py      :     1.241713
      dz2     :     0.008007  d :     0.073635
      dxz     :     0.014909
      dyz     :     0.009461
      dx2y2   :     0.018420
      dxy     :     0.022839
  3 N s       :     3.069806  s :     3.069806
      pz      :     1.374486  p :     3.827843
      px      :     1.173108
      py      :     1.280249
      dz2     :     0.009212  d :     0.073629
      dxz     :     0.014135
      dyz     :     0.008619
      dx2y2   :     0.019350
      dxy     :     0.022315
  4 C s       :     3.199474  s :     3.199474
      pz      :     0.862987  p :     2.907789
      px      :     1.164409
      py      :     0.880393
      dz2     :     0.022058  d :     0.142156
      dxz     :     0.017709
      dyz     :     0.030769
      dx2y2   :     0.046378
      dxy     :     0.025242
  5 H s       :     0.904768  s :     0.904768
      pz      :     0.015412  p :     0.071058
      px      :     0.042879
      py      :     0.012766
  6 H s       :     0.904795  s :     0.904795
      pz      :     0.025705  p :     0.071068
      px      :     0.012637
      py      :     0.032726
  7 C s       :     2.842743  s :     2.842743
      pz      :     1.023382  p :     3.007824
      px      :     1.046766
      py      :     0.937677
      dz2     :     0.017166  d :     0.142417
      dxz     :     0.033628
      dyz     :     0.037909
      dx2y2   :     0.027706
      dxy     :     0.026008
  8 C s       :     2.842692  s :     2.842692
      pz      :     1.047491  p :     3.007939
      px      :     0.967414
      py      :     0.993034
      dz2     :     0.035839  d :     0.142466
      dxz     :     0.022158
      dyz     :     0.021713
      dx2y2   :     0.025230
      dxy     :     0.037525
  9 C s       :     2.836855  s :     2.836855
      pz      :     1.053300  p :     3.134496
      px      :     1.031058
      py      :     1.050138
      dz2     :     0.004896  d :     0.070858
      dxz     :     0.022042
      dyz     :     0.017764
      dx2y2   :     0.010906
      dxy     :     0.015251
 10 C s       :     2.842270  s :     2.842270
      pz      :     1.057969  p :     3.136330
      px      :     1.057885
      py      :     1.020476
      dz2     :     0.021425  d :     0.070396
      dxz     :     0.006715
      dyz     :     0.010599
      dx2y2   :     0.011739
      dxy     :     0.019918
 11 C s       :     2.842115  s :     2.842115
      pz      :     1.010515  p :     3.136648
      px      :     1.059565
      py      :     1.066569
      dz2     :     0.020632  d :     0.070396
      dxz     :     0.011912
      dyz     :     0.012820
      dx2y2   :     0.010093
      dxy     :     0.014940
 12 C s       :     2.841991  s :     2.841991
      pz      :     1.041909  p :     3.136748
      px      :     1.032976
      py      :     1.061863
      dz2     :     0.005420  d :     0.070433
      dxz     :     0.020469
      dyz     :     0.019565
      dx2y2   :     0.012012
      dxy     :     0.012967
 13 H s       :     0.903534  s :     0.903534
      pz      :     0.026349  p :     0.065809
      px      :     0.016135
      py      :     0.023325
 14 H s       :     0.914493  s :     0.914493
      pz      :     0.016036  p :     0.065177
      px      :     0.031744
      py      :     0.017397
 15 H s       :     0.914775  s :     0.914775
      pz      :     0.018075  p :     0.065282
      px      :     0.030596
      py      :     0.016611
 16 H s       :     0.903887  s :     0.903887
      pz      :     0.026002  p :     0.065114
      px      :     0.014845
      py      :     0.024267
 17 H s       :     0.902387  s :     0.902387
      pz      :     0.023116  p :     0.066357
      px      :     0.029885
      py      :     0.013356
 18 H s       :     0.903802  s :     0.903802
      pz      :     0.040684  p :     0.065094
      px      :     0.012252
      py      :     0.012158
 19 H s       :     0.903880  s :     0.903880
      pz      :     0.017030  p :     0.065099
      px      :     0.012704
      py      :     0.035366
 20 H s       :     0.914767  s :     0.914767
      pz      :     0.018153  p :     0.065299
      px      :     0.030051
      py      :     0.017095
 21 H s       :     0.913386  s :     0.913386
      pz      :     0.017740  p :     0.064738
      px      :     0.015562
      py      :     0.031436
 22 H s       :     0.907658  s :     0.907658
      pz      :     0.013271  p :     0.064901
      px      :     0.027711
      py      :     0.023919
 23 H s       :     0.907214  s :     0.907214
      pz      :     0.014055  p :     0.064926
      px      :     0.028980
      py      :     0.021891
 24 H s       :     0.907140  s :     0.907140
      pz      :     0.018875  p :     0.064932
      px      :     0.015370
      py      :     0.030686
 25 C s       :     2.842365  s :     2.842365
      pz      :     1.036732  p :     3.136183
      px      :     1.057430
      py      :     1.042021
      dz2     :     0.004807  d :     0.070366
      dxz     :     0.022893
      dyz     :     0.019030
      dx2y2   :     0.011596
      dxy     :     0.012040
 26 C s       :     2.836866  s :     2.836866
      pz      :     1.063244  p :     3.134560
      px      :     1.014753
      py      :     1.056562
      dz2     :     0.021279  d :     0.070866
      dxz     :     0.009704
      dyz     :     0.008087
      dx2y2   :     0.012450
      dxy     :     0.019346
 27 H s       :     0.907742  s :     0.907742
      pz      :     0.016731  p :     0.064892
      px      :     0.015275
      py      :     0.032886
 28 H s       :     0.913440  s :     0.913440
      pz      :     0.014009  p :     0.064748
      px      :     0.027744
      py      :     0.022995
 29 H s       :     0.903809  s :     0.903809
      pz      :     0.024411  p :     0.065100
      px      :     0.027151
      py      :     0.013538
 30 H s       :     0.902508  s :     0.902508
      pz      :     0.041591  p :     0.066238
      px      :     0.012332
      py      :     0.012315
 31 H s       :     0.903354  s :     0.903354
      pz      :     0.015681  p :     0.065935
      px      :     0.013275
      py      :     0.036979
 32 H s       :     0.914496  s :     0.914496
      pz      :     0.020125  p :     0.065189
      px      :     0.028493
      py      :     0.016571


                      *****************************
                      * MAYER POPULATION ANALYSIS *
                      *****************************

  NA   - Mulliken gross atomic population
  ZA   - Total nuclear charge
  QA   - Mulliken gross atomic charge
  VA   - Mayer's total valence
  BVA  - Mayer's bonded valence
  FA   - Mayer's free valence

  ATOM       NA         ZA         QA         VA         BVA        FA
  0 C      5.9647     6.0000     0.0353     3.8719     3.8719     0.0000
  1 C      5.9649     6.0000     0.0351     3.8722     3.8722    -0.0000
  2 N      7.2078     7.0000    -0.2078     3.2597     3.2597    -0.0000
  3 N      7.2076     7.0000    -0.2076     3.2598     3.2598     0.0000
  4 C      6.1228     6.0000    -0.1228     2.7146     2.7146     0.0000
  5 H      0.9739     1.0000     0.0261     1.0004     1.0004     0.0000
  6 H      0.9741     1.0000     0.0259     1.0005     1.0005    -0.0000
  7 C      6.2105     6.0000    -0.2105     4.1765     4.1765    -0.0000
  8 C      6.2112     6.0000    -0.2112     4.1774     4.1774    -0.0000
  9 C      5.9190     6.0000     0.0810     3.9289     3.9289     0.0000
 10 C      5.9474     6.0000     0.0526     3.8969     3.8969     0.0000
 11 C      5.9509     6.0000     0.0491     3.8995     3.8995     0.0000
 12 C      5.9517     6.0000     0.0483     3.8998     3.8998    -0.0000
 13 H      0.9669     1.0000     0.0331     1.0089     1.0089     0.0000
 14 H      0.9853     1.0000     0.0147     1.0008     1.0008     0.0000
 15 H      0.9854     1.0000     0.0146     0.9999     0.9999     0.0000
 16 H      0.9625     1.0000     0.0375     0.9991     0.9991     0.0000
 17 H      0.9630     1.0000     0.0370     1.0112     1.0112     0.0000
 18 H      0.9624     1.0000     0.0376     0.9998     0.9998     0.0000
 19 H      0.9624     1.0000     0.0376     0.9992     0.9992     0.0000
 20 H      0.9853     1.0000     0.0147     0.9999     0.9999    -0.0000
 21 H      0.9878     1.0000     0.0122     0.9903     0.9903    -0.0000
 22 H      0.9757     1.0000     0.0243     0.9970     0.9970     0.0000
 23 H      0.9751     1.0000     0.0249     0.9972     0.9972     0.0000
 24 H      0.9750     1.0000     0.0250     0.9973     0.9973    -0.0000
 25 C      5.9468     6.0000     0.0532     3.8968     3.8968    -0.0000
 26 C      5.9187     6.0000     0.0813     3.9289     3.9289    -0.0000
 27 H      0.9756     1.0000     0.0244     0.9969     0.9969    -0.0000
 28 H      0.9878     1.0000     0.0122     0.9902     0.9902     0.0000
 29 H      0.9626     1.0000     0.0374     0.9999     0.9999    -0.0000
 30 H      0.9635     1.0000     0.0365     1.0108     1.0108    -0.0000
 31 H      0.9663     1.0000     0.0337     1.0093     1.0093    -0.0000
 32 H      0.9855     1.0000     0.0145     1.0009     1.0009    -0.0000

  Mayer bond orders larger than 0.100000
B(  0-C ,  1-C ) :   1.6545 B(  0-C ,  2-N ) :   1.1150 B(  0-C ,  5-H ) :   0.9835 
B(  1-C ,  3-N ) :   1.1152 B(  1-C ,  6-H ) :   0.9836 B(  2-N ,  4-C ) :   1.2356 
B(  2-N ,  7-C ) :   0.8800 B(  3-N ,  4-C ) :   1.2357 B(  3-N ,  8-C ) :   0.8800 
B(  7-C ,  9-C ) :   1.0637 B(  7-C , 12-C ) :   1.0402 B(  7-C , 25-C ) :   1.0403 
B(  8-C , 10-C ) :   1.0403 B(  8-C , 11-C ) :   1.0405 B(  8-C , 26-C ) :   1.0640 
B(  9-C , 13-H ) :   0.9563 B(  9-C , 17-H ) :   0.9549 B(  9-C , 21-H ) :   0.9635 
B( 10-C , 14-H ) :   0.9622 B( 10-C , 18-H ) :   0.9675 B( 10-C , 22-H ) :   0.9713 
B( 11-C , 15-H ) :   0.9626 B( 11-C , 19-H ) :   0.9676 B( 11-C , 23-H ) :   0.9710 
B( 12-C , 16-H ) :   0.9676 B( 12-C , 20-H ) :   0.9627 B( 12-C , 24-H ) :   0.9711 
B( 25-C , 27-H ) :   0.9713 B( 25-C , 29-H ) :   0.9675 B( 25-C , 32-H ) :   0.9622 
B( 26-C , 28-H ) :   0.9634 B( 26-C , 30-H ) :   0.9549 B( 26-C , 31-H ) :   0.9558 


-------
TIMINGS
-------

Total SCF time: 0 days 0 hours 1 min 50 sec 

Total time                  ....     110.686 sec
Sum of individual times     ....     109.996 sec  ( 99.4%)

Fock matrix formation       ....     106.756 sec  ( 96.4%)
  Split-RI-J                ....       4.625 sec  (  4.3% of F)
  Chain of spheres X        ....      93.716 sec  ( 87.8% of F)
  XC integration            ....       8.257 sec  (  7.7% of F)
    Basis function eval.    ....       2.645 sec  ( 32.0% of XC)
    Density eval.           ....       1.872 sec  ( 22.7% of XC)
    XC-Functional eval.     ....       1.368 sec  ( 16.6% of XC)
    XC-Potential eval.      ....       1.700 sec  ( 20.6% of XC)
Diagonalization             ....       0.119 sec  (  0.1%)
Density matrix formation    ....       0.013 sec  (  0.0%)
Population analysis         ....       0.021 sec  (  0.0%)
Initial guess               ....       0.405 sec  (  0.4%)
Orbital Transformation      ....       0.000 sec  (  0.0%)
Orbital Orthonormalization  ....       0.000 sec  (  0.0%)
DIIS solution               ....       0.065 sec  (  0.1%)
SOSCF solution              ....       0.087 sec  (  0.1%)
Grid generation             ....       2.531 sec  (  2.3%)

Maximum memory used throughout the entire SCF-calculation: 69.4 MB


-------------------------------------------------------------------------------
                          DFT DISPERSION CORRECTION                            
                                                                               
                                 DFTD4 V2.5                                    
-------------------------------------------------------------------------------
The WB97X functional is recognized
Active option DFTDOPT                   ...         5   

Starting D4
-------------------------   ----------------
Dispersion correction           -0.005719397
-------------------------   ----------------


-------------------------   --------------------
FINAL SINGLE POINT ENERGY      -540.175591667771
-------------------------   --------------------


                            ***************************************
                            *     ORCA property calculations      *
                            ***************************************

                                    ---------------------
                                    Active property flags
                                    ---------------------
   (+) Dipole Moment


------------------------------------------------------------------------------
                       ORCA ELECTRIC PROPERTIES CALCULATION
------------------------------------------------------------------------------

Dipole Moment Calculation                       ... on
Quadrupole Moment Calculation                   ... off
Polarizability Calculation                      ... off
GBWName                                         ... DFT_water_outs/5-gasSP.gbw
Electron density                                ... DFT_water_outs/5-gasSP.scfp
The origin for moment calculation is the CENTER OF MASS  = (-0.033866,  0.052033 -0.058464)

-------------
DIPOLE MOMENT
-------------
                                X             Y             Z
Electronic contribution:      2.45123      -1.24737       1.29924
Nuclear contribution   :     -1.80330       0.93077      -0.93353
                        -----------------------------------------
Total Dipole Moment    :      0.64793      -0.31660       0.36571
                        -----------------------------------------
Magnitude (a.u.)       :      0.80857
Magnitude (Debye)      :      2.05522



--------------------
Rotational spectrum 
--------------------
 
Rotational constants in cm-1:     0.056252     0.014839     0.013903 
Rotational constants in MHz :  1686.389677   444.868500   416.805492 

 Dipole components along the rotational axes: 
x,y,z [a.u.] :     0.001596    -0.808515     0.009333 
x,y,z [Debye]:     0.004058    -2.055082     0.023723 

 

Timings for individual modules:

Sum of individual times         ...      111.785 sec (=   1.863 min)
GTO integral calculation        ...        0.702 sec (=   0.012 min)   0.6 %
SCF iterations                  ...      111.083 sec (=   1.851 min)  99.4 %
                             ****ORCA TERMINATED NORMALLY****
TOTAL RUN TIME: 0 days 0 hours 1 minutes 52 seconds 733 msec
