
                                 *****************
                                 * O   R   C   A *
                                 *****************

                                            #,                                       
                                            ###                                      
                                            ####                                     
                                            #####                                    
                                            ######                                   
                                           ########,                                 
                                     ,,################,,,,,                         
                               ,,#################################,,                 
                          ,,##########################################,,             
                       ,#########################################, ''#####,          
                    ,#############################################,,   '####,        
                  ,##################################################,,,,####,       
                ,###########''''           ''''###############################       
              ,#####''   ,,,,##########,,,,          '''####'''          '####       
            ,##' ,,,,###########################,,,                        '##       
           ' ,,###''''                  '''############,,,                           
         ,,##''                                '''############,,,,        ,,,,,,###''
      ,#''                                            '''#######################'''  
     '                                                          ''''####''''         
             ,#######,   #######,   ,#######,      ##                                
            ,#'     '#,  ##    ##  ,#'     '#,    #''#        ######   ,####,        
            ##       ##  ##   ,#'  ##            #'  '#       #        #'  '#        
            ##       ##  #######   ##           ,######,      #####,   #    #        
            '#,     ,#'  ##    ##  '#,     ,#' ,#      #,         ##   #,  ,#        
             '#######'   ##     ##  '#######'  #'      '#     #####' # '####'        



                  #######################################################
                  #                        -***-                        #
                  #          Department of theory and spectroscopy      #
                  #    Directorship and core code : Frank Neese         #
                  #        Max Planck Institute fuer Kohlenforschung    #
                  #                Kaiser Wilhelm Platz 1               #
                  #                 D-45470 Muelheim/Ruhr               #
                  #                      Germany                        #
                  #                                                     #
                  #                  All rights reserved                #
                  #                        -***-                        #
                  #######################################################


                         Program Version 5.0.4 -  RELEASE  -


 With contributions from (in alphabetic order):
   Daniel Aravena         : Magnetic Suceptibility
   Michael Atanasov       : Ab Initio Ligand Field Theory (pilot matlab implementation)
   Alexander A. Auer      : GIAO ZORA, VPT2 properties, NMR spectrum
   Ute Becker             : Parallelization
   Giovanni Bistoni       : ED, misc. LED, open-shell LED, HFLD
   Martin Brehm           : Molecular dynamics
   Dmytro Bykov           : SCF Hessian
   Vijay G. Chilkuri      : MRCI spin determinant printing, contributions to CSF-ICE
   Dipayan Datta          : RHF DLPNO-CCSD density
   Achintya Kumar Dutta   : EOM-CC, STEOM-CC
   Dmitry Ganyushin       : Spin-Orbit,Spin-Spin,Magnetic field MRCI
   Miquel Garcia          : C-PCM and meta-GGA Hessian, CC/C-PCM, Gaussian charge scheme
   Yang Guo               : DLPNO-NEVPT2, F12-NEVPT2, CIM, IAO-localization
   Andreas Hansen         : Spin unrestricted coupled pair/coupled cluster methods
   Benjamin Helmich-Paris : MC-RPA, TRAH-SCF, COSX integrals
   Lee Huntington         : MR-EOM, pCC
   Robert Izsak           : Overlap fitted RIJCOSX, COSX-SCS-MP3, EOM
   Marcus Kettner         : VPT2
   Christian Kollmar      : KDIIS, OOCD, Brueckner-CCSD(T), CCSD density, CASPT2, CASPT2-K
   Simone Kossmann        : Meta GGA functionals, TD-DFT gradient, OOMP2, MP2 Hessian
   Martin Krupicka        : Initial AUTO-CI
   Lucas Lang             : DCDCAS
   Marvin Lechner         : AUTO-CI (C++ implementation), FIC-MRCC
   Dagmar Lenk            : GEPOL surface, SMD
   Dimitrios Liakos       : Extrapolation schemes; Compound Job, initial MDCI parallelization
   Dimitrios Manganas     : Further ROCIS development; embedding schemes
   Dimitrios Pantazis     : SARC Basis sets
   Anastasios Papadopoulos: AUTO-CI, single reference methods and gradients
   Taras Petrenko         : DFT Hessian,TD-DFT gradient, ASA, ECA, R-Raman, ABS, FL, XAS/XES, NRVS
   Peter Pinski           : DLPNO-MP2, DLPNO-MP2 Gradient
   Christoph Reimann      : Effective Core Potentials
   Marius Retegan         : Local ZFS, SOC
   Christoph Riplinger    : Optimizer, TS searches, QM/MM, DLPNO-CCSD(T), (RO)-DLPNO pert. Triples
   Tobias Risthaus        : Range-separated hybrids, TD-DFT gradient, RPA, STAB
   Michael Roemelt        : Original ROCIS implementation
   Masaaki Saitow         : Open-shell DLPNO-CCSD energy and density
   Barbara Sandhoefer     : DKH picture change effects
   Avijit Sen             : IP-ROCIS
   Kantharuban Sivalingam : CASSCF convergence, NEVPT2, FIC-MRCI
   Bernardo de Souza      : ESD, SOC TD-DFT
   Georgi Stoychev        : AutoAux, RI-MP2 NMR, DLPNO-MP2 response
   Willem Van den Heuvel  : Paramagnetic NMR
   Boris Wezisla          : Elementary symmetry handling
   Frank Wennmohs         : Technical directorship


 We gratefully acknowledge several colleagues who have allowed us to
 interface, adapt or use parts of their codes:
   Stefan Grimme, W. Hujo, H. Kruse, P. Pracht,  : VdW corrections, initial TS optimization,
                  C. Bannwarth, S. Ehlert          DFT functionals, gCP, sTDA/sTD-DF
   Ed Valeev, F. Pavosevic, A. Kumar             : LibInt (2-el integral package), F12 methods
   Garnet Chan, S. Sharma, J. Yang, R. Olivares  : DMRG
   Ulf Ekstrom                                   : XCFun DFT Library
   Mihaly Kallay                                 : mrcc  (arbitrary order and MRCC methods)
   Jiri Pittner, Ondrej Demel                    : Mk-CCSD
   Frank Weinhold                                : gennbo (NPA and NBO analysis)
   Christopher J. Cramer and Donald G. Truhlar   : smd solvation model
   Lars Goerigk                                  : TD-DFT with DH, B97 family of functionals
   V. Asgeirsson, H. Jonsson                     : NEB implementation
   FAccTs GmbH                                   : IRC, NEB, NEB-TS, DLPNO-Multilevel, CI-OPT
                                                   MM, QMMM, 2- and 3-layer-ONIOM, Crystal-QMMM,
                                                   LR-CPCM, SF, NACMEs, symmetry and pop. for TD-DFT,
                                                   nearIR, NL-DFT gradient (VV10), updates on ESD,
                                                   ML-optimized integration grids
   S Lehtola, MJT Oliveira, MAL Marques          : LibXC Library
   Liviu Ungur et al                             : ANISO software


 Your calculation uses the libint2 library for the computation of 2-el integrals
 For citations please refer to: http://libint.valeyev.net

 Your ORCA version has been built with support for libXC version: 5.1.0
 For citations please refer to: https://tddft.org/programs/libxc/

 This ORCA versions uses:
   CBLAS   interface :  Fast vector & matrix operations
   LAPACKE interface :  Fast linear algebra routines
   SCALAPACK package :  Parallel linear algebra routines
   Shared memory     :  Shared parallel matrices
   BLAS/LAPACK       :  OpenBLAS 0.3.15  USE64BITINT DYNAMIC_ARCH NO_AFFINITY SkylakeX SINGLE_THREADED
        Core in use  :  SkylakeX
   Copyright (c) 2011-2014, The OpenBLAS Project




***************************************
The coordinates will be read from file: 5.xyz
***************************************


Your calculation utilizes the atom-pairwise dispersion correction
based on tight binding partial charges (D4)
Cite in your paper:
E.Caldeweyher, C.Bannwarth, S.Grimme, J.Chem.Phys., (2017), 147, 034112.
E.Caldeweyher, S.Ehlert, A.Hansen, H.Neugebauer, S.Grimme, J.Chem.Phys., (2018), in progress.
   

XCFun DFT library Copyright 2009-2010 Ulf Ekstrom and contributors.
See http://admol.org/xcfun for more information.
This is free software; see the source code for copying conditions.
There is ABSOLUTELY NO WARRANTY; not even for MERCHANTABILITY or FITNESS FOR A PARTICULAR PURPOSE.
For details see the documentation.
Scientific users of this library should cite U. Ekstrom, L. Visscher, R. Bast, A. J. Thorvaldsen and K. Ruud;
J.Chem.Theor.Comp. 2010, DOI: 10.1021/ct100117s
XCFun Version 0.99 

================================================================================

----- Orbital basis set information -----
Your calculation utilizes the basis: def2-SVP
   F. Weigend and R. Ahlrichs, Phys. Chem. Chem. Phys. 7, 3297 (2005).

----- AuxJ basis set information -----
Your calculation utilizes the auxiliary basis: def2/J
   F. Weigend, Phys. Chem. Chem. Phys. 8, 1057 (2006).

================================================================================
                                        WARNINGS
                       Please study these warnings very carefully!
================================================================================


INFO   : the flag for use of the SHARK integral package has been found!

================================================================================
                                       INPUT FILE
================================================================================
NAME = 5.inp
|  1> # ORCA 5.0.4 - 5.inp # write input file
|  2> # Basic Mode
|  3> #
|  4> ! Freq wB97X Def2-SVP D4 SlowConv TightSCF DEFGRID2 Def2/J RIJCOSX 
|  5> 
|  6> 
|  7> 
|  8> %maxcore 4500
|  9> 
| 10> %geom
| 11> Maxiter 150
| 12> END
| 13> 
| 14> * xyzfile 0 1 5.xyz
| 15> 
| 16>                          ****END OF INPUT****
================================================================================

                       ****************************
                       * Single Point Calculation *
                       ****************************

---------------------------------
CARTESIAN COORDINATES (ANGSTROEM)
---------------------------------
  C      1.579734   -0.070019    0.405687
  C      0.817554   -1.086765    0.870978
  N      0.731124    0.751120   -0.323675
  N     -0.471048   -0.849375    0.413450
  C     -0.546956    0.286558   -0.330585
  H      2.641884    0.127496    0.538973
  H      1.091088   -1.944234    1.483192
  C      1.204689    1.993548   -0.980575
  C     -1.601417   -1.758356    0.721089
  C      0.062591    2.652647   -1.748645
  C     -1.303282   -3.133040    0.112904
  C     -1.744730   -1.864182    2.243333
  C      2.330322    1.634721   -1.956252
  H     -0.326727    1.988037   -2.533254
  H     -0.382153   -3.568621    0.530113
  H     -0.844692   -2.295397    2.707798
  H      1.969749    0.918871   -2.711611
  H     -0.770246    2.916001   -1.082165
  H     -1.185935   -3.052559   -0.979200
  H     -1.921927   -0.870205    2.683255
  H      3.193220    1.188437   -1.438789
  H      0.442918    3.571188   -2.220784
  H     -2.131533   -3.826539    0.324117
  H     -2.597092   -2.513021    2.495572
  H      2.680725    2.540414   -2.473999
  C      1.716031    2.952000    0.100670
  C     -2.895259   -1.208577    0.127855
  H      2.069278    3.887784   -0.358698
  H     -3.715203   -1.900998    0.372066
  H      0.910053    3.194888    0.810895
  H     -2.825668   -1.113946   -0.964816
  H     -3.134967   -0.217834    0.539449
  H      2.554895    2.513766    0.663194

----------------------------
CARTESIAN COORDINATES (A.U.)
----------------------------
  NO LB      ZA    FRAG     MASS         X           Y           Z
   0 C     6.0000    0    12.011    2.985265   -0.132317    0.766637
   1 C     6.0000    0    12.011    1.544953   -2.053688    1.645910
   2 N     7.0000    0    14.007    1.381624    1.419411   -0.611657
   3 N     7.0000    0    14.007   -0.890152   -1.605086    0.781307
   4 C     6.0000    0    12.011   -1.033597    0.541516   -0.624715
   5 H     1.0000    0     1.008    4.992437    0.240933    1.018511
   6 H     1.0000    0     1.008    2.061858   -3.674070    2.802827
   7 C     6.0000    0    12.011    2.276532    3.767260   -1.853018
   8 C     6.0000    0    12.011   -3.026240   -3.322811    1.362661
   9 C     6.0000    0    12.011    0.118280    5.012776   -3.304460
  10 C     6.0000    0    12.011   -2.462846   -5.920588    0.213358
  11 C     6.0000    0    12.011   -3.297062   -3.522793    4.239285
  12 C     6.0000    0    12.011    4.403670    3.089175   -3.696781
  13 H     1.0000    0     1.008   -0.617425    3.756845   -4.787156
  14 H     1.0000    0     1.008   -0.722165   -6.743716    1.001768
  15 H     1.0000    0     1.008   -1.596237   -4.337672    5.116997
  16 H     1.0000    0     1.008    3.722286    1.736415   -5.124202
  17 H     1.0000    0     1.008   -1.455554    5.510443   -2.044995
  18 H     1.0000    0     1.008   -2.241092   -5.768501   -1.850420
  19 H     1.0000    0     1.008   -3.631916   -1.644449    5.070617
  20 H     1.0000    0     1.008    6.034311    2.245820   -2.718917
  21 H     1.0000    0     1.008    0.836994    6.748567   -4.196674
  22 H     1.0000    0     1.008   -4.028014   -7.231111    0.612492
  23 H     1.0000    0     1.008   -4.907793   -4.748921    4.715948
  24 H     1.0000    0     1.008    5.065836    4.800687   -4.675181
  25 C     6.0000    0    12.011    3.242829    5.578472    0.190239
  26 C     6.0000    0    12.011   -5.471247   -2.283880    0.241611
  27 H     1.0000    0     1.008    3.910369    7.346847   -0.677841
  28 H     1.0000    0     1.008   -7.020716   -3.592366    0.703103
  29 H     1.0000    0     1.008    1.719751    6.037463    1.532369
  30 H     1.0000    0     1.008   -5.339739   -2.105053   -1.823238
  31 H     1.0000    0     1.008   -5.924229   -0.411647    1.019411
  32 H     1.0000    0     1.008    4.828052    4.750329    1.253255

--------------------------------
INTERNAL COORDINATES (ANGSTROEM)
--------------------------------
 C      0   0   0     0.000000000000     0.00000000     0.00000000
 C      1   0   0     1.353213396179     0.00000000     0.00000000
 N      1   2   0     1.387939882151   106.31015587     0.00000000
 N      2   1   3     1.387869229174   106.32486517   359.81265217
 C      3   1   2     1.359909587562   112.03607227     0.18929892
 H      1   2   3     1.088549473162   130.07638931   179.83371448
 H      2   1   3     1.088521895468   130.06990452   179.91634325
 C      3   1   2     1.483040375178   122.21957387   179.16183922
 C      4   2   1     1.482775198350   122.31372428   179.94228629
 C      8   3   1     1.526017974437   110.22995349   177.82762901
 C      9   4   2     1.532491295997   108.61792209   297.82901093
 C      9   4   2     1.532633209147   108.64365545    58.08821039
 C      8   3   1     1.532237603946   108.68973817    58.06160590
 H     10   8   3     1.099493628952   111.29084297   299.38137353
 H     11   9   4     1.101032602552   111.54602394    60.51239589
 H     12   9   4     1.100791766818   111.69532934   298.03489001
 H     13   8   3     1.101372475464   110.39065793    59.02955338
 H     10   8   3     1.098712149876   111.43972694    60.02770218
 H     11   9   4     1.101334942961   110.40852906   299.92527937
 H     12   9   4     1.101326663357   110.45467731    58.83278675
 H     13   8   3     1.100695381761   111.80902461   298.27640724
 H     10   8   3     1.100582314473   108.52729593   179.80236893
 H     11   9   4     1.100705007425   110.03716611   180.24585570
 H     12   9   4     1.100516942208   109.92433370   178.42792109
 H     13   8   3     1.100510803521   109.92272874   178.62404430
 C      8   3   1     1.532707286892   108.53819320   297.81207701
 C      9   4   2     1.525847518123   110.17423196   177.88738192
 H     26   8   3     1.100678925522   110.13922345   180.33970838
 H     27   9   4     1.100633461647   108.58795218   180.06502839
 H     26   8   3     1.101369451026   110.40640495   300.08264748
 H     27   9   4     1.098966718187   111.33946958    60.32499974
 H     27   9   4     1.099291243551   111.34996797   299.77476536
 H     26   8   3     1.100988237825   111.45177453    60.63289952

---------------------------
INTERNAL COORDINATES (A.U.)
---------------------------
 C      0   0   0     0.000000000000     0.00000000     0.00000000
 C      1   0   0     2.557202719531     0.00000000     0.00000000
 N      1   2   0     2.622826267612   106.31015587     0.00000000
 N      2   1   3     2.622692752835   106.32486517   359.81265217
 C      3   1   2     2.569856687387   112.03607227     0.18929892
 H      1   2   3     2.057060387500   130.07638931   179.83371448
 H      2   1   3     2.057008273211   130.06990452   179.91634325
 C      3   1   2     2.802540154635   122.21957387   179.16183922
 C      4   2   1     2.802039043053   122.31372428   179.94228629
 C      8   3   1     2.883756047127   110.22995349   177.82762901
 C      9   4   2     2.895988852052   108.61792209   297.82901093
 C      9   4   2     2.896257029041   108.64365545    58.08821039
 C      8   3   1     2.895509443554   108.68973817    58.06160590
 H     10   8   3     2.077741844710   111.29084297   299.38137353
 H     11   9   4     2.080650083342   111.54602394    60.51239589
 H     12   9   4     2.080194969761   111.69532934   298.03489001
 H     13   8   3     2.081292350066   110.39065793    59.02955338
 H     10   8   3     2.076265063277   111.43972694    60.02770218
 H     11   9   4     2.081221423913   110.40852906   299.92527937
 H     12   9   4     2.081205777731   110.45467731    58.83278675
 H     13   8   3     2.080012828399   111.80902461   298.27640724
 H     10   8   3     2.079799162191   108.52729593   179.80236893
 H     11   9   4     2.080031018269   110.03716611   180.24585570
 H     12   9   4     2.079675626513   109.92433370   178.42792109
 H     13   8   3     2.079664026077   109.92272874   178.62404430
 C      8   3   1     2.896397015692   108.53819320   297.81207701
 C      9   4   2     2.883433931375   110.17423196   177.88738192
 H     26   8   3     2.079981730616   110.13922345   180.33970838
 H     27   9   4     2.079895816343   108.58795218   180.06502839
 H     26   8   3     2.081286634706   110.40640495   300.08264748
 H     27   9   4     2.076746127668   111.33946958    60.32499974
 H     27   9   4     2.077359391730   111.34996797   299.77476536
 H     26   8   3     2.080566246157   111.45177453    60.63289952

---------------------
BASIS SET INFORMATION
---------------------
There are 3 groups of distinct atoms

 Group   1 Type C   : 7s4p1d contracted to 3s2p1d pattern {511/31/1}
 Group   2 Type N   : 7s4p1d contracted to 3s2p1d pattern {511/31/1}
 Group   3 Type H   : 4s1p contracted to 2s1p pattern {31/1}

Atom   0C    basis set group =>   1
Atom   1C    basis set group =>   1
Atom   2N    basis set group =>   2
Atom   3N    basis set group =>   2
Atom   4C    basis set group =>   1
Atom   5H    basis set group =>   3
Atom   6H    basis set group =>   3
Atom   7C    basis set group =>   1
Atom   8C    basis set group =>   1
Atom   9C    basis set group =>   1
Atom  10C    basis set group =>   1
Atom  11C    basis set group =>   1
Atom  12C    basis set group =>   1
Atom  13H    basis set group =>   3
Atom  14H    basis set group =>   3
Atom  15H    basis set group =>   3
Atom  16H    basis set group =>   3
Atom  17H    basis set group =>   3
Atom  18H    basis set group =>   3
Atom  19H    basis set group =>   3
Atom  20H    basis set group =>   3
Atom  21H    basis set group =>   3
Atom  22H    basis set group =>   3
Atom  23H    basis set group =>   3
Atom  24H    basis set group =>   3
Atom  25C    basis set group =>   1
Atom  26C    basis set group =>   1
Atom  27H    basis set group =>   3
Atom  28H    basis set group =>   3
Atom  29H    basis set group =>   3
Atom  30H    basis set group =>   3
Atom  31H    basis set group =>   3
Atom  32H    basis set group =>   3
---------------------------------
AUXILIARY/J BASIS SET INFORMATION
---------------------------------
There are 3 groups of distinct atoms

 Group   1 Type C   : 12s5p4d2f1g contracted to 6s4p3d1f1g pattern {711111/2111/211/2/1}
 Group   2 Type N   : 12s5p4d2f1g contracted to 6s4p3d1f1g pattern {711111/2111/211/2/1}
 Group   3 Type H   : 5s2p1d contracted to 3s1p1d pattern {311/2/1}

Atom   0C    basis set group =>   1
Atom   1C    basis set group =>   1
Atom   2N    basis set group =>   2
Atom   3N    basis set group =>   2
Atom   4C    basis set group =>   1
Atom   5H    basis set group =>   3
Atom   6H    basis set group =>   3
Atom   7C    basis set group =>   1
Atom   8C    basis set group =>   1
Atom   9C    basis set group =>   1
Atom  10C    basis set group =>   1
Atom  11C    basis set group =>   1
Atom  12C    basis set group =>   1
Atom  13H    basis set group =>   3
Atom  14H    basis set group =>   3
Atom  15H    basis set group =>   3
Atom  16H    basis set group =>   3
Atom  17H    basis set group =>   3
Atom  18H    basis set group =>   3
Atom  19H    basis set group =>   3
Atom  20H    basis set group =>   3
Atom  21H    basis set group =>   3
Atom  22H    basis set group =>   3
Atom  23H    basis set group =>   3
Atom  24H    basis set group =>   3
Atom  25C    basis set group =>   1
Atom  26C    basis set group =>   1
Atom  27H    basis set group =>   3
Atom  28H    basis set group =>   3
Atom  29H    basis set group =>   3
Atom  30H    basis set group =>   3
Atom  31H    basis set group =>   3
Atom  32H    basis set group =>   3
------------------------------------------------------------------------------
                           ORCA GTO INTEGRAL CALCULATION
                           -- RI-GTO INTEGRALS CHOSEN --
------------------------------------------------------------------------------
------------------------------------------------------------------------------
                   ___                                                        
                  /   \      - P O W E R E D   B Y -                         
                 /     \                                                     
                 |  |  |   _    _      __       _____    __    __             
                 |  |  |  | |  | |    /  \     |  _  \  |  |  /  |          
                  \  \/   | |  | |   /    \    | | | |  |  | /  /          
                 / \  \   | |__| |  /  /\  \   | |_| |  |  |/  /          
                |  |  |   |  __  | /  /__\  \  |    /   |      \           
                |  |  |   | |  | | |   __   |  |    \   |  |\   \          
                \     /   | |  | | |  |  |  |  | |\  \  |  | \   \       
                 \___/    |_|  |_| |__|  |__|  |_| \__\ |__|  \__/        
                                                                              
                      - O R C A' S   B I G   F R I E N D -                    
                                      &                                       
                       - I N T E G R A L  F E E D E R -                       
                                                                              
 v1 FN, 2020, v2 2021                                                         
------------------------------------------------------------------------------


Reading SHARK input file 5.SHARKINP.tmp ... ok
----------------------
SHARK INTEGRAL PACKAGE
----------------------

Number of atoms                             ...     33
Number of basis functions                   ...    282
Number of shells                            ...    138
Maximum angular momentum                    ...      2
Integral batch strategy                     ... SHARK/LIBINT Hybrid
RI-J (if used) integral strategy            ... SPLIT-RIJ (Revised 2003 algorithm where possible)
Printlevel                                  ...      1
Contraction scheme used                     ... SEGMENTED contraction
Coulomb Range Separation                    ... NOT USED
Exchange Range Separation                   ... Long Range
   Mu parameter                             ...  0.300000
   Scaling (regular/separated)              ...  0.157706  0.842294
Finite Nucleus Model                        ... NOT USED
Auxiliary Coulomb fitting basis             ... AVAILABLE
   # of basis functions in Aux-J            ...    857
   # of shells in Aux-J                     ...    295
   Maximum angular momentum in Aux-J        ...      4
Auxiliary J/K fitting basis                 ... NOT available
Auxiliary Correlation fitting basis         ... NOT available
Auxiliary 'external' fitting basis          ... NOT available
Integral threshold                          ...     2.500000e-11
Primitive cut-off                           ...     2.500000e-12
Primitive pair pre-selection threshold      ...     2.500000e-12

Calculating pre-screening integrals         ... done (  0.1 sec) Dimension = 138
Organizing shell pair data                  ... done (  0.1 sec)
Shell pair information
Total number of shell pairs                 ...      9591
Shell pairs after pre-screening             ...      8140
Total number of primitive shell pairs       ...     33125
Primitive shell pairs kept                  ...     19659
          la=0 lb=0:   2779 shell pairs
          la=1 lb=0:   3077 shell pairs
          la=1 lb=1:    881 shell pairs
          la=2 lb=0:    857 shell pairs
          la=2 lb=1:    471 shell pairs
          la=2 lb=2:     75 shell pairs

Calculating one electron integrals          ... done (  0.1 sec)
Calculating RI/J V-Matrix + Cholesky decomp.... done (  0.1 sec)
Calculating Nuclear repulsion               ... done (  0.0 sec) ENN=    853.823509432873 Eh

SHARK setup successfully completed in   0.4 seconds

Maximum memory used throughout the entire GTOINT-calculation: 47.2 MB
-------------------------------------------------------------------------------
                                 ORCA SCF
-------------------------------------------------------------------------------

------------
SCF SETTINGS
------------
Hamiltonian:
 Density Functional     Method          .... DFT(GTOs)
 Exchange Functional    Exchange        .... WB97X
 Correlation Functional Correlation     .... WB97X
 Gradients option       PostSCFGGA      .... off
 Hybrid DFT is turned on
   Fraction HF Exchange ScalHFX         ....  0.157706
   Scaling of DF-GGA-X  ScalDFX         ....  0.000000
   Scaling of DF-GGA-C  ScalDFC         ....  1.000000
   Scaling of DF-LDA-C  ScalLDAC        ....  1.000000
   Perturbative correction              ....  0.000000
   Density functional embedding theory  .... OFF
 Long-range corrected/Screened/Range-Separated Hybrid DFT is turned on
   Amount of maximum screened exact exchange              ....  0.842294
   Range separation parameter mu (erf(mu*r12)/r12)        ....  0.300000
 RI-approximation to the Coulomb term is turned on
   Number of AuxJ basis functions       .... 857
   RIJ-COSX (HFX calculated with COS-X)).... on


General Settings:
 Integral files         IntName         .... 5
 Hartree-Fock type      HFTyp           .... RHF
 Total Charge           Charge          ....    0
 Multiplicity           Mult            ....    1
 Number of Electrons    NEL             ....  100
 Basis Dimension        Dim             ....  282
 Nuclear Repulsion      ENuc            ....    853.8235094329 Eh

Convergence Acceleration:
 DIIS                   CNVDIIS         .... on
   Start iteration      DIISMaxIt       ....     0
   Startup error        DIISStart       ....  0.200000
   # of expansion vecs  DIISMaxEq       ....     5
   Bias factor          DIISBfac        ....   1.050
   Max. coefficient     DIISMaxC        ....  10.000
 Trust-Rad. Augm. Hess. CNVTRAH         .... auto
   Auto Start mean grad. ratio tolernc. ....  1.125000
   Auto Start start iteration           ....    20
   Auto Start num. interpolation iter.  ....    10
   Max. Number of Micro iterations      ....    16
   Max. Number of Macro iterations      .... Maxiter - #DIIS iter
   Number of Davidson start vectors     ....     2
   Converg. threshold I  (grad. norm)   ....   1.000e-05
   Converg. threshold II (energy diff.) ....   1.000e-08
   Grad. Scal. Fac. for Micro threshold ....   0.100
   Minimum threshold for Micro iter.    ....   0.010
   NR start threshold (gradient norm)   ....   0.001
   Initial trust radius                 ....   0.400
   Minimum AH scaling param. (alpha)    ....   1.000
   Maximum AH scaling param. (alpha)    .... 1000.000
   Orbital update algorithm             .... Taylor
   White noise on init. David. guess    .... on
   Maximum white noise                  ....   0.010
   Quad. conv. algorithm                .... NR
 SOSCF                  CNVSOSCF        .... on
   Start iteration      SOSCFMaxIt      ....   150
   Startup grad/error   SOSCFStart      ....  0.001000
 Level Shifting         CNVShift        .... on
   Level shift para.    LevelShift      ....    0.2500
   Turn off err/grad.   ShiftErr        ....    0.0000
 Zerner damping         CNVZerner       .... off
 Static damping         CNVDamp         .... on
   Fraction old density DampFac         ....    0.8500
   Max. Damping (<1)    DampMax         ....    0.9800
   Min. Damping (>=0)   DampMin         ....    0.0000
   Turn off err/grad.   DampErr         ....    0.0300
 Fernandez-Rico         CNVRico         .... off

SCF Procedure:
 Maximum # iterations   MaxIter         ....   125
 SCF integral mode      SCFMode         .... Direct
   Integral package                     .... SHARK and LIBINT hybrid scheme
 Reset frequency        DirectResetFreq ....    20
 Integral Threshold     Thresh          ....  2.500e-11 Eh
 Primitive CutOff       TCut            ....  2.500e-12 Eh

Convergence Tolerance:
 Convergence Check Mode ConvCheckMode   .... Total+1el-Energy
 Convergence forced     ConvForced      .... 0
 Energy Change          TolE            ....  1.000e-08 Eh
 1-El. energy change                    ....  1.000e-05 Eh
 Orbital Gradient       TolG            ....  1.000e-05
 Orbital Rotation angle TolX            ....  1.000e-05
 DIIS Error             TolErr          ....  5.000e-07


Diagonalization of the overlap matrix:
Smallest eigenvalue                        ... 1.014e-03
Time for diagonalization                   ...    0.013 sec
Threshold for overlap eigenvalues          ... 1.000e-08
Number of eigenvalues below threshold      ... 0
Time for construction of square roots      ...    0.005 sec
Total time needed                          ...    0.019 sec

Time for model grid setup =    0.694 sec

------------------------------
INITIAL GUESS: MODEL POTENTIAL
------------------------------
Loading Hartree-Fock densities                     ... done
Calculating cut-offs                               ... done
Initializing the effective Hamiltonian             ... done
Setting up the integral package (SHARK)            ... done
Starting the Coulomb interaction                   ... done (   0.8 sec)
Reading the grid                                   ... done
Mapping shells                                     ... done
Starting the XC term evaluation                    ... done (   0.7 sec)
  promolecular density results
     # of electrons  =     99.992888130
     EX              =    -75.258799432
     EC              =     -3.311998642
     EX+EC           =    -78.570798073
Transforming the Hamiltonian                       ... done (   0.0 sec)
Diagonalizing the Hamiltonian                      ... done (   0.0 sec)
Back transforming the eigenvectors                 ... done (   0.0 sec)
Now organizing SCF variables                       ... done
                      ------------------
                      INITIAL GUESS DONE (   2.2 sec)
                      ------------------
-------------------
DFT GRID GENERATION
-------------------

General Integration Accuracy     IntAcc      ... 4.388
Radial Grid Type                 RadialGrid  ... OptM3 with GC (2021)
Angular Grid (max. ang.)         AngularGrid ... 4 (Lebedev-302)
Angular grid pruning method      GridPruning ... 4 (adaptive)
Weight generation scheme         WeightScheme... Becke
Basis function cutoff            BFCut       ... 1.0000e-11
Integration weight cutoff        WCut        ... 1.0000e-14
Angular grids for H and He will be reduced by one unit
Partially contracted basis set               ... off
Rotationally invariant grid construction     ... off

Total number of grid points                  ...   141255
Total number of batches                      ...     2225
Average number of points per batch           ...       63
Average number of grid points per atom       ...     4280
Time for grid setup =    2.540 sec

--------------------
COSX GRID GENERATION
--------------------

GRIDX 1
-------
General Integration Accuracy     IntAcc      ... 3.816
Radial Grid Type                 RadialGrid  ... OptM3 with GC (2021)
Angular Grid (max. ang.)         AngularGrid ... 1 (Lebedev-50)
Angular grid pruning method      GridPruning ... 4 (adaptive)
Weight generation scheme         WeightScheme... Becke
Basis function cutoff            BFCut       ... 1.0000e-11
Integration weight cutoff        WCut        ... 1.0000e-14
Angular grids for H and He will be reduced by one unit
Partially contracted basis set               ... on
Rotationally invariant grid construction     ... off

Total number of grid points                  ...    18062
Total number of batches                      ...      300
Average number of points per batch           ...       60
Average number of grid points per atom       ...      547
UseSFitting                                  ... on

GRIDX 2
-------
General Integration Accuracy     IntAcc      ... 4.020
Radial Grid Type                 RadialGrid  ... OptM3 with GC (2021)
Angular Grid (max. ang.)         AngularGrid ... 2 (Lebedev-110)
Angular grid pruning method      GridPruning ... 4 (adaptive)
Weight generation scheme         WeightScheme... Becke
Basis function cutoff            BFCut       ... 1.0000e-11
Integration weight cutoff        WCut        ... 1.0000e-14
Angular grids for H and He will be reduced by one unit
Partially contracted basis set               ... on
Rotationally invariant grid construction     ... off

Total number of grid points                  ...    37565
Total number of batches                      ...      606
Average number of points per batch           ...       61
Average number of grid points per atom       ...     1138
UseSFitting                                  ... on

GRIDX 3
-------
General Integration Accuracy     IntAcc      ... 4.338
Radial Grid Type                 RadialGrid  ... OptM3 with GC (2021)
Angular Grid (max. ang.)         AngularGrid ... 3 (Lebedev-194)
Angular grid pruning method      GridPruning ... 4 (adaptive)
Weight generation scheme         WeightScheme... Becke
Basis function cutoff            BFCut       ... 1.0000e-11
Integration weight cutoff        WCut        ... 1.0000e-14
Angular grids for H and He will be reduced by one unit
Partially contracted basis set               ... on
Rotationally invariant grid construction     ... off

Total number of grid points                  ...    81672
Total number of batches                      ...     1293
Average number of points per batch           ...       63
Average number of grid points per atom       ...     2475
UseSFitting                                  ... on

Time for X-Grid setup             =    3.240 sec

--------------
SCF ITERATIONS
--------------
ITER       Energy         Delta-E        Max-DP      RMS-DP      [F,P]     Damp
               ***  Starting incremental Fock matrix formation  ***
  0   -539.8343417374   0.000000000000 0.03994163  0.00069061  0.1544500 0.8500
  1   -539.9046279528  -0.070286215431 0.04382722  0.00066886  0.1244303 0.8500
                               ***Turning on DIIS***
  2   -539.9579476913  -0.053319738474 0.03891700  0.00055063  0.0954570 0.8500
  3   -539.9972820244  -0.039334333151 0.03166093  0.00038846  0.0722744 0.8500
  4   -540.0274364489  -0.030154424490 0.02620321  0.00029579  0.0574961 0.8500
  5   -540.0510727435  -0.023636294525 0.02217832  0.00024210  0.0474943 0.8500
  6   -540.0702153279  -0.019142584428 0.01897365  0.00020424  0.0399133 0.8500
  7   -540.0860144067  -0.015799078835 0.01641010  0.00017603  0.0337843 0.8500
  8   -540.0992021460  -0.013187739257 0.09467545  0.00101145  0.0285719 0.0000
  9   -540.1699074925  -0.070705346475 0.00147518  0.00003869  0.0012315 0.0000
                      *** Initiating the SOSCF procedure ***
                           *** Shutting down DIIS ***
                      *** Re-Reading the Fockian *** 
                      *** Removing any level shift *** 
ITER      Energy       Delta-E        Grad      Rot      Max-DP    RMS-DP
 10   -540.16993831  -0.0000308169  0.000538  0.000538  0.001186  0.000019
               *** Restarting incremental Fock matrix formation ***
 11   -540.16988598   0.0000523251  0.000338  0.000733  0.000904  0.000013
 12   -540.16988745  -0.0000014663  0.000113  0.000585  0.000373  0.000010
 13   -540.16988790  -0.0000004506  0.000036  0.000059  0.000272  0.000003
 14   -540.16988796  -0.0000000586  0.000007  0.000014  0.000107  0.000001
 15   -540.16988798  -0.0000000154  0.000003  0.000011  0.000018  0.000000
                  ***Gradient check signals convergence***
              ***Rediagonalizing the Fockian in SOSCF/NRSCF***

               *****************************************************
               *                     SUCCESS                       *
               *           SCF CONVERGED AFTER  16 CYCLES          *
               *****************************************************

Old exchange energy                            =    -25.309235437 Eh
New exchange energy                            =    -25.309219143 Eh
Exchange energy change after final integration =      0.000016295 Eh
Total energy after final integration           =   -540.169871687 Eh
Final COS-X integration done in                =    90.038 sec

----------------
TOTAL SCF ENERGY
----------------

Total Energy       :         -540.16987169 Eh          -14698.76948 eV

Components:
Nuclear Repulsion  :          853.82350943 Eh           23233.71887 eV
Electronic Energy  :        -1393.99338112 Eh          -37932.48835 eV
One Electron Energy:        -2422.67222792 Eh          -65924.26285 eV
Two Electron Energy:         1028.67884680 Eh           27991.77450 eV
Max COSX asymmetry :            0.00000223 Eh               0.00006 eV

Virial components:
Potential Energy   :        -1073.63007733 Eh          -29214.95966 eV
Kinetic Energy     :          533.46020564 Eh           14516.19018 eV
Virial Ratio       :            2.01257763


DFT components:
N(Alpha)           :       49.999793462657 electrons
N(Beta)            :       49.999793462657 electrons
N(Total)           :       99.999586925314 electrons
E(XC)              :      -55.446327926029 Eh       
DFET-embed. en.    :        0.000000000000 Eh       

---------------
SCF CONVERGENCE
---------------

  Last Energy change         ...   -5.9224e-09  Tolerance :   1.0000e-08
  Last MAX-Density change    ...    5.3291e-15  Tolerance :   1.0000e-07
  Last RMS-Density change    ...    4.5819e-17  Tolerance :   5.0000e-09
  Last Orbital Gradient      ...    5.9664e-07  Tolerance :   1.0000e-05
  Last Orbital Rotation      ...    2.1102e-06  Tolerance :   1.0000e-05

             **** THE GBW FILE WAS UPDATED (5.gbw) ****
             **** DENSITY 5.scfp WAS UPDATED ****
             **** ENERGY FILE WAS UPDATED (5.en.tmp) ****
             **** THE GBW FILE WAS UPDATED (5.gbw) ****
             **** DENSITY 5.scfp WAS UPDATED ****
----------------
ORBITAL ENERGIES
----------------

  NO   OCC          E(Eh)            E(eV) 
   0   2.0000     -14.436912      -392.8483 
   1   2.0000     -14.436883      -392.8476 
   2   2.0000     -10.315129      -280.6889 
   3   2.0000     -10.315071      -280.6874 
   4   2.0000     -10.290005      -280.0053 
   5   2.0000     -10.289409      -279.9891 
   6   2.0000     -10.266050      -279.3534 
   7   2.0000     -10.265990      -279.3518 
   8   2.0000     -10.265467      -279.3376 
   9   2.0000     -10.265423      -279.3363 
  10   2.0000     -10.259884      -279.1856 
  11   2.0000     -10.252983      -278.9979 
  12   2.0000     -10.252887      -278.9952 
  13   2.0000      -1.136646       -30.9297 
  14   2.0000      -1.036421       -28.2025 
  15   2.0000      -0.949605       -25.8401 
  16   2.0000      -0.898157       -24.4401 
  17   2.0000      -0.860167       -23.4063 
  18   2.0000      -0.812254       -22.1025 
  19   2.0000      -0.811861       -22.0919 
  20   2.0000      -0.807399       -21.9705 
  21   2.0000      -0.799929       -21.7672 
  22   2.0000      -0.754110       -20.5204 
  23   2.0000      -0.713984       -19.4285 
  24   2.0000      -0.655101       -17.8262 
  25   2.0000      -0.645413       -17.5626 
  26   2.0000      -0.615618       -16.7518 
  27   2.0000      -0.578748       -15.7485 
  28   2.0000      -0.576596       -15.6900 
  29   2.0000      -0.558168       -15.1885 
  30   2.0000      -0.555820       -15.1246 
  31   2.0000      -0.549800       -14.9608 
  32   2.0000      -0.535261       -14.5652 
  33   2.0000      -0.526988       -14.3401 
  34   2.0000      -0.526676       -14.3316 
  35   2.0000      -0.505050       -13.7431 
  36   2.0000      -0.491379       -13.3711 
  37   2.0000      -0.482909       -13.1406 
  38   2.0000      -0.478963       -13.0332 
  39   2.0000      -0.470671       -12.8076 
  40   2.0000      -0.466387       -12.6910 
  41   2.0000      -0.465640       -12.6707 
  42   2.0000      -0.461224       -12.5505 
  43   2.0000      -0.445578       -12.1248 
  44   2.0000      -0.436968       -11.8905 
  45   2.0000      -0.433670       -11.8008 
  46   2.0000      -0.429240       -11.6802 
  47   2.0000      -0.361969        -9.8497 
  48   2.0000      -0.316815        -8.6210 
  49   2.0000      -0.295551        -8.0423 
  50   0.0000       0.125778         3.4226 
  51   0.0000       0.135051         3.6749 
  52   0.0000       0.141751         3.8572 
  53   0.0000       0.144445         3.9305 
  54   0.0000       0.170694         4.6448 
  55   0.0000       0.172212         4.6861 
  56   0.0000       0.184663         5.0249 
  57   0.0000       0.201223         5.4756 
  58   0.0000       0.201986         5.4963 
  59   0.0000       0.208984         5.6867 
  60   0.0000       0.213889         5.8202 
  61   0.0000       0.220520         6.0006 
  62   0.0000       0.226200         6.1552 
  63   0.0000       0.227554         6.1921 
  64   0.0000       0.246170         6.6986 
  65   0.0000       0.256024         6.9668 
  66   0.0000       0.258990         7.0475 
  67   0.0000       0.263258         7.1636 
  68   0.0000       0.270460         7.3596 
  69   0.0000       0.276598         7.5266 
  70   0.0000       0.281724         7.6661 
  71   0.0000       0.282468         7.6864 
  72   0.0000       0.287121         7.8130 
  73   0.0000       0.291409         7.9296 
  74   0.0000       0.297410         8.0929 
  75   0.0000       0.308277         8.3886 
  76   0.0000       0.311067         8.4646 
  77   0.0000       0.330917         9.0047 
  78   0.0000       0.345518         9.4020 
  79   0.0000       0.348892         9.4938 
  80   0.0000       0.358181         9.7466 
  81   0.0000       0.363305         9.8860 
  82   0.0000       0.383778        10.4431 
  83   0.0000       0.433015        11.7829 
  84   0.0000       0.447735        12.1835 
  85   0.0000       0.484112        13.1733 
  86   0.0000       0.493399        13.4261 
  87   0.0000       0.494342        13.4517 
  88   0.0000       0.504792        13.7361 
  89   0.0000       0.517604        14.0847 
  90   0.0000       0.526831        14.3358 
  91   0.0000       0.530177        14.4269 
  92   0.0000       0.554895        15.0995 
  93   0.0000       0.564214        15.3531 
  94   0.0000       0.576398        15.6846 
  95   0.0000       0.619081        16.8460 
  96   0.0000       0.624127        16.9834 
  97   0.0000       0.637448        17.3459 
  98   0.0000       0.649065        17.6620 
  99   0.0000       0.662145        18.0179 
 100   0.0000       0.665257        18.1026 
 101   0.0000       0.673591        18.3293 
 102   0.0000       0.678166        18.4538 
 103   0.0000       0.683152        18.5895 
 104   0.0000       0.714838        19.4517 
 105   0.0000       0.716763        19.5041 
 106   0.0000       0.733562        19.9612 
 107   0.0000       0.733799        19.9677 
 108   0.0000       0.748252        20.3610 
 109   0.0000       0.748370        20.3642 
 110   0.0000       0.750803        20.4304 
 111   0.0000       0.756721        20.5914 
 112   0.0000       0.757164        20.6035 
 113   0.0000       0.762842        20.7580 
 114   0.0000       0.765465        20.8294 
 115   0.0000       0.782873        21.3031 
 116   0.0000       0.786396        21.3989 
 117   0.0000       0.787409        21.4265 
 118   0.0000       0.797731        21.7074 
 119   0.0000       0.798797        21.7364 
 120   0.0000       0.801570        21.8118 
 121   0.0000       0.806947        21.9581 
 122   0.0000       0.812052        22.0971 
 123   0.0000       0.817016        22.2321 
 124   0.0000       0.825065        22.4512 
 125   0.0000       0.827351        22.5134 
 126   0.0000       0.834045        22.6955 
 127   0.0000       0.836665        22.7668 
 128   0.0000       0.842113        22.9151 
 129   0.0000       0.848565        23.0906 
 130   0.0000       0.851747        23.1772 
 131   0.0000       0.853885        23.2354 
 132   0.0000       0.857590        23.3362 
 133   0.0000       0.860118        23.4050 
 134   0.0000       0.869663        23.6647 
 135   0.0000       0.873813        23.7777 
 136   0.0000       0.899582        24.4789 
 137   0.0000       0.920677        25.0529 
 138   0.0000       0.948672        25.8147 
 139   0.0000       1.025205        27.8972 
 140   0.0000       1.056900        28.7597 
 141   0.0000       1.060704        28.8632 
 142   0.0000       1.069370        29.0990 
 143   0.0000       1.084840        29.5200 
 144   0.0000       1.098553        29.8931 
 145   0.0000       1.105289        30.0764 
 146   0.0000       1.119298        30.4576 
 147   0.0000       1.132893        30.8276 
 148   0.0000       1.189592        32.3705 
 149   0.0000       1.219326        33.1795 
 150   0.0000       1.230919        33.4950 
 151   0.0000       1.252037        34.0696 
 152   0.0000       1.277151        34.7530 
 153   0.0000       1.288694        35.0671 
 154   0.0000       1.324039        36.0289 
 155   0.0000       1.344301        36.5803 
 156   0.0000       1.352494        36.8032 
 157   0.0000       1.379959        37.5506 
 158   0.0000       1.381955        37.6049 
 159   0.0000       1.395912        37.9847 
 160   0.0000       1.425890        38.8004 
 161   0.0000       1.433754        39.0144 
 162   0.0000       1.446635        39.3649 
 163   0.0000       1.474351        40.1191 
 164   0.0000       1.494814        40.6760 
 165   0.0000       1.598034        43.4847 
 166   0.0000       1.607209        43.7344 
 167   0.0000       1.636038        44.5189 
 168   0.0000       1.644988        44.7624 
 169   0.0000       1.648425        44.8559 
 170   0.0000       1.652604        44.9696 
 171   0.0000       1.661917        45.2231 
 172   0.0000       1.662947        45.2511 
 173   0.0000       1.663255        45.2595 
 174   0.0000       1.668008        45.3888 
 175   0.0000       1.684515        45.8380 
 176   0.0000       1.684740        45.8441 
 177   0.0000       1.715651        46.6852 
 178   0.0000       1.765493        48.0415 
 179   0.0000       1.777979        48.3813 
 180   0.0000       1.822995        49.6062 
 181   0.0000       1.832574        49.8669 
 182   0.0000       1.837572        50.0029 
 183   0.0000       1.849191        50.3190 
 184   0.0000       1.859177        50.5908 
 185   0.0000       1.863094        50.6974 
 186   0.0000       1.870498        50.8988 
 187   0.0000       1.876822        51.0709 
 188   0.0000       1.890374        51.4397 
 189   0.0000       1.903634        51.8005 
 190   0.0000       1.912570        52.0437 
 191   0.0000       1.922191        52.3055 
 192   0.0000       1.933374        52.6098 
 193   0.0000       1.942643        52.8620 
 194   0.0000       1.944504        52.9126 
 195   0.0000       1.949659        53.0529 
 196   0.0000       1.950610        53.0788 
 197   0.0000       1.954087        53.1734 
 198   0.0000       1.962777        53.4099 
 199   0.0000       1.963900        53.4404 
 200   0.0000       1.966436        53.5094 
 201   0.0000       1.968669        53.5702 
 202   0.0000       1.986528        54.0562 
 203   0.0000       1.997652        54.3589 
 204   0.0000       2.009136        54.6714 
 205   0.0000       2.013978        54.8031 
 206   0.0000       2.027499        55.1711 
 207   0.0000       2.035177        55.3800 
 208   0.0000       2.046310        55.6829 
 209   0.0000       2.048411        55.7401 
 210   0.0000       2.076667        56.5090 
 211   0.0000       2.084948        56.7343 
 212   0.0000       2.099245        57.1234 
 213   0.0000       2.120858        57.7115 
 214   0.0000       2.122155        57.7468 
 215   0.0000       2.125978        57.8508 
 216   0.0000       2.129280        57.9407 
 217   0.0000       2.175532        59.1992 
 218   0.0000       2.215174        60.2779 
 219   0.0000       2.250209        61.2313 
 220   0.0000       2.273431        61.8632 
 221   0.0000       2.274900        61.9032 
 222   0.0000       2.278169        61.9921 
 223   0.0000       2.296464        62.4900 
 224   0.0000       2.301433        62.6252 
 225   0.0000       2.311130        62.8890 
 226   0.0000       2.319524        63.1175 
 227   0.0000       2.340418        63.6860 
 228   0.0000       2.360354        64.2285 
 229   0.0000       2.369495        64.4772 
 230   0.0000       2.463481        67.0347 
 231   0.0000       2.465667        67.0942 
 232   0.0000       2.475550        67.3632 
 233   0.0000       2.500755        68.0490 
 234   0.0000       2.503548        68.1250 
 235   0.0000       2.507695        68.2378 
 236   0.0000       2.517916        68.5160 
 237   0.0000       2.527644        68.7807 
 238   0.0000       2.535828        69.0034 
 239   0.0000       2.552883        69.4675 
 240   0.0000       2.560620        69.6780 
 241   0.0000       2.582796        70.2814 
 242   0.0000       2.616827        71.2075 
 243   0.0000       2.629034        71.5396 
 244   0.0000       2.632391        71.6310 
 245   0.0000       2.660498        72.3958 
 246   0.0000       2.676020        72.8182 
 247   0.0000       2.683162        73.0126 
 248   0.0000       2.725912        74.1758 
 249   0.0000       2.729990        74.2868 
 250   0.0000       2.745983        74.7220 
 251   0.0000       2.757445        75.0339 
 252   0.0000       2.805367        76.3379 
 253   0.0000       2.806276        76.3627 
 254   0.0000       2.826701        76.9184 
 255   0.0000       2.842585        77.3507 
 256   0.0000       2.842876        77.3586 
 257   0.0000       2.892717        78.7148 
 258   0.0000       2.965182        80.6867 
 259   0.0000       2.970568        80.8333 
 260   0.0000       2.978191        81.0407 
 261   0.0000       2.979447        81.0749 
 262   0.0000       2.992608        81.4330 
 263   0.0000       3.003300        81.7240 
 264   0.0000       3.008535        81.8664 
 265   0.0000       3.020661        82.1964 
 266   0.0000       3.025312        82.3229 
 267   0.0000       3.056953        83.1839 
 268   0.0000       3.060483        83.2800 
 269   0.0000       3.061631        83.3112 
 270   0.0000       3.069036        83.5127 
 271   0.0000       3.074880        83.6717 
 272   0.0000       3.103514        84.4509 
 273   0.0000       3.111799        84.6764 
 274   0.0000       3.131901        85.2234 
 275   0.0000       3.179399        86.5158 
 276   0.0000       3.199482        87.0623 
 277   0.0000       3.201735        87.1236 
 278   0.0000       3.312696        90.1430 
 279   0.0000       3.466396        94.3254 
 280   0.0000       3.470587        94.4395 
 281   0.0000       3.643667        99.1492 

                    ********************************
                    * MULLIKEN POPULATION ANALYSIS *
                    ********************************

-----------------------
MULLIKEN ATOMIC CHARGES
-----------------------
   0 C :    0.035371
   1 C :    0.035059
   2 N :   -0.207847
   3 N :   -0.207523
   4 C :   -0.122805
   5 H :    0.026085
   6 H :    0.025938
   7 C :   -0.210473
   8 C :   -0.211243
   9 C :    0.081063
  10 C :    0.052535
  11 C :    0.049094
  12 C :    0.048281
  13 H :    0.033057
  14 H :    0.014695
  15 H :    0.014593
  16 H :    0.037547
  17 H :    0.037032
  18 H :    0.037575
  19 H :    0.037576
  20 H :    0.014724
  21 H :    0.012149
  22 H :    0.024347
  23 H :    0.024897
  24 H :    0.025036
  25 C :    0.053209
  26 C :    0.081370
  27 H :    0.024344
  28 H :    0.012249
  29 H :    0.037436
  30 H :    0.036450
  31 H :    0.033691
  32 H :    0.014487
Sum of atomic charges:   -0.0000000

--------------------------------
MULLIKEN REDUCED ORBITAL CHARGES
--------------------------------
  0 C s       :     3.129452  s :     3.129452
      pz      :     1.000653  p :     2.787696
      px      :     0.855720
      py      :     0.931322
      dz2     :     0.009063  d :     0.047481
      dxz     :     0.008353
      dyz     :     0.007244
      dx2y2   :     0.010454
      dxy     :     0.012368
  1 C s       :     3.129697  s :     3.129697
      pz      :     1.010384  p :     2.787757
      px      :     0.830967
      py      :     0.946406
      dz2     :     0.004933  d :     0.047486
      dxz     :     0.012466
      dyz     :     0.005838
      dx2y2   :     0.013156
      dxy     :     0.011093
  2 N s       :     3.392712  s :     3.392712
      pz      :     1.397535  p :     3.784020
      px      :     1.141725
      py      :     1.244760
      dz2     :     0.003891  d :     0.031115
      dxz     :     0.006624
      dyz     :     0.004447
      dx2y2   :     0.007055
      dxy     :     0.009096
  3 N s       :     3.392472  s :     3.392472
      pz      :     1.397385  p :     3.783939
      px      :     1.136611
      py      :     1.249944
      dz2     :     0.004716  d :     0.031112
      dxz     :     0.006187
      dyz     :     0.003543
      dx2y2   :     0.007396
      dxy     :     0.009270
  4 C s       :     3.630899  s :     3.630899
      pz      :     0.751981  p :     2.426407
      px      :     0.947971
      py      :     0.726455
      dz2     :     0.010970  d :     0.065500
      dxz     :     0.009989
      dyz     :     0.012985
      dx2y2   :     0.020420
      dxy     :     0.011135
  5 H s       :     0.949786  s :     0.949786
      pz      :     0.004777  p :     0.024129
      px      :     0.015582
      py      :     0.003770
  6 H s       :     0.949941  s :     0.949941
      pz      :     0.008923  p :     0.024121
      px      :     0.003348
      py      :     0.011850
  7 C s       :     3.214589  s :     3.214589
      pz      :     0.993354  p :     2.932021
      px      :     1.050666
      py      :     0.888002
      dz2     :     0.009252  d :     0.063863
      dxz     :     0.014024
      dyz     :     0.016111
      dx2y2   :     0.012717
      dxy     :     0.011759
  8 C s       :     3.214919  s :     3.214919
      pz      :     1.022012  p :     2.932438
      px      :     0.946381
      py      :     0.964045
      dz2     :     0.015124  d :     0.063887
      dxz     :     0.010705
      dyz     :     0.010444
      dx2y2   :     0.011037
      dxy     :     0.016576
  9 C s       :     2.966314  s :     2.966314
      pz      :     0.996859  p :     2.926340
      px      :     0.961664
      py      :     0.967816
      dz2     :     0.002066  d :     0.026282
      dxz     :     0.007990
      dyz     :     0.006612
      dx2y2   :     0.004037
      dxy     :     0.005577
 10 C s       :     2.991344  s :     2.991344
      pz      :     1.003820  p :     2.929919
      px      :     0.989762
      py      :     0.936338
      dz2     :     0.008151  d :     0.026201
      dxz     :     0.002554
      dyz     :     0.003862
      dx2y2   :     0.004082
      dxy     :     0.007553
 11 C s       :     2.992555  s :     2.992555
      pz      :     0.931544  p :     2.932156
      px      :     0.990199
      py      :     1.010413
      dz2     :     0.007033  d :     0.026195
      dxz     :     0.004654
      dyz     :     0.005090
      dx2y2   :     0.003758
      dxy     :     0.005659
 12 C s       :     2.993058  s :     2.993058
      pz      :     0.971594  p :     2.932460
      px      :     0.961772
      py      :     0.999094
      dz2     :     0.002276  d :     0.026202
      dxz     :     0.007222
      dyz     :     0.007337
      dx2y2   :     0.004470
      dxy     :     0.004896
 13 H s       :     0.943335  s :     0.943335
      pz      :     0.009424  p :     0.023608
      px      :     0.005635
      py      :     0.008550
 14 H s       :     0.961757  s :     0.961757
      pz      :     0.005930  p :     0.023548
      px      :     0.011969
      py      :     0.005650
 15 H s       :     0.961808  s :     0.961808
      pz      :     0.005644  p :     0.023598
      px      :     0.011548
      py      :     0.006406
 16 H s       :     0.939218  s :     0.939218
      pz      :     0.008969  p :     0.023235
      px      :     0.005118
      py      :     0.009148
 17 H s       :     0.939257  s :     0.939257
      pz      :     0.008147  p :     0.023711
      px      :     0.010568
      py      :     0.004996
 18 H s       :     0.939177  s :     0.939177
      pz      :     0.014745  p :     0.023248
      px      :     0.004792
      py      :     0.003711
 19 H s       :     0.939193  s :     0.939193
      pz      :     0.005075  p :     0.023231
      px      :     0.004911
      py      :     0.013245
 20 H s       :     0.961665  s :     0.961665
      pz      :     0.006369  p :     0.023611
      px      :     0.010628
      py      :     0.006614
 21 H s       :     0.964307  s :     0.964307
      pz      :     0.006606  p :     0.023544
      px      :     0.005208
      py      :     0.011731
 22 H s       :     0.952080  s :     0.952080
      pz      :     0.004978  p :     0.023573
      px      :     0.010475
      py      :     0.008120
 23 H s       :     0.951515  s :     0.951515
      pz      :     0.004287  p :     0.023588
      px      :     0.010978
      py      :     0.008323
 24 H s       :     0.951372  s :     0.951372
      pz      :     0.006755  p :     0.023592
      px      :     0.005347
      py      :     0.011490
 25 C s       :     2.991136  s :     2.991136
      pz      :     0.971894  p :     2.929465
      px      :     0.998914
      py      :     0.958658
      dz2     :     0.001893  d :     0.026190
      dxz     :     0.008609
      dyz     :     0.006719
      dx2y2   :     0.004419
      dxy     :     0.004550
 26 C s       :     2.965930  s :     2.965930
      pz      :     1.014983  p :     2.926413
      px      :     0.927300
      py      :     0.984130
      dz2     :     0.008012  d :     0.026287
      dxz     :     0.003562
      dyz     :     0.003134
      dx2y2   :     0.004439
      dxy     :     0.007141
 27 H s       :     0.952083  s :     0.952083
      pz      :     0.005854  p :     0.023572
      px      :     0.005813
      py      :     0.011905
 28 H s       :     0.964220  s :     0.964220
      pz      :     0.005202  p :     0.023531
      px      :     0.009889
      py      :     0.008439
 29 H s       :     0.939314  s :     0.939314
      pz      :     0.008482  p :     0.023250
      px      :     0.010138
      py      :     0.004630
 30 H s       :     0.939858  s :     0.939858
      pz      :     0.014995  p :     0.023693
      px      :     0.003875
      py      :     0.004822
 31 H s       :     0.942678  s :     0.942678
      pz      :     0.005688  p :     0.023631
      px      :     0.004260
      py      :     0.013683
 32 H s       :     0.961955  s :     0.961955
      pz      :     0.007080  p :     0.023558
      px      :     0.010571
      py      :     0.005906


                     *******************************
                     * LOEWDIN POPULATION ANALYSIS *
                     *******************************

----------------------
LOEWDIN ATOMIC CHARGES
----------------------
   0 C :   -0.036173
   1 C :   -0.036163
   2 N :    0.028637
   3 N :    0.028716
   4 C :   -0.249416
   5 H :    0.024166
   6 H :    0.024151
   7 C :    0.007019
   8 C :    0.006899
   9 C :   -0.042196
  10 C :   -0.048997
  11 C :   -0.049146
  12 C :   -0.049180
  13 H :    0.030649
  14 H :    0.020332
  15 H :    0.019948
  16 H :    0.031005
  17 H :    0.031269
  18 H :    0.031099
  19 H :    0.031008
  20 H :    0.019926
  21 H :    0.021867
  22 H :    0.027445
  23 H :    0.027854
  24 H :    0.027926
  25 C :   -0.048911
  26 C :   -0.042284
  27 H :    0.027359
  28 H :    0.021822
  29 H :    0.031102
  30 H :    0.031246
  31 H :    0.030708
  32 H :    0.020316

-------------------------------
LOEWDIN REDUCED ORBITAL CHARGES
-------------------------------
  0 C s       :     2.856963  s :     2.856963
      pz      :     1.028286  p :     3.060595
      px      :     1.015358
      py      :     1.016951
      dz2     :     0.019940  d :     0.118616
      dxz     :     0.019653
      dyz     :     0.017798
      dx2y2   :     0.027062
      dxy     :     0.034163
  1 C s       :     2.856939  s :     2.856939
      pz      :     1.051821  p :     3.060590
      px      :     0.946386
      py      :     1.062383
      dz2     :     0.009938  d :     0.118635
      dxz     :     0.029694
      dyz     :     0.013890
      dx2y2   :     0.034837
      dxy     :     0.030277
  2 N s       :     3.069841  s :     3.069841
      pz      :     1.357138  p :     3.827890
      px      :     1.229041
      py      :     1.241711
      dz2     :     0.008006  d :     0.073632
      dxz     :     0.014907
      dyz     :     0.009461
      dx2y2   :     0.018420
      dxy     :     0.022838
  3 N s       :     3.069772  s :     3.069772
      pz      :     1.374495  p :     3.827873
      px      :     1.173116
      py      :     1.280263
      dz2     :     0.009213  d :     0.073638
      dxz     :     0.014136
      dyz     :     0.008621
      dx2y2   :     0.019352
      dxy     :     0.022317
  4 C s       :     3.199433  s :     3.199433
      pz      :     0.863003  p :     2.907821
      px      :     1.164416
      py      :     0.880402
      dz2     :     0.022061  d :     0.142162
      dxz     :     0.017710
      dyz     :     0.030772
      dx2y2   :     0.046376
      dxy     :     0.025243
  5 H s       :     0.904769  s :     0.904769
      pz      :     0.015415  p :     0.071065
      px      :     0.042882
      py      :     0.012768
  6 H s       :     0.904794  s :     0.904794
      pz      :     0.025699  p :     0.071056
      px      :     0.012634
      py      :     0.032722
  7 C s       :     2.842744  s :     2.842744
      pz      :     1.023384  p :     3.007821
      px      :     1.046759
      py      :     0.937678
      dz2     :     0.017166  d :     0.142417
      dxz     :     0.033628
      dyz     :     0.037909
      dx2y2   :     0.027706
      dxy     :     0.026007
  8 C s       :     2.842696  s :     2.842696
      pz      :     1.047486  p :     3.007938
      px      :     0.967424
      py      :     0.993029
      dz2     :     0.035838  d :     0.142467
      dxz     :     0.022159
      dyz     :     0.021711
      dx2y2   :     0.025232
      dxy     :     0.037528
  9 C s       :     2.836846  s :     2.836846
      pz      :     1.053301  p :     3.134494
      px      :     1.031042
      py      :     1.050151
      dz2     :     0.004895  d :     0.070856
      dxz     :     0.022042
      dyz     :     0.017763
      dx2y2   :     0.010905
      dxy     :     0.015251
 10 C s       :     2.842301  s :     2.842301
      pz      :     1.057967  p :     3.136310
      px      :     1.057880
      py      :     1.020464
      dz2     :     0.021423  d :     0.070386
      dxz     :     0.006714
      dyz     :     0.010596
      dx2y2   :     0.011738
      dxy     :     0.019914
 11 C s       :     2.842111  s :     2.842111
      pz      :     1.010509  p :     3.136642
      px      :     1.059564
      py      :     1.066568
      dz2     :     0.020632  d :     0.070393
      dxz     :     0.011909
      dyz     :     0.012818
      dx2y2   :     0.010094
      dxy     :     0.014941
 12 C s       :     2.842007  s :     2.842007
      pz      :     1.041905  p :     3.136743
      px      :     1.032981
      py      :     1.061857
      dz2     :     0.005420  d :     0.070430
      dxz     :     0.020468
      dyz     :     0.019564
      dx2y2   :     0.012012
      dxy     :     0.012967
 13 H s       :     0.903533  s :     0.903533
      pz      :     0.026350  p :     0.065818
      px      :     0.016139
      py      :     0.023329
 14 H s       :     0.914494  s :     0.914494
      pz      :     0.016035  p :     0.065174
      px      :     0.031744
      py      :     0.017395
 15 H s       :     0.914774  s :     0.914774
      pz      :     0.018073  p :     0.065278
      px      :     0.030596
      py      :     0.016609
 16 H s       :     0.903892  s :     0.903892
      pz      :     0.025999  p :     0.065104
      px      :     0.014841
      py      :     0.024263
 17 H s       :     0.902385  s :     0.902385
      pz      :     0.023114  p :     0.066346
      px      :     0.029881
      py      :     0.013351
 18 H s       :     0.903806  s :     0.903806
      pz      :     0.040685  p :     0.065095
      px      :     0.012251
      py      :     0.012159
 19 H s       :     0.903884  s :     0.903884
      pz      :     0.017032  p :     0.065108
      px      :     0.012706
      py      :     0.035370
 20 H s       :     0.914770  s :     0.914770
      pz      :     0.018154  p :     0.065304
      px      :     0.030054
      py      :     0.017096
 21 H s       :     0.913384  s :     0.913384
      pz      :     0.017743  p :     0.064749
      px      :     0.015566
      py      :     0.031440
 22 H s       :     0.907661  s :     0.907661
      pz      :     0.013268  p :     0.064894
      px      :     0.027710
      py      :     0.023916
 23 H s       :     0.907217  s :     0.907217
      pz      :     0.014056  p :     0.064929
      px      :     0.028980
      py      :     0.021893
 24 H s       :     0.907145  s :     0.907145
      pz      :     0.018876  p :     0.064929
      px      :     0.015370
      py      :     0.030684
 25 C s       :     2.842359  s :     2.842359
      pz      :     1.036731  p :     3.136183
      px      :     1.057423
      py      :     1.042030
      dz2     :     0.004807  d :     0.070369
      dxz     :     0.022893
      dyz     :     0.019031
      dx2y2   :     0.011597
      dxy     :     0.012041
 26 C s       :     2.836855  s :     2.836855
      pz      :     1.063239  p :     3.134558
      px      :     1.014756
      py      :     1.056562
      dz2     :     0.021281  d :     0.070870
      dxz     :     0.009706
      dyz     :     0.008089
      dx2y2   :     0.012449
      dxy     :     0.019346
 27 H s       :     0.907742  s :     0.907742
      pz      :     0.016733  p :     0.064899
      px      :     0.015277
      py      :     0.032889
 28 H s       :     0.913439  s :     0.913439
      pz      :     0.014006  p :     0.064739
      px      :     0.027740
      py      :     0.022992
 29 H s       :     0.903810  s :     0.903810
      pz      :     0.024406  p :     0.065088
      px      :     0.027148
      py      :     0.013534
 30 H s       :     0.902510  s :     0.902510
      pz      :     0.041593  p :     0.066244
      px      :     0.012334
      py      :     0.012316
 31 H s       :     0.903356  s :     0.903356
      pz      :     0.015683  p :     0.065937
      px      :     0.013277
      py      :     0.036977
 32 H s       :     0.914496  s :     0.914496
      pz      :     0.020125  p :     0.065189
      px      :     0.028491
      py      :     0.016572


                      *****************************
                      * MAYER POPULATION ANALYSIS *
                      *****************************

  NA   - Mulliken gross atomic population
  ZA   - Total nuclear charge
  QA   - Mulliken gross atomic charge
  VA   - Mayer's total valence
  BVA  - Mayer's bonded valence
  FA   - Mayer's free valence

  ATOM       NA         ZA         QA         VA         BVA        FA
  0 C      5.9646     6.0000     0.0354     3.8719     3.8719     0.0000
  1 C      5.9649     6.0000     0.0351     3.8722     3.8722     0.0000
  2 N      7.2078     7.0000    -0.2078     3.2597     3.2597    -0.0000
  3 N      7.2075     7.0000    -0.2075     3.2598     3.2598    -0.0000
  4 C      6.1228     6.0000    -0.1228     2.7147     2.7147    -0.0000
  5 H      0.9739     1.0000     0.0261     1.0004     1.0004     0.0000
  6 H      0.9741     1.0000     0.0259     1.0004     1.0004    -0.0000
  7 C      6.2105     6.0000    -0.2105     4.1765     4.1765     0.0000
  8 C      6.2112     6.0000    -0.2112     4.1774     4.1774     0.0000
  9 C      5.9189     6.0000     0.0811     3.9289     3.9289    -0.0000
 10 C      5.9475     6.0000     0.0525     3.8969     3.8969    -0.0000
 11 C      5.9509     6.0000     0.0491     3.8995     3.8995    -0.0000
 12 C      5.9517     6.0000     0.0483     3.8998     3.8998    -0.0000
 13 H      0.9669     1.0000     0.0331     1.0089     1.0089    -0.0000
 14 H      0.9853     1.0000     0.0147     1.0008     1.0008    -0.0000
 15 H      0.9854     1.0000     0.0146     0.9999     0.9999     0.0000
 16 H      0.9625     1.0000     0.0375     0.9991     0.9991    -0.0000
 17 H      0.9630     1.0000     0.0370     1.0112     1.0112     0.0000
 18 H      0.9624     1.0000     0.0376     0.9998     0.9998     0.0000
 19 H      0.9624     1.0000     0.0376     0.9992     0.9992     0.0000
 20 H      0.9853     1.0000     0.0147     0.9999     0.9999     0.0000
 21 H      0.9879     1.0000     0.0121     0.9903     0.9903     0.0000
 22 H      0.9757     1.0000     0.0243     0.9969     0.9969     0.0000
 23 H      0.9751     1.0000     0.0249     0.9973     0.9973     0.0000
 24 H      0.9750     1.0000     0.0250     0.9973     0.9973     0.0000
 25 C      5.9468     6.0000     0.0532     3.8967     3.8967     0.0000
 26 C      5.9186     6.0000     0.0814     3.9289     3.9289     0.0000
 27 H      0.9757     1.0000     0.0243     0.9969     0.9969    -0.0000
 28 H      0.9878     1.0000     0.0122     0.9902     0.9902     0.0000
 29 H      0.9626     1.0000     0.0374     0.9999     0.9999     0.0000
 30 H      0.9636     1.0000     0.0364     1.0108     1.0108     0.0000
 31 H      0.9663     1.0000     0.0337     1.0093     1.0093     0.0000
 32 H      0.9855     1.0000     0.0145     1.0009     1.0009    -0.0000

  Mayer bond orders larger than 0.100000
B(  0-C ,  1-C ) :   1.6546 B(  0-C ,  2-N ) :   1.1149 B(  0-C ,  5-H ) :   0.9835 
B(  1-C ,  3-N ) :   1.1152 B(  1-C ,  6-H ) :   0.9836 B(  2-N ,  4-C ) :   1.2357 
B(  2-N ,  7-C ) :   0.8800 B(  3-N ,  4-C ) :   1.2357 B(  3-N ,  8-C ) :   0.8800 
B(  7-C ,  9-C ) :   1.0637 B(  7-C , 12-C ) :   1.0402 B(  7-C , 25-C ) :   1.0403 
B(  8-C , 10-C ) :   1.0402 B(  8-C , 11-C ) :   1.0404 B(  8-C , 26-C ) :   1.0641 
B(  9-C , 13-H ) :   0.9563 B(  9-C , 17-H ) :   0.9549 B(  9-C , 21-H ) :   0.9635 
B( 10-C , 14-H ) :   0.9622 B( 10-C , 18-H ) :   0.9675 B( 10-C , 22-H ) :   0.9713 
B( 11-C , 15-H ) :   0.9626 B( 11-C , 19-H ) :   0.9676 B( 11-C , 23-H ) :   0.9710 
B( 12-C , 16-H ) :   0.9676 B( 12-C , 20-H ) :   0.9627 B( 12-C , 24-H ) :   0.9711 
B( 25-C , 27-H ) :   0.9713 B( 25-C , 29-H ) :   0.9675 B( 25-C , 32-H ) :   0.9622 
B( 26-C , 28-H ) :   0.9634 B( 26-C , 30-H ) :   0.9549 B( 26-C , 31-H ) :   0.9558 


-------
TIMINGS
-------

Total SCF time: 0 days 0 hours 9 min 47 sec 

Total time                  ....     587.108 sec
Sum of individual times     ....     586.766 sec  ( 99.9%)

Fock matrix formation       ....     578.371 sec  ( 98.5%)
  Split-RI-J                ....      24.154 sec  (  4.2% of F)
  Chain of spheres X        ....     508.557 sec  ( 87.9% of F)
  XC integration            ....      45.466 sec  (  7.9% of F)
    Basis function eval.    ....      16.289 sec  ( 35.8% of XC)
    Density eval.           ....      11.637 sec  ( 25.6% of XC)
    XC-Functional eval.     ....       5.612 sec  ( 12.3% of XC)
    XC-Potential eval.      ....      10.779 sec  ( 23.7% of XC)
Diagonalization             ....       0.179 sec  (  0.0%)
Density matrix formation    ....       0.028 sec  (  0.0%)
Population analysis         ....       0.015 sec  (  0.0%)
Initial guess               ....       1.555 sec  (  0.3%)
Orbital Transformation      ....       0.000 sec  (  0.0%)
Orbital Orthonormalization  ....       0.000 sec  (  0.0%)
DIIS solution               ....       0.063 sec  (  0.0%)
SOSCF solution              ....       0.081 sec  (  0.0%)
Grid generation             ....       6.473 sec  (  1.1%)

Maximum memory used throughout the entire SCF-calculation: 109.3 MB


-------------------------------------------------------------------------------
                          DFT DISPERSION CORRECTION                            
                                                                               
                                 DFTD4 V2.5                                    
-------------------------------------------------------------------------------
The WB97X functional is recognized
Active option DFTDOPT                   ...         5   

Starting D4
-------------------------   ----------------
Dispersion correction           -0.005719391
-------------------------   ----------------


-------------------------   --------------------
FINAL SINGLE POINT ENERGY      -540.175591077933
-------------------------   --------------------


                            ***************************************
                            *     ORCA property calculations      *
                            ***************************************

                                    ---------------------
                                    Active property flags
                                    ---------------------
   (+) Dipole Moment


------------------------------------------------------------------------------
                       ORCA ELECTRIC PROPERTIES CALCULATION
------------------------------------------------------------------------------

Dipole Moment Calculation                       ... on
Quadrupole Moment Calculation                   ... off
Polarizability Calculation                      ... off
GBWName                                         ... 5.gbw
Electron density                                ... 5.scfp
The origin for moment calculation is the CENTER OF MASS  = (-0.033861,  0.052055 -0.058458)

-------------
DIPOLE MOMENT
-------------
                                X             Y             Z
Electronic contribution:      2.45133      -1.24698       1.29930
Nuclear contribution   :     -1.80339       0.93040      -0.93358
                        -----------------------------------------
Total Dipole Moment    :      0.64794      -0.31658       0.36571
                        -----------------------------------------
Magnitude (a.u.)       :      0.80857
Magnitude (Debye)      :      2.05523



--------------------
Rotational spectrum 
--------------------
 
Rotational constants in cm-1:     0.056252     0.014839     0.013903 
Rotational constants in MHz :  1686.392624   444.866311   416.803247 

 Dipole components along the rotational axes: 
x,y,z [a.u.] :     0.001617    -0.808518     0.009350 
x,y,z [Debye]:     0.004110    -2.055090     0.023766 

 

-------------------------------------------------------------------------------
                               ORCA SCF HESSIAN
-------------------------------------------------------------------------------

                   --------- SHARK INITIALIZATION DONE ---------

Hessian of the Kohn-Sham DFT energy:
Kohn-Sham wavefunction type                      ... RKS
Hartree-Fock exchange scaling                    ...    0.158
Number of operators                              ...    1
Number of atoms                                  ...   33
Basis set dimensions                             ...  282
Integral neglect threshold                       ... 2.5e-11
Integral primitive cutoff                        ... 2.5e-12

Setting up DFT Hessian calculations              ... 

HESS GRID
---------

General Integration Accuracy     IntAcc      ... 4.629
Radial Grid Type                 RadialGrid  ... OptM3 with GC (2021)
Angular Grid (max. ang.)         AngularGrid ... 5 (Lebedev-434)
Angular grid pruning method      GridPruning ... 4 (adaptive)
Weight generation scheme         WeightScheme... Becke
Basis function cutoff            BFCut       ... 1.0000e-11
Integration weight cutoff        WCut        ... 1.0000e-14
Angular grids for H and He will be reduced by one unit
Partially contracted basis set               ... off
Rotationally invariant grid construction     ... off

Total number of grid points                  ...   218055
Total number of batches                      ...     3426
Average number of points per batch           ...       63
Average number of grid points per atom       ...     6608

Building densities                               ... done   (      0.0 sec)
Calculating rho(r) on the grid                   ... done   (      2.9 sec)
Building xc-kernel on the grid                   ... done   (      2.0 sec)
                                                     done   (      9.2 sec)

Nuclear repulsion Hessian  (SHARK)               ... done   (      0.0 sec)

----------------------------------------------
Forming right-hand sides of CP-SCF equations     ...
----------------------------------------------
One electron integral derivatives  (SHARK)       ... done   (      1.2 sec)
Transforming the overlap derivative matrices     ... done   (      0.3 sec)
Making the Q(x) pseudodensities                  ... done   (      0.3 sec)
[...]
     43      -0.000255  -0.005646  -0.004718
     44       0.000276   0.005384   0.004659
     45      -0.000604   0.015427   0.013015
     46       0.000314  -0.007578  -0.006420
     47      -0.000294   0.007736   0.006385
     48      -0.006166  -0.001393   0.000862
     49      -0.015515  -0.003380   0.002315
     50      -0.015773  -0.003327   0.002184
     51       0.596596   0.000082   0.000595
     52      -0.181676   0.000024  -0.000371
     53      -0.475500  -0.000220  -0.000370
     54      -0.000281  -0.000483  -0.000391
     55      -0.000063  -0.000147  -0.000089
     56       0.002087   0.003672   0.002681
     57      -0.000057   0.000567   0.000342
     58       0.000638  -0.004148  -0.003052
     59       0.000359  -0.002023  -0.001543
     60      -0.011512  -0.016160   0.012322
     61       0.005759   0.008342  -0.006359
     62      -0.007469  -0.010193   0.007945
     63       0.034021  -0.000414   0.000496
     64       0.090885  -0.001882   0.002038
     65      -0.037223   0.001079  -0.001172
     66      -0.001330   0.001625   0.001265
     67      -0.001086   0.000708   0.000480
     68       0.000279  -0.000312  -0.000281
     69      -0.000152   0.002321   0.001718
     70      -0.000190   0.001408   0.001034
     71       0.000080  -0.000166  -0.000023
     72      -0.001232   0.000452  -0.000241
     73      -0.006086   0.002663  -0.001835
     74       0.003717  -0.001356   0.000861
     75      -0.003755   0.001063  -0.000796
     76      -0.001243  -0.000584   0.000429
     77       0.002522   0.000442  -0.000352
     78       0.001110   0.000087   0.000038
     79      -0.002046   0.000018   0.000028
     80      -0.004542   0.000027  -0.000019
     81       0.008920   0.000212  -0.000141
     82       0.026082   0.001494  -0.001011
     83      -0.012885  -0.001123   0.000842
     84      -0.003342  -0.001732  -0.002075
     85      -0.003158  -0.001054  -0.001317
     86       0.000661   0.000275   0.000370
     87       0.028180  -0.002762   0.001824
     88      -0.009234   0.000899  -0.000590
     89      -0.026848   0.002644  -0.001804
     90      -0.002776   0.000135   0.000149
     91      -0.003843  -0.000019   0.000018
     92       0.041029  -0.000172   0.000748
     93      -0.007202   0.000126   0.000339
     94       0.031303  -0.000025  -0.000545
     95       0.012557   0.000072  -0.000266
     96       0.007588  -0.011154   0.008649
     97      -0.004165   0.005561  -0.004363
     98       0.004579  -0.007250   0.005516


-----------
IR SPECTRUM
-----------

 Mode   freq       eps      Int      T**2         TX        TY        TZ
       cm**-1   L/(mol*cm) km/mol    a.u.
----------------------------------------------------------------------------
  6:     16.42   0.000018    0.09  0.000347  (-0.003773  0.010148  0.015154)
  7:     31.62   0.000001    0.00  0.000006  (-0.000553  0.001695  0.001720)
  8:    128.00   0.001580    7.98  0.003852  ( 0.012799 -0.032657 -0.051201)
  9:    147.76   0.000126    0.64  0.000267  (-0.012882  0.005403 -0.008467)
 10:    162.12   0.000004    0.02  0.000007  (-0.000028 -0.001436 -0.002251)
 11:    212.73   0.000046    0.23  0.000068  (-0.001581  0.005191  0.006222)
 12:    226.11   0.000019    0.10  0.000027  (-0.000148  0.003305  0.003984)
 13:    263.05   0.000173    0.88  0.000206  ( 0.008237  0.010323 -0.005584)
 14:    271.51   0.000034    0.17  0.000039  ( 0.005135  0.003237 -0.001550)
 15:    278.87   0.000146    0.74  0.000164  ( 0.005379  0.009278 -0.006991)
 16:    286.12   0.000010    0.05  0.000011  (-0.000813 -0.002908 -0.001305)
 17:    292.24   0.000086    0.44  0.000092  (-0.006720 -0.005490  0.004093)
 18:    293.29   0.000028    0.14  0.000030  (-0.002835 -0.004625  0.000452)
 19:    349.15   0.000565    2.85  0.000505  ( 0.003854 -0.012249 -0.018431)
 20:    353.25   0.000115    0.58  0.000102  (-0.008558  0.003929 -0.003645)
 21:    368.69   0.000005    0.03  0.000004  (-0.000702 -0.001727  0.000856)
 22:    374.17   0.000583    2.94  0.000486  (-0.011927 -0.016974  0.007449)
 23:    404.40   0.000232    1.17  0.000179  ( 0.007806  0.009314 -0.005625)
 24:    454.70   0.001249    6.31  0.000857  (-0.006288  0.015111  0.024273)
 25:    474.66   0.000005    0.02  0.000003  (-0.001394 -0.000105 -0.001034)
 26:    480.50   0.000259    1.31  0.000168  ( 0.010422 -0.004743  0.006101)
 27:    531.48   0.000965    4.88  0.000567  (-0.013249 -0.018116  0.007942)
 28:    580.88   0.000221    1.12  0.000119  ( 0.008569 -0.004638  0.004870)
 29:    660.25   0.003600   18.19  0.001702  ( 0.024199  0.027653 -0.018743)
 30:    665.51   0.001332    6.73  0.000624  ( 0.000487  0.019145  0.016052)
 31:    685.61   0.000006    0.03  0.000003  (-0.000380  0.001022  0.001250)
 32:    744.59   0.006716   33.94  0.002815  ( 0.010865 -0.027517 -0.044040)
 33:    846.08   0.000007    0.04  0.000003  ( 0.001275 -0.000810  0.000597)
 34:    856.97   0.000789    3.99  0.000287  ( 0.009539  0.012868 -0.005551)
 35:    873.18   0.000027    0.14  0.000010  (-0.000192  0.001595  0.002640)
 36:    942.51   0.000151    0.76  0.000050  (-0.003092  0.003122  0.005539)
 37:    942.96   0.000061    0.31  0.000020  (-0.000145  0.001066  0.004346)
 38:    951.27   0.000239    1.21  0.000078  (-0.006215  0.004732 -0.004166)
 39:    953.16   0.000171    0.87  0.000056  ( 0.006580 -0.001330  0.003321)
 40:    965.26   0.000030    0.15  0.000010  (-0.001313  0.000983  0.002656)
 41:    965.94   0.000037    0.19  0.000012  (-0.000356  0.001878  0.002881)
 42:   1005.68   0.002544   12.86  0.000790  ( 0.015689  0.021183 -0.009732)
 43:   1023.38   0.000185    0.94  0.000056  (-0.005471  0.003645 -0.003642)
 44:   1042.83   0.000009    0.05  0.000003  (-0.001678 -0.000055  0.000117)
 45:   1044.70   0.000028    0.14  0.000008  (-0.001476 -0.002069  0.001380)
 46:   1050.85   0.000140    0.71  0.000042  (-0.001619  0.003132  0.005403)
 47:   1051.23   0.000025    0.13  0.000008  ( 0.000258 -0.001500 -0.002287)
 48:   1104.99   0.003235   16.35  0.000913  (-0.023606  0.012904 -0.013773)
 49:   1158.88   0.001050    5.31  0.000283  (-0.010984 -0.011466  0.005531)
 50:   1224.05   0.000373    1.89  0.000095  (-0.007624  0.004380 -0.004220)
 51:   1263.44   0.011699   59.12  0.002889  (-0.031622 -0.040251  0.016414)
 52:   1263.77   0.002837   14.34  0.000701  ( 0.011201  0.021729 -0.010145)
 53:   1274.88   0.000001    0.00  0.000000  ( 0.000153  0.000110  0.000349)
 54:   1275.68   0.003323   16.79  0.000813  ( 0.004625 -0.016213 -0.022992)
 55:   1288.08   0.021502  108.66  0.005209  (-0.041155 -0.053169  0.026243)
 56:   1364.34   0.000936    4.73  0.000214  (-0.008553 -0.010700  0.005138)
 57:   1380.55   0.000333    1.68  0.000075  (-0.006852  0.003318 -0.004154)
 58:   1393.58   0.001787    9.03  0.000400  (-0.016162  0.009073 -0.007532)
 59:   1394.40   0.001893    9.57  0.000424  ( 0.008216 -0.012916 -0.013757)
 60:   1394.86   0.006589   33.30  0.001474  ( 0.002902 -0.020030 -0.032628)
 61:   1407.68   0.001551    7.84  0.000344  (-0.010850 -0.012647  0.008131)
 62:   1416.90   0.002245   11.35  0.000494  ( 0.018291 -0.008199  0.009627)
 63:   1418.71   0.004836   24.44  0.001064  ( 0.019093  0.023542 -0.012036)
 64:   1421.33   0.007709   38.96  0.001693  (-0.032601  0.017505 -0.017982)
 65:   1444.94   0.000008    0.04  0.000002  (-0.001222  0.000313  0.000458)
 66:   1445.22   0.000136    0.69  0.000029  ( 0.001284  0.003528  0.003913)
 67:   1452.41   0.000529    2.67  0.000114  ( 0.005851  0.007903 -0.004111)
 68:   1454.77   0.000015    0.08  0.000003  (-0.000224 -0.001179  0.001342)
 69:   1458.07   0.000001    0.00  0.000000  ( 0.000280  0.000257  0.000019)
 70:   1460.14   0.000011    0.06  0.000002  ( 0.000110  0.001541  0.000041)
 71:   1463.95   0.017270   87.28  0.003681  ( 0.034358  0.045131 -0.021544)
 72:   1474.41   0.000649    3.28  0.000137  (-0.001723 -0.009270 -0.006960)
 73:   1475.00   0.000828    4.19  0.000175  ( 0.000259 -0.009126 -0.009586)
 74:   1480.90   0.002301   11.63  0.000485  ( 0.018217  0.011920 -0.003293)
 75:   1482.86   0.001606    8.11  0.000338  (-0.002916  0.015398 -0.009608)
 76:   1494.83   0.000075    0.38  0.000016  (-0.000190 -0.003220  0.002306)
 77:   1497.07   0.000407    2.06  0.000085  (-0.008032  0.003074 -0.003310)
 78:   1664.77   0.000001    0.01  0.000000  ( 0.000422 -0.000178  0.000151)
 79:   3064.18   0.002693   13.61  0.000274  ( 0.003642 -0.011830 -0.011003)
 80:   3064.42   0.003411   17.24  0.000347  ( 0.000457 -0.010731 -0.015232)
 81:   3067.52   0.002322   11.74  0.000236  ( 0.003789  0.009537 -0.011443)
 82:   3067.68   0.003087   15.60  0.000314  (-0.016552  0.003966 -0.004933)
 83:   3078.74   0.003220   16.27  0.000326  ( 0.016462  0.007185 -0.001944)
 84:   3079.21   0.002851   14.41  0.000289  ( 0.003290 -0.013038  0.010400)
 85:   3166.66   0.000551    2.78  0.000054  ( 0.004233 -0.005852 -0.001454)
 86:   3166.98   0.000526    2.66  0.000052  (-0.004424 -0.001286 -0.005534)
 87:   3169.73   0.002975   15.04  0.000293  ( 0.013342 -0.006765  0.008315)
 88:   3170.09   0.003559   17.99  0.000350  (-0.013854  0.006652 -0.010685)
 89:   3170.36   0.001834    9.27  0.000180  (-0.001306  0.001826 -0.013246)
 90:   3170.52   0.003569   18.04  0.000351  (-0.017457  0.006510  0.002038)
 91:   3171.70   0.002251   11.37  0.000221  (-0.007231 -0.012681  0.002890)
 92:   3171.91   0.001293    6.53  0.000127  (-0.008108  0.004970 -0.006062)
 93:   3178.45   0.018789   94.95  0.001845  (-0.023251 -0.033963  0.012274)
 94:   3179.04   0.000386    1.95  0.000038  (-0.005784  0.001835 -0.001032)
 95:   3193.60   0.001728    8.73  0.000169  ( 0.003108 -0.005520 -0.011345)
 96:   3194.57   0.001427    7.21  0.000139  (-0.004423  0.003525  0.010365)
 97:   3280.37   0.000080    0.40  0.000008  (-0.001348 -0.002175  0.001026)
 98:   3302.71   0.000133    0.67  0.000013  (-0.002924  0.001238 -0.001562)

* The epsilon (eps) is given for a Dirac delta lineshape.
** The dipole moment derivative (T) already includes vibrational overlap.

The first frequency considered to be a vibration is 6
The total number of vibrations considered is 93


--------------------------
THERMOCHEMISTRY AT 298.15K
--------------------------

Temperature         ... 298.15 K
Pressure            ... 1.00 atm
Total Mass          ... 180.29 AMU

Throughout the following assumptions are being made:
  (1) The electronic state is orbitally nondegenerate
  (2) There are no thermally accessible electronically excited states
  (3) Hindered rotations indicated by low frequency modes are not
      treated as such but are treated as vibrations and this may
      cause some error
  (4) All equations used are the standard statistical mechanics
      equations for an ideal gas
  (5) All vibrations are strictly harmonic

freq.      16.42  E(vib)   ...       0.57 
freq.      31.62  E(vib)   ...       0.55 
freq.     128.00  E(vib)   ...       0.43 
freq.     147.76  E(vib)   ...       0.41 
freq.     162.12  E(vib)   ...       0.39 
freq.     212.73  E(vib)   ...       0.34 
freq.     226.11  E(vib)   ...       0.33 
freq.     263.05  E(vib)   ...       0.29 
freq.     271.51  E(vib)   ...       0.29 
freq.     278.87  E(vib)   ...       0.28 
freq.     286.12  E(vib)   ...       0.27 
freq.     292.24  E(vib)   ...       0.27 
freq.     293.29  E(vib)   ...       0.27 
freq.     349.15  E(vib)   ...       0.23 
freq.     353.25  E(vib)   ...       0.22 
freq.     368.69  E(vib)   ...       0.21 
freq.     374.17  E(vib)   ...       0.21 
freq.     404.40  E(vib)   ...       0.19 
freq.     454.70  E(vib)   ...       0.16 
freq.     474.66  E(vib)   ...       0.15 
freq.     480.50  E(vib)   ...       0.15 
freq.     531.48  E(vib)   ...       0.13 
freq.     580.88  E(vib)   ...       0.11 
freq.     660.25  E(vib)   ...       0.08 
freq.     665.51  E(vib)   ...       0.08 
freq.     685.61  E(vib)   ...       0.07 
freq.     744.59  E(vib)   ...       0.06 
freq.     846.08  E(vib)   ...       0.04 
freq.     856.97  E(vib)   ...       0.04 
freq.     873.18  E(vib)   ...       0.04 
freq.     942.51  E(vib)   ...       0.03 
freq.     942.96  E(vib)   ...       0.03 
freq.     951.27  E(vib)   ...       0.03 
freq.     953.16  E(vib)   ...       0.03 
freq.     965.26  E(vib)   ...       0.03 
freq.     965.94  E(vib)   ...       0.03 
freq.    1005.68  E(vib)   ...       0.02 
freq.    1023.38  E(vib)   ...       0.02 
freq.    1042.83  E(vib)   ...       0.02 
freq.    1044.70  E(vib)   ...       0.02 
freq.    1050.85  E(vib)   ...       0.02 
freq.    1051.23  E(vib)   ...       0.02 
freq.    1104.99  E(vib)   ...       0.02 
freq.    1158.88  E(vib)   ...       0.01 
freq.    1224.05  E(vib)   ...       0.01 
freq.    1263.44  E(vib)   ...       0.01 
freq.    1263.77  E(vib)   ...       0.01 
freq.    1274.88  E(vib)   ...       0.01 
freq.    1275.68  E(vib)   ...       0.01 
freq.    1288.08  E(vib)   ...       0.01 
freq.    1364.34  E(vib)   ...       0.01 
freq.    1380.55  E(vib)   ...       0.01 
freq.    1393.58  E(vib)   ...       0.00 
freq.    1394.40  E(vib)   ...       0.00 
freq.    1394.86  E(vib)   ...       0.00 
freq.    1407.68  E(vib)   ...       0.00 
freq.    1416.90  E(vib)   ...       0.00 
freq.    1418.71  E(vib)   ...       0.00 
freq.    1421.33  E(vib)   ...       0.00 
freq.    1444.94  E(vib)   ...       0.00 
freq.    1445.22  E(vib)   ...       0.00 
freq.    1452.41  E(vib)   ...       0.00 
freq.    1454.77  E(vib)   ...       0.00 
freq.    1458.07  E(vib)   ...       0.00 
freq.    1460.14  E(vib)   ...       0.00 
freq.    1463.95  E(vib)   ...       0.00 
freq.    1474.41  E(vib)   ...       0.00 
freq.    1475.00  E(vib)   ...       0.00 
freq.    1480.90  E(vib)   ...       0.00 
freq.    1482.86  E(vib)   ...       0.00 
freq.    1494.83  E(vib)   ...       0.00 
freq.    1497.07  E(vib)   ...       0.00 
freq.    1664.77  E(vib)   ...       0.00 
freq.    3064.18  E(vib)   ...       0.00 
freq.    3064.42  E(vib)   ...       0.00 
freq.    3067.52  E(vib)   ...       0.00 
freq.    3067.68  E(vib)   ...       0.00 
freq.    3078.74  E(vib)   ...       0.00 
freq.    3079.21  E(vib)   ...       0.00 
freq.    3166.66  E(vib)   ...       0.00 
freq.    3166.98  E(vib)   ...       0.00 
freq.    3169.73  E(vib)   ...       0.00 
freq.    3170.09  E(vib)   ...       0.00 
freq.    3170.36  E(vib)   ...       0.00 
freq.    3170.52  E(vib)   ...       0.00 
freq.    3171.70  E(vib)   ...       0.00 
freq.    3171.91  E(vib)   ...       0.00 
freq.    3178.45  E(vib)   ...       0.00 
freq.    3179.04  E(vib)   ...       0.00 
freq.    3193.60  E(vib)   ...       0.00 
freq.    3194.57  E(vib)   ...       0.00 
freq.    3280.37  E(vib)   ...       0.00 
freq.    3302.71  E(vib)   ...       0.00 

------------
INNER ENERGY
------------

The inner energy is: U= E(el) + E(ZPE) + E(vib) + E(rot) + E(trans)
    E(el)   - is the total energy from the electronic structure calculation
              = E(kin-el) + E(nuc-el) + E(el-el) + E(nuc-nuc)
    E(ZPE)  - the the zero temperature vibrational energy from the frequency calculation
    E(vib)  - the the finite temperature correction to E(ZPE) due to population
              of excited vibrational states
    E(rot)  - is the rotational thermal energy
    E(trans)- is the translational thermal energy

Summary of contributions to the inner energy U:
Electronic energy                ...   -540.17559108 Eh
Zero point energy                ...      0.29743207 Eh     186.64 kcal/mol
Thermal vibrational correction   ...      0.01166391 Eh       7.32 kcal/mol
Thermal rotational correction    ...      0.00141627 Eh       0.89 kcal/mol
Thermal translational correction ...      0.00141627 Eh       0.89 kcal/mol
-----------------------------------------------------------------------
Total thermal energy                   -539.86366256 Eh


Summary of corrections to the electronic energy:
(perhaps to be used in another calculation)
Total thermal correction                  0.01449645 Eh       9.10 kcal/mol
Non-thermal (ZPE) correction              0.29743207 Eh     186.64 kcal/mol
-----------------------------------------------------------------------
Total correction                          0.31192852 Eh     195.74 kcal/mol


--------
ENTHALPY
--------

The enthalpy is H = U + kB*T
                kB is Boltzmann's constant
Total free energy                 ...   -539.86366256 Eh 
Thermal Enthalpy correction       ...      0.00094421 Eh       0.59 kcal/mol
-----------------------------------------------------------------------
Total Enthalpy                    ...   -539.86271835 Eh


Note: Only C1 symmetry has been detected, increase convergence thresholds 
      if your molecule has a higher symmetry. Symmetry factor of 1.0 is   
      used for the rotational entropy correction. 
 

Note: Rotational entropy computed according to Herzberg 
Infrared and Raman Spectra, Chapter V,1, Van Nostrand Reinhold, 1945 
Point Group:  C1, Symmetry Number:   1  
Rotational constants in cm-1:     0.056252     0.014839     0.013903 

Vibrational entropy computed according to the QRRHO of S. Grimme
Chem.Eur.J. 2012 18 9955


-------
ENTROPY
-------

The entropy contributions are T*S = T*(S(el)+S(vib)+S(rot)+S(trans))
     S(el)   - electronic entropy
     S(vib)  - vibrational entropy
     S(rot)  - rotational entropy
     S(trans)- translational entropy
The entropies will be listed as multiplied by the temperature to get
units of energy

Electronic entropy                ...      0.00000000 Eh      0.00 kcal/mol
Vibrational entropy               ...      0.02003526 Eh     12.57 kcal/mol
Rotational entropy                ...      0.01487567 Eh      9.33 kcal/mol
Translational entropy             ...      0.01970603 Eh     12.37 kcal/mol
-----------------------------------------------------------------------
Final entropy term                ...      0.05461696 Eh     34.27 kcal/mol

In case the symmetry of your molecule has not been determined correctly
or in case you have a reason to use a different symmetry number we print 
out the resulting rotational entropy values for sn=1,12 :
 --------------------------------------------------------
|  sn= 1 | S(rot)=       0.01487567 Eh      9.33 kcal/mol|
|  sn= 2 | S(rot)=       0.01422121 Eh      8.92 kcal/mol|
|  sn= 3 | S(rot)=       0.01383838 Eh      8.68 kcal/mol|
|  sn= 4 | S(rot)=       0.01356676 Eh      8.51 kcal/mol|
|  sn= 5 | S(rot)=       0.01335607 Eh      8.38 kcal/mol|
|  sn= 6 | S(rot)=       0.01318392 Eh      8.27 kcal/mol|
|  sn= 7 | S(rot)=       0.01303838 Eh      8.18 kcal/mol|
|  sn= 8 | S(rot)=       0.01291230 Eh      8.10 kcal/mol|
|  sn= 9 | S(rot)=       0.01280109 Eh      8.03 kcal/mol|
|  sn=10 | S(rot)=       0.01270161 Eh      7.97 kcal/mol|
|  sn=11 | S(rot)=       0.01261162 Eh      7.91 kcal/mol|
|  sn=12 | S(rot)=       0.01252947 Eh      7.86 kcal/mol|
 --------------------------------------------------------


-------------------
GIBBS FREE ENERGY
-------------------

The Gibbs free energy is G = H - T*S

Total enthalpy                    ...   -539.86271835 Eh 
Total entropy correction          ...     -0.05461696 Eh    -34.27 kcal/mol
-----------------------------------------------------------------------
Final Gibbs free energy         ...   -539.91733531 Eh

For completeness - the Gibbs free energy minus the electronic energy
G-E(el)                           ...      0.25825577 Eh    162.06 kcal/mol


Timings for individual modules:

Sum of individual times         ...     2976.348 sec (=  49.606 min)
GTO integral calculation        ...        0.429 sec (=   0.007 min)   0.0 %
SCF iterations                  ...      587.144 sec (=   9.786 min)  19.7 %
Analytical frequency calculation...     2388.775 sec (=  39.813 min)  80.3 %
                             ****ORCA TERMINATED NORMALLY****
TOTAL RUN TIME: 0 days 0 hours 49 minutes 36 seconds 762 msec
