
                                 *****************
                                 * O   R   C   A *
                                 *****************

                                            #,                                       
                                            ###                                      
                                            ####                                     
                                            #####                                    
                                            ######                                   
                                           ########,                                 
                                     ,,################,,,,,                         
                               ,,#################################,,                 
                          ,,##########################################,,             
                       ,#########################################, ''#####,          
                    ,#############################################,,   '####,        
                  ,##################################################,,,,####,       
                ,###########''''           ''''###############################       
              ,#####''   ,,,,##########,,,,          '''####'''          '####       
            ,##' ,,,,###########################,,,                        '##       
           ' ,,###''''                  '''############,,,                           
         ,,##''                                '''############,,,,        ,,,,,,###''
      ,#''                                            '''#######################'''  
     '                                                          ''''####''''         
             ,#######,   #######,   ,#######,      ##                                
            ,#'     '#,  ##    ##  ,#'     '#,    #''#        ######   ,####,        
            ##       ##  ##   ,#'  ##            #'  '#       #        #'  '#        
            ##       ##  #######   ##           ,######,      #####,   #    #        
            '#,     ,#'  ##    ##  '#,     ,#' ,#      #,         ##   #,  ,#        
             '#######'   ##     ##  '#######'  #'      '#     #####' # '####'        



                  #######################################################
                  #                        -***-                        #
                  #          Department of theory and spectroscopy      #
                  #    Directorship and core code : Frank Neese         #
                  #        Max Planck Institute fuer Kohlenforschung    #
                  #                Kaiser Wilhelm Platz 1               #
                  #                 D-45470 Muelheim/Ruhr               #
                  #                      Germany                        #
                  #                                                     #
                  #                  All rights reserved                #
                  #                        -***-                        #
                  #######################################################


                         Program Version 5.0.4 -  RELEASE  -


 With contributions from (in alphabetic order):
   Daniel Aravena         : Magnetic Suceptibility
   Michael Atanasov       : Ab Initio Ligand Field Theory (pilot matlab implementation)
   Alexander A. Auer      : GIAO ZORA, VPT2 properties, NMR spectrum
   Ute Becker             : Parallelization
   Giovanni Bistoni       : ED, misc. LED, open-shell LED, HFLD
   Martin Brehm           : Molecular dynamics
   Dmytro Bykov           : SCF Hessian
   Vijay G. Chilkuri      : MRCI spin determinant printing, contributions to CSF-ICE
   Dipayan Datta          : RHF DLPNO-CCSD density
   Achintya Kumar Dutta   : EOM-CC, STEOM-CC
   Dmitry Ganyushin       : Spin-Orbit,Spin-Spin,Magnetic field MRCI
   Miquel Garcia          : C-PCM and meta-GGA Hessian, CC/C-PCM, Gaussian charge scheme
   Yang Guo               : DLPNO-NEVPT2, F12-NEVPT2, CIM, IAO-localization
   Andreas Hansen         : Spin unrestricted coupled pair/coupled cluster methods
   Benjamin Helmich-Paris : MC-RPA, TRAH-SCF, COSX integrals
   Lee Huntington         : MR-EOM, pCC
   Robert Izsak           : Overlap fitted RIJCOSX, COSX-SCS-MP3, EOM
   Marcus Kettner         : VPT2
   Christian Kollmar      : KDIIS, OOCD, Brueckner-CCSD(T), CCSD density, CASPT2, CASPT2-K
   Simone Kossmann        : Meta GGA functionals, TD-DFT gradient, OOMP2, MP2 Hessian
   Martin Krupicka        : Initial AUTO-CI
   Lucas Lang             : DCDCAS
   Marvin Lechner         : AUTO-CI (C++ implementation), FIC-MRCC
   Dagmar Lenk            : GEPOL surface, SMD
   Dimitrios Liakos       : Extrapolation schemes; Compound Job, initial MDCI parallelization
   Dimitrios Manganas     : Further ROCIS development; embedding schemes
   Dimitrios Pantazis     : SARC Basis sets
   Anastasios Papadopoulos: AUTO-CI, single reference methods and gradients
   Taras Petrenko         : DFT Hessian,TD-DFT gradient, ASA, ECA, R-Raman, ABS, FL, XAS/XES, NRVS
   Peter Pinski           : DLPNO-MP2, DLPNO-MP2 Gradient
   Christoph Reimann      : Effective Core Potentials
   Marius Retegan         : Local ZFS, SOC
   Christoph Riplinger    : Optimizer, TS searches, QM/MM, DLPNO-CCSD(T), (RO)-DLPNO pert. Triples
   Tobias Risthaus        : Range-separated hybrids, TD-DFT gradient, RPA, STAB
   Michael Roemelt        : Original ROCIS implementation
   Masaaki Saitow         : Open-shell DLPNO-CCSD energy and density
   Barbara Sandhoefer     : DKH picture change effects
   Avijit Sen             : IP-ROCIS
   Kantharuban Sivalingam : CASSCF convergence, NEVPT2, FIC-MRCI
   Bernardo de Souza      : ESD, SOC TD-DFT
   Georgi Stoychev        : AutoAux, RI-MP2 NMR, DLPNO-MP2 response
   Willem Van den Heuvel  : Paramagnetic NMR
   Boris Wezisla          : Elementary symmetry handling
   Frank Wennmohs         : Technical directorship


 We gratefully acknowledge several colleagues who have allowed us to
 interface, adapt or use parts of their codes:
   Stefan Grimme, W. Hujo, H. Kruse, P. Pracht,  : VdW corrections, initial TS optimization,
                  C. Bannwarth, S. Ehlert          DFT functionals, gCP, sTDA/sTD-DF
   Ed Valeev, F. Pavosevic, A. Kumar             : LibInt (2-el integral package), F12 methods
   Garnet Chan, S. Sharma, J. Yang, R. Olivares  : DMRG
   Ulf Ekstrom                                   : XCFun DFT Library
   Mihaly Kallay                                 : mrcc  (arbitrary order and MRCC methods)
   Jiri Pittner, Ondrej Demel                    : Mk-CCSD
   Frank Weinhold                                : gennbo (NPA and NBO analysis)
   Christopher J. Cramer and Donald G. Truhlar   : smd solvation model
   Lars Goerigk                                  : TD-DFT with DH, B97 family of functionals
   V. Asgeirsson, H. Jonsson                     : NEB implementation
   FAccTs GmbH                                   : IRC, NEB, NEB-TS, DLPNO-Multilevel, CI-OPT
                                                   MM, QMMM, 2- and 3-layer-ONIOM, Crystal-QMMM,
                                                   LR-CPCM, SF, NACMEs, symmetry and pop. for TD-DFT,
                                                   nearIR, NL-DFT gradient (VV10), updates on ESD,
                                                   ML-optimized integration grids
   S Lehtola, MJT Oliveira, MAL Marques          : LibXC Library
   Liviu Ungur et al                             : ANISO software


 Your calculation uses the libint2 library for the computation of 2-el integrals
 For citations please refer to: http://libint.valeyev.net

 Your ORCA version has been built with support for libXC version: 5.1.0
 For citations please refer to: https://tddft.org/programs/libxc/

 This ORCA versions uses:
   CBLAS   interface :  Fast vector & matrix operations
   LAPACKE interface :  Fast linear algebra routines
   SCALAPACK package :  Parallel linear algebra routines
   Shared memory     :  Shared parallel matrices
   BLAS/LAPACK       :  OpenBLAS 0.3.15  USE64BITINT DYNAMIC_ARCH NO_AFFINITY SkylakeX SINGLE_THREADED
        Core in use  :  SkylakeX
   Copyright (c) 2011-2014, The OpenBLAS Project


Your calculation utilizes the atom-pairwise dispersion correction
based on tight binding partial charges (D4)
Cite in your paper:
E.Caldeweyher, C.Bannwarth, S.Grimme, J.Chem.Phys., (2017), 147, 034112.
E.Caldeweyher, S.Ehlert, A.Hansen, H.Neugebauer, S.Grimme, J.Chem.Phys., (2018), in progress.
   

XCFun DFT library Copyright 2009-2010 Ulf Ekstrom and contributors.
See http://admol.org/xcfun for more information.
This is free software; see the source code for copying conditions.
There is ABSOLUTELY NO WARRANTY; not even for MERCHANTABILITY or FITNESS FOR A PARTICULAR PURPOSE.
For details see the documentation.
Scientific users of this library should cite U. Ekstrom, L. Visscher, R. Bast, A. J. Thorvaldsen and K. Ruud;
J.Chem.Theor.Comp. 2010, DOI: 10.1021/ct100117s
XCFun Version 0.99 

================================================================================

----- Orbital basis set information -----
Your calculation utilizes the basis: def2-SVP
   F. Weigend and R. Ahlrichs, Phys. Chem. Chem. Phys. 7, 3297 (2005).

----- AuxJ basis set information -----
Your calculation utilizes the auxiliary basis: def2/J
   F. Weigend, Phys. Chem. Chem. Phys. 8, 1057 (2006).

================================================================================
                                        WARNINGS
                       Please study these warnings very carefully!
================================================================================


INFO   : the flag for use of the SHARK integral package has been found!

================================================================================
                                       INPUT FILE
================================================================================
NAME = DFT_water_outs/6-gasSP.inp
|  1> ! SP wB97X D4 def2-SVP def2/J defgrid2 
|  2> %maxcore 3000
|  3> %PAL NPROCS 4 END
|  4> * xyz 0 1
|  5> C 0.0 0.6811 -1.2849
|  6> C 0.0 -0.6811 -1.2849
|  7> C 0.0 0.0 0.9004
|  8> N 0.0 1.0617 0.0583
|  9> N 0.0 -1.0617 0.0583
| 10> C 0.0 1.6456 -2.4248
| 11> C -0.0 -1.6456 -2.4248
| 12> H -0.8896 2.2958 -2.4117
| 13> H -0.8896 -2.2958 -2.4117
| 14> H 0.8896 -2.2958 -2.4117
| 15> H 0.8896 2.2958 -2.4117
| 16> H -0.0 1.0987 -3.3776
| 17> H -0.0 -1.0987 -3.3776
| 18> C -1.2676 2.7635 1.3129
| 19> C -1.2676 -2.7635 1.3129
| 20> C 1.2676 -2.7635 1.3129
| 21> C 1.2676 2.7635 1.3129
| 22> C 0.0 2.4539 0.5253
| 23> C 0.0 -2.4539 0.5253
| 24> H -2.1645 2.5573 0.7086
| 25> H -2.1645 -2.5573 0.7086
| 26> H 2.1645 -2.5573 0.7086
| 27> H 2.1645 2.5573 0.7086
| 28> H -1.3146 2.1468 2.2236
| 29> H -1.3146 -2.1468 2.2236
| 30> H 1.3146 -2.1468 2.2236
| 31> H 1.3146 2.1468 2.2236
| 32> H -1.2841 3.8241 1.607
| 33> H -1.2841 -3.8241 1.607
| 34> H 1.2841 -3.8241 1.607
| 35> H 1.2841 3.8241 1.607
| 36> H -0.0 3.0776 -0.3809
| 37> H 0.0 -3.0776 -0.3809
| 38> **                         ****END OF INPUT****
================================================================================

                       ****************************
                       * Single Point Calculation *
                       ****************************

---------------------------------
CARTESIAN COORDINATES (ANGSTROEM)
---------------------------------
  C      0.000000    0.681100   -1.284900
  C      0.000000   -0.681100   -1.284900
  C      0.000000    0.000000    0.900400
  N      0.000000    1.061700    0.058300
  N      0.000000   -1.061700    0.058300
  C      0.000000    1.645600   -2.424800
  C     -0.000000   -1.645600   -2.424800
  H     -0.889600    2.295800   -2.411700
  H     -0.889600   -2.295800   -2.411700
  H      0.889600   -2.295800   -2.411700
  H      0.889600    2.295800   -2.411700
  H     -0.000000    1.098700   -3.377600
  H     -0.000000   -1.098700   -3.377600
  C     -1.267600    2.763500    1.312900
  C     -1.267600   -2.763500    1.312900
  C      1.267600   -2.763500    1.312900
  C      1.267600    2.763500    1.312900
  C      0.000000    2.453900    0.525300
  C      0.000000   -2.453900    0.525300
  H     -2.164500    2.557300    0.708600
  H     -2.164500   -2.557300    0.708600
  H      2.164500   -2.557300    0.708600
  H      2.164500    2.557300    0.708600
  H     -1.314600    2.146800    2.223600
  H     -1.314600   -2.146800    2.223600
  H      1.314600   -2.146800    2.223600
  H      1.314600    2.146800    2.223600
  H     -1.284100    3.824100    1.607000
  H     -1.284100   -3.824100    1.607000
  H      1.284100   -3.824100    1.607000
  H      1.284100    3.824100    1.607000
  H     -0.000000    3.077600   -0.380900
  H      0.000000   -3.077600   -0.380900

----------------------------
CARTESIAN COORDINATES (A.U.)
----------------------------
  NO LB      ZA    FRAG     MASS         X           Y           Z
   0 C     6.0000    0    12.011    0.000000    1.287092   -2.428109
   1 C     6.0000    0    12.011    0.000000   -1.287092   -2.428109
   2 C     6.0000    0    12.011    0.000000    0.000000    1.701509
   3 N     7.0000    0    14.007    0.000000    2.006322    0.110171
   4 N     7.0000    0    14.007    0.000000   -2.006322    0.110171
   5 C     6.0000    0    12.011    0.000000    3.109733   -4.582208
   6 C     6.0000    0    12.011   -0.000000   -3.109733   -4.582208
   7 H     1.0000    0     1.008   -1.681100    4.338433   -4.557453
   8 H     1.0000    0     1.008   -1.681100   -4.338433   -4.557453
   9 H     1.0000    0     1.008    1.681100   -4.338433   -4.557453
  10 H     1.0000    0     1.008    1.681100    4.338433   -4.557453
  11 H     1.0000    0     1.008   -0.000000    2.076242   -6.382739
  12 H     1.0000    0     1.008   -0.000000   -2.076242   -6.382739
  13 C     6.0000    0    12.011   -2.395417    5.222258    2.481021
  14 C     6.0000    0    12.011   -2.395417   -5.222258    2.481021
  15 C     6.0000    0    12.011    2.395417   -5.222258    2.481021
  16 C     6.0000    0    12.011    2.395417    5.222258    2.481021
  17 C     6.0000    0    12.011    0.000000    4.637199    0.992673
  18 C     6.0000    0    12.011    0.000000   -4.637199    0.992673
  19 H     1.0000    0     1.008   -4.090312    4.832597    1.339060
  20 H     1.0000    0     1.008   -4.090312   -4.832597    1.339060
  21 H     1.0000    0     1.008    4.090312   -4.832597    1.339060
  22 H     1.0000    0     1.008    4.090312    4.832597    1.339060
  23 H     1.0000    0     1.008   -2.484234    4.056864    4.201995
  24 H     1.0000    0     1.008   -2.484234   -4.056864    4.201995
  25 H     1.0000    0     1.008    2.484234   -4.056864    4.201995
  26 H     1.0000    0     1.008    2.484234    4.056864    4.201995
  27 H     1.0000    0     1.008   -2.426597    7.226502    3.036790
  28 H     1.0000    0     1.008   -2.426597   -7.226502    3.036790
  29 H     1.0000    0     1.008    2.426597   -7.226502    3.036790
  30 H     1.0000    0     1.008    2.426597    7.226502    3.036790
  31 H     1.0000    0     1.008   -0.000000    5.815821   -0.719797
  32 H     1.0000    0     1.008    0.000000   -5.815821   -0.719797

--------------------------------
INTERNAL COORDINATES (ANGSTROEM)
--------------------------------
 C      0   0   0     0.000000000000     0.00000000     0.00000000
 C      1   0   0     1.362200000000     0.00000000     0.00000000
 C      1   2   0     2.288980843083    72.68912978     0.00000000
 N      3   1   2     1.355115972897    34.26901826   180.00000000
 N      3   1   2     1.355115972897    68.89075871     0.00000000
 C      1   2   3     1.493195318771   130.23545701   180.00000000
 C      2   1   3     1.493195318771   130.23545701   180.00000000
 H      6   1   2     1.101961800608   111.84201528   119.57364655
 H      7   2   1     1.101961800608   111.84201528   240.42635345
 H      7   2   1     1.101961800608   111.84201528   119.57364655
 H      6   1   2     1.101961800608   111.84201528   240.42635345
 H      6   1   2     1.098602498632   109.90904472     0.00000000
 H      7   2   1     1.098602498632   109.90904472     0.00000000
 C      4   3   1     2.465147898200   102.97957494   148.15042949
 C      5   3   1     2.465147898200   102.97957494   211.84957051
 C      5   3   1     2.465147898200   102.97957494   148.15042949
 C      4   3   1     2.465147898200   102.97957494   211.84957051
 C      4   3   1     1.468437891094   123.03635963   180.00000085
 C      5   3   1     1.468437891094   123.03635963   180.00000085
 H     14   4   3     1.100966184767    90.58783131   258.63305096
 H     15   5   3     1.100966184767    90.58783131   101.36694904
 H     16   5   3     1.100966184767    90.58783131   258.63305096
 H     17   4   3     1.100966184767    90.58783131   101.36694904
 H     14   4   3     1.100864378568    93.22438818     7.02167974
 H     15   5   3     1.100864378568    93.22438818   352.97832026
 H     16   5   3     1.100864378568    93.22438818     7.02167974
 H     17   4   3     1.100864378568    93.22438818   352.97832026
 H     14   4   3     1.100744938667   143.98403438   135.28830335
 H     15   5   3     1.100744938667   143.98403438   224.71169665
 H     16   5   3     1.100744938667   143.98403438   135.28830335
 H     17   4   3     1.100744938667   143.98403438   224.71169665
 H     18   4   3     1.100090964421   105.99450052   180.00000000
 H     19   5   3     1.100090964421   105.99450052   180.00000000

---------------------------
INTERNAL COORDINATES (A.U.)
---------------------------
 C      0   0   0     0.000000000000     0.00000000     0.00000000
 C      1   0   0     2.574184939628     0.00000000     0.00000000
 C      1   2   0     4.325546919219    72.68912978     0.00000000
 N      3   1   2     2.560798068477    34.26901826   180.00000000
 N      3   1   2     2.560798068477    68.89075871     0.00000000
 C      1   2   3     2.821730216931   130.23545701   180.00000000
 C      2   1   3     2.821730216931   130.23545701   180.00000000
 H      6   1   2     2.082406013193   111.84201528   119.57364655
 H      7   2   1     2.082406013193   111.84201528   240.42635345
 H      7   2   1     2.082406013193   111.84201528   119.57364655
 H      6   1   2     2.082406013193   111.84201528   240.42635345
 H      6   1   2     2.076057852456   109.90904472     0.00000000
 H      7   2   1     2.076057852456   109.90904472     0.00000000
 C      4   3   1     4.658454407210   102.97957494   148.15042949
 C      5   3   1     4.658454407210   102.97957494   211.84957051
 C      5   3   1     4.658454407210   102.97957494   148.15042949
 C      4   3   1     4.658454407210   102.97957494   211.84957051
 C      4   3   1     2.774945458840   123.03635963   180.00000085
 C      5   3   1     2.774945458840   123.03635963   180.00000085
 H     14   4   3     2.080524571917    90.58783131   258.63305096
 H     15   5   3     2.080524571917    90.58783131   101.36694904
 H     16   5   3     2.080524571917    90.58783131   258.63305096
 H     17   4   3     2.080524571917    90.58783131   101.36694904
 H     14   4   3     2.080332186083    93.22438818     7.02167974
 H     15   5   3     2.080332186083    93.22438818   352.97832026
 H     16   5   3     2.080332186083    93.22438818     7.02167974
 H     17   4   3     2.080332186083    93.22438818   352.97832026
 H     14   4   3     2.080106477380   143.98403438   135.28830335
 H     15   5   3     2.080106477380   143.98403438   224.71169665
 H     16   5   3     2.080106477380   143.98403438   135.28830335
 H     17   4   3     2.080106477380   143.98403438   224.71169665
 H     18   4   3     2.078870645156   105.99450052   180.00000000
 H     19   5   3     2.078870645156   105.99450052   180.00000000

---------------------
BASIS SET INFORMATION
---------------------
There are 3 groups of distinct atoms

 Group   1 Type C   : 7s4p1d contracted to 3s2p1d pattern {511/31/1}
 Group   2 Type N   : 7s4p1d contracted to 3s2p1d pattern {511/31/1}
 Group   3 Type H   : 4s1p contracted to 2s1p pattern {31/1}

Atom   0C    basis set group =>   1
Atom   1C    basis set group =>   1
Atom   2C    basis set group =>   1
Atom   3N    basis set group =>   2
Atom   4N    basis set group =>   2
Atom   5C    basis set group =>   1
Atom   6C    basis set group =>   1
Atom   7H    basis set group =>   3
Atom   8H    basis set group =>   3
Atom   9H    basis set group =>   3
Atom  10H    basis set group =>   3
Atom  11H    basis set group =>   3
Atom  12H    basis set group =>   3
Atom  13C    basis set group =>   1
Atom  14C    basis set group =>   1
Atom  15C    basis set group =>   1
Atom  16C    basis set group =>   1
Atom  17C    basis set group =>   1
Atom  18C    basis set group =>   1
Atom  19H    basis set group =>   3
Atom  20H    basis set group =>   3
Atom  21H    basis set group =>   3
Atom  22H    basis set group =>   3
Atom  23H    basis set group =>   3
Atom  24H    basis set group =>   3
Atom  25H    basis set group =>   3
Atom  26H    basis set group =>   3
Atom  27H    basis set group =>   3
Atom  28H    basis set group =>   3
Atom  29H    basis set group =>   3
Atom  30H    basis set group =>   3
Atom  31H    basis set group =>   3
Atom  32H    basis set group =>   3
---------------------------------
AUXILIARY/J BASIS SET INFORMATION
---------------------------------
There are 3 groups of distinct atoms

 Group   1 Type C   : 12s5p4d2f1g contracted to 6s4p3d1f1g pattern {711111/2111/211/2/1}
 Group   2 Type N   : 12s5p4d2f1g contracted to 6s4p3d1f1g pattern {711111/2111/211/2/1}
 Group   3 Type H   : 5s2p1d contracted to 3s1p1d pattern {311/2/1}

Atom   0C    basis set group =>   1
Atom   1C    basis set group =>   1
Atom   2C    basis set group =>   1
Atom   3N    basis set group =>   2
Atom   4N    basis set group =>   2
Atom   5C    basis set group =>   1
Atom   6C    basis set group =>   1
Atom   7H    basis set group =>   3
Atom   8H    basis set group =>   3
Atom   9H    basis set group =>   3
Atom  10H    basis set group =>   3
Atom  11H    basis set group =>   3
Atom  12H    basis set group =>   3
Atom  13C    basis set group =>   1
Atom  14C    basis set group =>   1
Atom  15C    basis set group =>   1
Atom  16C    basis set group =>   1
Atom  17C    basis set group =>   1
Atom  18C    basis set group =>   1
Atom  19H    basis set group =>   3
Atom  20H    basis set group =>   3
Atom  21H    basis set group =>   3
Atom  22H    basis set group =>   3
Atom  23H    basis set group =>   3
Atom  24H    basis set group =>   3
Atom  25H    basis set group =>   3
Atom  26H    basis set group =>   3
Atom  27H    basis set group =>   3
Atom  28H    basis set group =>   3
Atom  29H    basis set group =>   3
Atom  30H    basis set group =>   3
Atom  31H    basis set group =>   3
Atom  32H    basis set group =>   3


           ************************************************************
           *        Program running with 4 parallel MPI-processes     *
           *              working on a common directory               *
           ************************************************************
------------------------------------------------------------------------------
                           ORCA GTO INTEGRAL CALCULATION
                           -- RI-GTO INTEGRALS CHOSEN --
------------------------------------------------------------------------------
------------------------------------------------------------------------------
                   ___                                                        
                  /   \      - P O W E R E D   B Y -                         
                 /     \                                                     
                 |  |  |   _    _      __       _____    __    __             
                 |  |  |  | |  | |    /  \     |  _  \  |  |  /  |          
                  \  \/   | |  | |   /    \    | | | |  |  | /  /          
                 / \  \   | |__| |  /  /\  \   | |_| |  |  |/  /          
                |  |  |   |  __  | /  /__\  \  |    /   |      \           
                |  |  |   | |  | | |   __   |  |    \   |  |\   \          
                \     /   | |  | | |  |  |  |  | |\  \  |  | \   \       
                 \___/    |_|  |_| |__|  |__|  |_| \__\ |__|  \__/        
                                                                              
                      - O R C A' S   B I G   F R I E N D -                    
                                      &                                       
                       - I N T E G R A L  F E E D E R -                       
                                                                              
 v1 FN, 2020, v2 2021                                                         
------------------------------------------------------------------------------


Reading SHARK input file DFT_water_outs/6-gasSP.SHARKINP.tmp ... ok
----------------------
SHARK INTEGRAL PACKAGE
----------------------

Number of atoms                             ...     33
Number of basis functions                   ...    282
Number of shells                            ...    138
Maximum angular momentum                    ...      2
Integral batch strategy                     ... SHARK/LIBINT Hybrid
RI-J (if used) integral strategy            ... SPLIT-RIJ (Revised 2003 algorithm where possible)
Printlevel                                  ...      1
Contraction scheme used                     ... SEGMENTED contraction
Coulomb Range Separation                    ... NOT USED
Exchange Range Separation                   ... Long Range
   Mu parameter                             ...  0.300000
   Scaling (regular/separated)              ...  0.157706  0.842294
Finite Nucleus Model                        ... NOT USED
Auxiliary Coulomb fitting basis             ... AVAILABLE
   # of basis functions in Aux-J            ...    857
   # of shells in Aux-J                     ...    295
   Maximum angular momentum in Aux-J        ...      4
Auxiliary J/K fitting basis                 ... NOT available
Auxiliary Correlation fitting basis         ... NOT available
Auxiliary 'external' fitting basis          ... NOT available
Integral threshold                          ...     1.000000e-10
Primitive cut-off                           ...     1.000000e-11
Primitive pair pre-selection threshold      ...     1.000000e-11

Calculating pre-screening integrals         ... done (  0.0 sec) Dimension = 138
Organizing shell pair data                  ... done (  0.1 sec)
Shell pair information
Total number of shell pairs                 ...      9591
Shell pairs after pre-screening             ...      8131
Total number of primitive shell pairs       ...     33125
Primitive shell pairs kept                  ...     19290
          la=0 lb=0:   2780 shell pairs
          la=1 lb=0:   3076 shell pairs
          la=1 lb=1:    870 shell pairs
          la=2 lb=0:    853 shell pairs
          la=2 lb=1:    476 shell pairs
          la=2 lb=2:     76 shell pairs

Calculating one electron integrals          ... done (  0.0 sec)
Calculating RI/J V-Matrix + Cholesky decomp.... done (  0.0 sec)
Calculating Nuclear repulsion               ... done (  0.0 sec) ENN=    851.703164259618 Eh

SHARK setup successfully completed in   0.3 seconds

Maximum memory used throughout the entire GTOINT-calculation: 16.3 MB


           ************************************************************
           *        Program running with 4 parallel MPI-processes     *
           *              working on a common directory               *
           ************************************************************
-------------------------------------------------------------------------------
                                 ORCA SCF
-------------------------------------------------------------------------------

------------
SCF SETTINGS
------------
Hamiltonian:
 Density Functional     Method          .... DFT(GTOs)
 Exchange Functional    Exchange        .... WB97X
 Correlation Functional Correlation     .... WB97X
 Gradients option       PostSCFGGA      .... off
 Hybrid DFT is turned on
   Fraction HF Exchange ScalHFX         ....  0.157706
   Scaling of DF-GGA-X  ScalDFX         ....  0.000000
   Scaling of DF-GGA-C  ScalDFC         ....  1.000000
   Scaling of DF-LDA-C  ScalLDAC        ....  1.000000
   Perturbative correction              ....  0.000000
   Density functional embedding theory  .... OFF
 Long-range corrected/Screened/Range-Separated Hybrid DFT is turned on
   Amount of maximum screened exact exchange              ....  0.842294
   Range separation parameter mu (erf(mu*r12)/r12)        ....  0.300000
 RI-approximation to the Coulomb term is turned on
   Number of AuxJ basis functions       .... 857
   RIJ-COSX (HFX calculated with COS-X)).... on


General Settings:
 Integral files         IntName         .... DFT_water_outs/6-gasSP
 Hartree-Fock type      HFTyp           .... RHF
 Total Charge           Charge          ....    0
 Multiplicity           Mult            ....    1
 Number of Electrons    NEL             ....  100
 Basis Dimension        Dim             ....  282
 Nuclear Repulsion      ENuc            ....    851.7031642596 Eh

Convergence Acceleration:
 DIIS                   CNVDIIS         .... on
   Start iteration      DIISMaxIt       ....    12
   Startup error        DIISStart       ....  0.200000
   # of expansion vecs  DIISMaxEq       ....     5
   Bias factor          DIISBfac        ....   1.050
   Max. coefficient     DIISMaxC        ....  10.000
 Trust-Rad. Augm. Hess. CNVTRAH         .... auto
   Auto Start mean grad. ratio tolernc. ....  1.125000
   Auto Start start iteration           ....    20
   Auto Start num. interpolation iter.  ....    10
   Max. Number of Micro iterations      ....    16
   Max. Number of Macro iterations      .... Maxiter - #DIIS iter
   Number of Davidson start vectors     ....     2
   Converg. threshold I  (grad. norm)   ....   5.000e-05
   Converg. threshold II (energy diff.) ....   1.000e-06
   Grad. Scal. Fac. for Micro threshold ....   0.100
   Minimum threshold for Micro iter.    ....   0.010
   NR start threshold (gradient norm)   ....   0.001
   Initial trust radius                 ....   0.400
   Minimum AH scaling param. (alpha)    ....   1.000
   Maximum AH scaling param. (alpha)    .... 1000.000
   Orbital update algorithm             .... Taylor
   White noise on init. David. guess    .... on
   Maximum white noise                  ....   0.010
   Quad. conv. algorithm                .... NR
 SOSCF                  CNVSOSCF        .... on
   Start iteration      SOSCFMaxIt      ....   150
   Startup grad/error   SOSCFStart      ....  0.003300
 Level Shifting         CNVShift        .... on
   Level shift para.    LevelShift      ....    0.2500
   Turn off err/grad.   ShiftErr        ....    0.0010
 Zerner damping         CNVZerner       .... off
 Static damping         CNVDamp         .... on
   Fraction old density DampFac         ....    0.7000
   Max. Damping (<1)    DampMax         ....    0.9800
   Min. Damping (>=0)   DampMin         ....    0.0000
   Turn off err/grad.   DampErr         ....    0.1000
 Fernandez-Rico         CNVRico         .... off

SCF Procedure:
 Maximum # iterations   MaxIter         ....   125
 SCF integral mode      SCFMode         .... Direct
   Integral package                     .... SHARK and LIBINT hybrid scheme
 Reset frequency        DirectResetFreq ....    20
 Integral Threshold     Thresh          ....  1.000e-10 Eh
 Primitive CutOff       TCut            ....  1.000e-11 Eh

Convergence Tolerance:
 Convergence Check Mode ConvCheckMode   .... Total+1el-Energy
 Convergence forced     ConvForced      .... 0
 Energy Change          TolE            ....  1.000e-06 Eh
 1-El. energy change                    ....  1.000e-03 Eh
 Orbital Gradient       TolG            ....  5.000e-05
 Orbital Rotation angle TolX            ....  5.000e-05
 DIIS Error             TolErr          ....  1.000e-06


Diagonalization of the overlap matrix:
Smallest eigenvalue                        ... 8.937e-04
Time for diagonalization                   ...    0.012 sec
Threshold for overlap eigenvalues          ... 1.000e-08
Number of eigenvalues below threshold      ... 0
Time for construction of square roots      ...    0.006 sec
Total time needed                          ...    0.019 sec

Time for model grid setup =    0.237 sec

------------------------------
INITIAL GUESS: MODEL POTENTIAL
------------------------------
Loading Hartree-Fock densities                     ... done
Calculating cut-offs                               ... done
Initializing the effective Hamiltonian             ... done
Setting up the integral package (SHARK)            ... done
Starting the Coulomb interaction                   ... done (   0.2 sec)
Reading the grid                                   ... done
Mapping shells                                     ... done
Starting the XC term evaluation                    ... done (   0.2 sec)
  promolecular density results
     # of electrons  =     99.985269057
     EX              =    -75.264339817
     EC              =     -3.302130879
     EX+EC           =    -78.566470696
Transforming the Hamiltonian                       ... done (   0.0 sec)
Diagonalizing the Hamiltonian                      ... done (   0.0 sec)
Back transforming the eigenvectors                 ... done (   0.0 sec)
Now organizing SCF variables                       ... done
                      ------------------
                      INITIAL GUESS DONE (   0.6 sec)
                      ------------------
-------------------
DFT GRID GENERATION
-------------------

General Integration Accuracy     IntAcc      ... 4.388
Radial Grid Type                 RadialGrid  ... OptM3 with GC (2021)
Angular Grid (max. ang.)         AngularGrid ... 4 (Lebedev-302)
Angular grid pruning method      GridPruning ... 4 (adaptive)
Weight generation scheme         WeightScheme... Becke
Basis function cutoff            BFCut       ... 1.0000e-10
Integration weight cutoff        WCut        ... 1.0000e-14
Angular grids for H and He will be reduced by one unit
Partially contracted basis set               ... off
Rotationally invariant grid construction     ... off

Total number of grid points                  ...   141335
Total number of batches                      ...     2226
Average number of points per batch           ...       63
Average number of grid points per atom       ...     4283
Time for grid setup =    1.000 sec

--------------------
COSX GRID GENERATION
--------------------

GRIDX 1
-------
General Integration Accuracy     IntAcc      ... 3.816
Radial Grid Type                 RadialGrid  ... OptM3 with GC (2021)
Angular Grid (max. ang.)         AngularGrid ... 1 (Lebedev-50)
Angular grid pruning method      GridPruning ... 4 (adaptive)
Weight generation scheme         WeightScheme... Becke
Basis function cutoff            BFCut       ... 1.0000e-10
Integration weight cutoff        WCut        ... 1.0000e-14
Angular grids for H and He will be reduced by one unit
Partially contracted basis set               ... on
Rotationally invariant grid construction     ... off

Total number of grid points                  ...    18079
Total number of batches                      ...      302
Average number of points per batch           ...       59
Average number of grid points per atom       ...      548
UseSFitting                                  ... on

GRIDX 2
-------
General Integration Accuracy     IntAcc      ... 4.020
Radial Grid Type                 RadialGrid  ... OptM3 with GC (2021)
Angular Grid (max. ang.)         AngularGrid ... 2 (Lebedev-110)
Angular grid pruning method      GridPruning ... 4 (adaptive)
Weight generation scheme         WeightScheme... Becke
Basis function cutoff            BFCut       ... 1.0000e-10
Integration weight cutoff        WCut        ... 1.0000e-14
Angular grids for H and He will be reduced by one unit
Partially contracted basis set               ... on
Rotationally invariant grid construction     ... off

Total number of grid points                  ...    37631
Total number of batches                      ...      607
Average number of points per batch           ...       61
Average number of grid points per atom       ...     1140
UseSFitting                                  ... on

GRIDX 3
-------
General Integration Accuracy     IntAcc      ... 4.338
Radial Grid Type                 RadialGrid  ... OptM3 with GC (2021)
Angular Grid (max. ang.)         AngularGrid ... 3 (Lebedev-194)
Angular grid pruning method      GridPruning ... 4 (adaptive)
Weight generation scheme         WeightScheme... Becke
Basis function cutoff            BFCut       ... 1.0000e-10
Integration weight cutoff        WCut        ... 1.0000e-14
Angular grids for H and He will be reduced by one unit
Partially contracted basis set               ... on
Rotationally invariant grid construction     ... off

Total number of grid points                  ...    81789
Total number of batches                      ...     1296
Average number of points per batch           ...       63
Average number of grid points per atom       ...     2478
UseSFitting                                  ... on

Time for X-Grid setup             =    1.361 sec

--------------
SCF ITERATIONS
--------------
ITER       Energy         Delta-E        Max-DP      RMS-DP      [F,P]     Damp
               ***  Starting incremental Fock matrix formation  ***
  0   -539.8545987165   0.000000000000 0.07380879  0.00136247  0.1529045 0.7000
  1   -539.9810431529  -0.126444436436 0.06462174  0.00102261  0.0931115 0.7000
                               ***Turning on DIIS***
  2   -540.0502709358  -0.069227782859 0.15106280  0.00211139  0.0514511 0.0000
  3   -540.1646312643  -0.114360328504 0.03278341  0.00064341  0.0337442 0.0000
  4   -540.1794176774  -0.014786413087 0.00513780  0.00015322  0.0046328 0.0000
                      *** Initiating the SOSCF procedure ***
                           *** Shutting down DIIS ***
                      *** Re-Reading the Fockian *** 
                      *** Removing any level shift *** 
ITER      Energy       Delta-E        Grad      Rot      Max-DP    RMS-DP
  5   -540.17982211  -0.0004044368  0.001179  0.001179  0.003308  0.000064
               *** Restarting incremental Fock matrix formation ***
  6   -540.17989317  -0.0000710552  0.000803  0.001835  0.002290  0.000038
  7   -540.17990331  -0.0000101372  0.000385  0.001407  0.001219  0.000028
  8   -540.17990610  -0.0000027886  0.000072  0.000098  0.000541  0.000008
  9   -540.17990646  -0.0000003633  0.000028  0.000050  0.000293  0.000003
                 **** Energy Check signals convergence ****
              ***Rediagonalizing the Fockian in SOSCF/NRSCF***

               *****************************************************
               *                     SUCCESS                       *
               *           SCF CONVERGED AFTER  10 CYCLES          *
               *****************************************************

Old exchange energy                            =    -25.313540440 Eh
New exchange energy                            =    -25.313591913 Eh
Exchange energy change after final integration =     -0.000051473 Eh
Total energy after final integration           =   -540.179958011 Eh
Final COS-X integration done in                =    21.479 sec

----------------
TOTAL SCF ENERGY
----------------

Total Energy       :         -540.17995801 Eh          -14699.04394 eV

Components:
Nuclear Repulsion  :          851.70316426 Eh           23176.02135 eV
Electronic Energy  :        -1391.88312227 Eh          -37875.06529 eV
One Electron Energy:        -2418.54018614 Eh          -65811.82427 eV
Two Electron Energy:         1026.65706387 Eh           27936.75899 eV
Max COSX asymmetry :            0.00000263 Eh               0.00007 eV

Virial components:
Potential Energy   :        -1073.67680834 Eh          -29216.23128 eV
Kinetic Energy     :          533.49685033 Eh           14517.18734 eV
Virial Ratio       :            2.01252699


DFT components:
N(Alpha)           :       50.000184335636 electrons
N(Beta)            :       50.000184335636 electrons
N(Total)           :      100.000368671271 electrons
E(XC)              :      -55.458717872660 Eh       
DFET-embed. en.    :        0.000000000000 Eh       

---------------
SCF CONVERGENCE
---------------

  Last Energy change         ...   -7.9227e-08  Tolerance :   1.0000e-06
  Last MAX-Density change    ...    8.8818e-15  Tolerance :   1.0000e-05
  Last RMS-Density change    ...    6.0312e-17  Tolerance :   1.0000e-06
  Last Orbital Gradient      ...    1.2482e-05  Tolerance :   5.0000e-05
  Last Orbital Rotation      ...    3.4007e-05  Tolerance :   5.0000e-05

             **** THE GBW FILE WAS UPDATED (DFT_water_outs/6-gasSP.gbw) ****
             **** DENSITY DFT_water_outs/6-gasSP.scfp WAS UPDATED ****
             **** ENERGY FILE WAS UPDATED (DFT_water_outs/6-gasSP.en.tmp) ****
             **** THE GBW FILE WAS UPDATED (DFT_water_outs/6-gasSP.gbw) ****
             **** DENSITY DFT_water_outs/6-gasSP.scfp WAS UPDATED ****
----------------
ORBITAL ENERGIES
----------------

  NO   OCC          E(Eh)            E(eV) 
   0   2.0000     -14.430449      -392.6725 
   1   2.0000     -14.430449      -392.6725 
   2   2.0000     -10.305009      -280.4135 
   3   2.0000     -10.304977      -280.4127 
   4   2.0000     -10.287989      -279.9504 
   5   2.0000     -10.287481      -279.9366 
   6   2.0000     -10.281993      -279.7873 
   7   2.0000     -10.281935      -279.7857 
   8   2.0000     -10.256264      -279.0871 
   9   2.0000     -10.256260      -279.0870 
  10   2.0000     -10.256260      -279.0870 
  11   2.0000     -10.256250      -279.0867 
  12   2.0000     -10.255079      -279.0549 
  13   2.0000      -1.132553       -30.8183 
  14   2.0000      -1.029509       -28.0144 
  15   2.0000      -0.932535       -25.3756 
  16   2.0000      -0.899730       -24.4829 
  17   2.0000      -0.884891       -24.0791 
  18   2.0000      -0.842888       -22.9362 
  19   2.0000      -0.801574       -21.8119 
  20   2.0000      -0.801056       -21.7978 
  21   2.0000      -0.784528       -21.3481 
  22   2.0000      -0.761284       -20.7156 
  23   2.0000      -0.693170       -18.8621 
  24   2.0000      -0.676892       -18.4192 
  25   2.0000      -0.642394       -17.4804 
  26   2.0000      -0.616985       -16.7890 
  27   2.0000      -0.578220       -15.7342 
  28   2.0000      -0.555264       -15.1095 
  29   2.0000      -0.553265       -15.0551 
  30   2.0000      -0.548316       -14.9204 
  31   2.0000      -0.537825       -14.6350 
  32   2.0000      -0.535844       -14.5811 
  33   2.0000      -0.522875       -14.2281 
  34   2.0000      -0.514340       -13.9959 
  35   2.0000      -0.511376       -13.9153 
  36   2.0000      -0.508523       -13.8376 
  37   2.0000      -0.492195       -13.3933 
  38   2.0000      -0.487969       -13.2783 
  39   2.0000      -0.482661       -13.1339 
  40   2.0000      -0.470352       -12.7989 
  41   2.0000      -0.464333       -12.6352 
  42   2.0000      -0.459331       -12.4990 
  43   2.0000      -0.450343       -12.2545 
  44   2.0000      -0.437885       -11.9155 
  45   2.0000      -0.436704       -11.8833 
  46   2.0000      -0.428081       -11.6487 
  47   2.0000      -0.355241        -9.6666 
  48   2.0000      -0.296283        -8.0623 
  49   2.0000      -0.294354        -8.0098 
  50   0.0000       0.129416         3.5216 
  51   0.0000       0.136919         3.7258 
  52   0.0000       0.141960         3.8629 
  53   0.0000       0.144647         3.9360 
  54   0.0000       0.165768         4.5108 
  55   0.0000       0.184772         5.0279 
  56   0.0000       0.186627         5.0784 
  57   0.0000       0.189252         5.1498 
  58   0.0000       0.198713         5.4073 
  59   0.0000       0.209491         5.7005 
  60   0.0000       0.214116         5.8264 
  61   0.0000       0.225775         6.1436 
  62   0.0000       0.232627         6.3301 
  63   0.0000       0.234359         6.3772 
  64   0.0000       0.235934         6.4201 
  65   0.0000       0.243583         6.6282 
  66   0.0000       0.244098         6.6422 
  67   0.0000       0.261467         7.1149 
  68   0.0000       0.264976         7.2104 
  69   0.0000       0.272388         7.4120 
  70   0.0000       0.274980         7.4826 
  71   0.0000       0.277317         7.5462 
  72   0.0000       0.288584         7.8528 
  73   0.0000       0.291719         7.9381 
  74   0.0000       0.293207         7.9786 
  75   0.0000       0.321314         8.7434 
  76   0.0000       0.330204         8.9853 
  77   0.0000       0.352915         9.6033 
  78   0.0000       0.357347         9.7239 
  79   0.0000       0.358765         9.7625 
  80   0.0000       0.376380        10.2418 
  81   0.0000       0.387472        10.5437 
  82   0.0000       0.401425        10.9233 
  83   0.0000       0.464750        12.6465 
  84   0.0000       0.481181        13.0936 
  85   0.0000       0.496286        13.5046 
  86   0.0000       0.500659        13.6236 
  87   0.0000       0.507076        13.7982 
  88   0.0000       0.511100        13.9077 
  89   0.0000       0.526380        14.3235 
  90   0.0000       0.536045        14.5865 
  91   0.0000       0.539831        14.6896 
  92   0.0000       0.564470        15.3600 
  93   0.0000       0.575299        15.6547 
  94   0.0000       0.580105        15.7854 
  95   0.0000       0.585738        15.9387 
  96   0.0000       0.627129        17.0651 
  97   0.0000       0.631300        17.1786 
  98   0.0000       0.640606        17.4318 
  99   0.0000       0.670028        18.2324 
 100   0.0000       0.670511        18.2455 
 101   0.0000       0.679537        18.4911 
 102   0.0000       0.694642        18.9022 
 103   0.0000       0.700261        19.0551 
 104   0.0000       0.707528        19.2528 
 105   0.0000       0.708979        19.2923 
 106   0.0000       0.717623        19.5275 
 107   0.0000       0.720774        19.6132 
 108   0.0000       0.741115        20.1668 
 109   0.0000       0.741519        20.1777 
 110   0.0000       0.748291        20.3620 
 111   0.0000       0.748454        20.3665 
 112   0.0000       0.753858        20.5135 
 113   0.0000       0.768575        20.9140 
 114   0.0000       0.769291        20.9335 
 115   0.0000       0.770715        20.9722 
 116   0.0000       0.779078        21.1998 
 117   0.0000       0.781140        21.2559 
 118   0.0000       0.794605        21.6223 
 119   0.0000       0.797731        21.7074 
 120   0.0000       0.798902        21.7392 
 121   0.0000       0.799361        21.7517 
 122   0.0000       0.805137        21.9089 
 123   0.0000       0.805766        21.9260 
 124   0.0000       0.807939        21.9851 
 125   0.0000       0.811164        22.0729 
 126   0.0000       0.812631        22.1128 
 127   0.0000       0.813486        22.1361 
 128   0.0000       0.827201        22.5093 
 129   0.0000       0.829301        22.5664 
 130   0.0000       0.834347        22.7037 
 131   0.0000       0.837391        22.7866 
 132   0.0000       0.843119        22.9424 
 133   0.0000       0.868475        23.6324 
 134   0.0000       0.872136        23.7320 
 135   0.0000       0.884082        24.0571 
 136   0.0000       0.884627        24.0719 
 137   0.0000       0.901955        24.5435 
 138   0.0000       0.906900        24.6780 
 139   0.0000       0.974994        26.5309 
 140   0.0000       0.983486        26.7620 
 141   0.0000       1.039622        28.2896 
 142   0.0000       1.056089        28.7376 
 143   0.0000       1.065783        29.0014 
 144   0.0000       1.099345        29.9147 
 145   0.0000       1.162703        31.6388 
 146   0.0000       1.165410        31.7124 
 147   0.0000       1.189681        32.3729 
 148   0.0000       1.190897        32.4060 
 149   0.0000       1.198317        32.6079 
 150   0.0000       1.219030        33.1715 
 151   0.0000       1.222487        33.2656 
 152   0.0000       1.251401        34.0524 
 153   0.0000       1.280700        34.8496 
 154   0.0000       1.281440        34.8698 
 155   0.0000       1.281791        34.8793 
 156   0.0000       1.348443        36.6930 
 157   0.0000       1.355274        36.8789 
 158   0.0000       1.419149        38.6170 
 159   0.0000       1.420714        38.6596 
 160   0.0000       1.422264        38.7018 
 161   0.0000       1.449539        39.4440 
 162   0.0000       1.508308        41.0432 
 163   0.0000       1.536804        41.8186 
 164   0.0000       1.547455        42.1084 
 165   0.0000       1.549850        42.1736 
 166   0.0000       1.582232        43.0547 
 167   0.0000       1.639940        44.6250 
 168   0.0000       1.642830        44.7037 
 169   0.0000       1.644405        44.7465 
 170   0.0000       1.649623        44.8885 
 171   0.0000       1.652537        44.9678 
 172   0.0000       1.657219        45.0952 
 173   0.0000       1.659572        45.1593 
 174   0.0000       1.662658        45.2432 
 175   0.0000       1.673399        45.5355 
 176   0.0000       1.674734        45.5718 
 177   0.0000       1.678471        45.6735 
 178   0.0000       1.685057        45.8527 
 179   0.0000       1.788971        48.6804 
 180   0.0000       1.808604        49.2146 
 181   0.0000       1.834688        49.9244 
 182   0.0000       1.837991        50.0143 
 183   0.0000       1.839322        50.0505 
 184   0.0000       1.849156        50.3181 
 185   0.0000       1.849551        50.3288 
 186   0.0000       1.880443        51.1695 
 187   0.0000       1.880493        51.1708 
 188   0.0000       1.884322        51.2750 
 189   0.0000       1.884889        51.2904 
 190   0.0000       1.895710        51.5849 
 191   0.0000       1.897369        51.6300 
 192   0.0000       1.905462        51.8503 
 193   0.0000       1.915425        52.1214 
 194   0.0000       1.920275        52.2533 
 195   0.0000       1.941168        52.8219 
 196   0.0000       1.943580        52.8875 
 197   0.0000       1.944927        52.9242 
 198   0.0000       1.946918        52.9783 
 199   0.0000       1.956381        53.2358 
 200   0.0000       1.973125        53.6915 
 201   0.0000       1.979902        53.8759 
 202   0.0000       2.000749        54.4431 
 203   0.0000       2.003698        54.5234 
 204   0.0000       2.005456        54.5712 
 205   0.0000       2.005761        54.5795 
 206   0.0000       2.008380        54.6508 
 207   0.0000       2.015656        54.8488 
 208   0.0000       2.043665        55.6109 
 209   0.0000       2.069054        56.3018 
 210   0.0000       2.075060        56.4653 
 211   0.0000       2.082761        56.6748 
 212   0.0000       2.105419        57.2914 
 213   0.0000       2.106390        57.3178 
 214   0.0000       2.123572        57.7853 
 215   0.0000       2.132733        58.0346 
 216   0.0000       2.155936        58.6660 
 217   0.0000       2.157181        58.6999 
 218   0.0000       2.176842        59.2349 
 219   0.0000       2.232033        60.7367 
 220   0.0000       2.255639        61.3790 
 221   0.0000       2.264488        61.6199 
 222   0.0000       2.280885        62.0660 
 223   0.0000       2.284829        62.1734 
 224   0.0000       2.305687        62.7409 
 225   0.0000       2.328625        63.3651 
 226   0.0000       2.344437        63.7954 
 227   0.0000       2.365055        64.3564 
 228   0.0000       2.370779        64.5122 
 229   0.0000       2.371280        64.5258 
 230   0.0000       2.382314        64.8261 
 231   0.0000       2.443620        66.4943 
 232   0.0000       2.464165        67.0534 
 233   0.0000       2.498794        67.9956 
 234   0.0000       2.499930        68.0265 
 235   0.0000       2.511350        68.3373 
 236   0.0000       2.516925        68.4890 
 237   0.0000       2.519653        68.5632 
 238   0.0000       2.547450        69.3196 
 239   0.0000       2.551934        69.4416 
 240   0.0000       2.570817        69.9555 
 241   0.0000       2.595713        70.6329 
 242   0.0000       2.598722        70.7148 
 243   0.0000       2.612235        71.0825 
 244   0.0000       2.635922        71.7271 
 245   0.0000       2.660445        72.3944 
 246   0.0000       2.682515        72.9949 
 247   0.0000       2.690164        73.2031 
 248   0.0000       2.709048        73.7169 
 249   0.0000       2.717253        73.9402 
 250   0.0000       2.719803        74.0096 
 251   0.0000       2.750354        74.8409 
 252   0.0000       2.807992        76.4093 
 253   0.0000       2.816469        76.6400 
 254   0.0000       2.828174        76.9585 
 255   0.0000       2.834573        77.1326 
 256   0.0000       2.849914        77.5501 
 257   0.0000       2.852066        77.6087 
 258   0.0000       2.906819        79.0986 
 259   0.0000       2.972844        80.8952 
 260   0.0000       2.978112        81.0385 
 261   0.0000       2.991091        81.3917 
 262   0.0000       2.995718        81.5176 
 263   0.0000       3.016842        82.0924 
 264   0.0000       3.016947        82.0953 
 265   0.0000       3.017918        82.1217 
 266   0.0000       3.031483        82.4908 
 267   0.0000       3.032329        82.5139 
 268   0.0000       3.069387        83.5223 
 269   0.0000       3.072860        83.6168 
 270   0.0000       3.098324        84.3097 
 271   0.0000       3.100287        84.3631 
 272   0.0000       3.129477        85.1574 
 273   0.0000       3.148319        85.6701 
 274   0.0000       3.149459        85.7011 
 275   0.0000       3.149770        85.7096 
 276   0.0000       3.170630        86.2772 
 277   0.0000       3.212170        87.4076 
 278   0.0000       3.329771        90.6077 
 279   0.0000       3.449316        93.8607 
 280   0.0000       3.476084        94.5890 
 281   0.0000       3.547127        96.5222 

                    ********************************
                    * MULLIKEN POPULATION ANALYSIS *
                    ********************************

-----------------------
MULLIKEN ATOMIC CHARGES
-----------------------
   0 C :   -0.107954
   1 C :   -0.107953
   2 C :   -0.121427
   3 N :   -0.227932
   4 N :   -0.227930
   5 C :    0.080188
   6 C :    0.080184
   7 H :    0.044078
   8 H :    0.044079
   9 H :    0.044078
  10 H :    0.044078
  11 H :    0.018025
  12 H :    0.018024
  13 C :    0.009712
  14 C :    0.009713
  15 C :    0.009713
  16 C :    0.009713
  17 C :    0.001136
  18 C :    0.001136
  19 H :    0.023471
  20 H :    0.023471
  21 H :    0.023471
  22 H :    0.023471
  23 H :    0.047279
  24 H :    0.047279
  25 H :    0.047279
  26 H :    0.047278
  27 H :    0.020907
  28 H :    0.020907
  29 H :    0.020907
  30 H :    0.020907
  31 H :    0.006356
  32 H :    0.006356
Sum of atomic charges:   -0.0000000

--------------------------------
MULLIKEN REDUCED ORBITAL CHARGES
--------------------------------
  0 C s       :     3.092758  s :     3.092758
      pz      :     0.878756  p :     2.958679
      px      :     1.092006
      py      :     0.987917
      dz2     :     0.017566  d :     0.056517
      dxz     :     0.009467
      dyz     :     0.013666
      dx2y2   :     0.005595
      dxy     :     0.010223
  1 C s       :     3.092751  s :     3.092751
      pz      :     0.878759  p :     2.958684
      px      :     1.092005
      py      :     0.987920
      dz2     :     0.017566  d :     0.056517
      dxz     :     0.009467
      dyz     :     0.013666
      dx2y2   :     0.005595
      dxy     :     0.010223
  2 C s       :     3.617355  s :     3.617355
      pz      :     1.130910  p :     2.437947
      px      :     0.663146
      py      :     0.643892
      dz2     :     0.008757  d :     0.066124
      dxz     :     0.009964
      dyz     :     0.028243
      dx2y2   :     0.007154
      dxy     :     0.012007
  3 N s       :     3.399032  s :     3.399032
      pz      :     1.117916  p :     3.797594
      px      :     1.528742
      py      :     1.150936
      dz2     :     0.008553  d :     0.031306
      dxz     :     0.005429
      dyz     :     0.008490
      dx2y2   :     0.005273
      dxy     :     0.003560
  4 N s       :     3.399031  s :     3.399031
      pz      :     1.117915  p :     3.797593
      px      :     1.528742
      py      :     1.150936
      dz2     :     0.008553  d :     0.031306
      dxz     :     0.005429
      dyz     :     0.008490
      dx2y2   :     0.005273
      dxy     :     0.003560
  5 C s       :     2.899172  s :     2.899172
      pz      :     0.978791  p :     2.992880
      px      :     1.019138
      py      :     0.994952
      dz2     :     0.006407  d :     0.027760
      dxz     :     0.002022
      dyz     :     0.007689
      dx2y2   :     0.002281
      dxy     :     0.009361
  6 C s       :     2.899175  s :     2.899175
      pz      :     0.978791  p :     2.992881
      px      :     1.019139
      py      :     0.994951
      dz2     :     0.006407  d :     0.027760
      dxz     :     0.002022
      dyz     :     0.007689
      dx2y2   :     0.002281
      dxy     :     0.009361
  7 H s       :     0.932137  s :     0.932137
      pz      :     0.004221  p :     0.023785
      px      :     0.011560
      py      :     0.008004
  8 H s       :     0.932137  s :     0.932137
      pz      :     0.004221  p :     0.023785
      px      :     0.011560
      py      :     0.008004
  9 H s       :     0.932137  s :     0.932137
      pz      :     0.004221  p :     0.023785
      px      :     0.011560
      py      :     0.008004
 10 H s       :     0.932138  s :     0.932138
      pz      :     0.004221  p :     0.023785
      px      :     0.011560
      py      :     0.008004
 11 H s       :     0.957732  s :     0.957732
      pz      :     0.012204  p :     0.024244
      px      :     0.004933
      py      :     0.007107
 12 H s       :     0.957732  s :     0.957732
      pz      :     0.012204  p :     0.024244
      px      :     0.004933
      py      :     0.007107
 13 C s       :     2.999544  s :     2.999544
      pz      :     1.016413  p :     2.964244
      px      :     0.957953
      py      :     0.989878
      dz2     :     0.004097  d :     0.026500
      dxz     :     0.007325
      dyz     :     0.005155
      dx2y2   :     0.008160
      dxy     :     0.001764
 14 C s       :     2.999544  s :     2.999544
      pz      :     1.016414  p :     2.964244
      px      :     0.957952
      py      :     0.989878
      dz2     :     0.004097  d :     0.026500
      dxz     :     0.007325
      dyz     :     0.005155
      dx2y2   :     0.008160
      dxy     :     0.001764
 15 C s       :     2.999544  s :     2.999544
      pz      :     1.016413  p :     2.964244
      px      :     0.957951
      py      :     0.989879
      dz2     :     0.004097  d :     0.026500
      dxz     :     0.007325
      dyz     :     0.005155
      dx2y2   :     0.008160
      dxy     :     0.001764
 16 C s       :     2.999543  s :     2.999543
      pz      :     1.016413  p :     2.964244
      px      :     0.957952
      py      :     0.989879
      dz2     :     0.004097  d :     0.026500
      dxz     :     0.007325
      dyz     :     0.005155
      dx2y2   :     0.008160
      dxy     :     0.001764
 17 C s       :     3.071112  s :     3.071112
      pz      :     1.007009  p :     2.870926
      px      :     1.039342
      py      :     0.824575
      dz2     :     0.008319  d :     0.056826
      dxz     :     0.010162
      dyz     :     0.012271
      dx2y2   :     0.015924
      dxy     :     0.010152
 18 C s       :     3.071113  s :     3.071113
      pz      :     1.007010  p :     2.870925
      px      :     1.039340
      py      :     0.824574
      dz2     :     0.008319  d :     0.056826
      dxz     :     0.010162
      dyz     :     0.012271
      dx2y2   :     0.015924
      dxy     :     0.010152
 19 H s       :     0.953196  s :     0.953196
      pz      :     0.007349  p :     0.023333
      px      :     0.010783
      py      :     0.005202
 20 H s       :     0.953196  s :     0.953196
      pz      :     0.007349  p :     0.023333
      px      :     0.010783
      py      :     0.005202
 21 H s       :     0.953196  s :     0.953196
      pz      :     0.007349  p :     0.023333
      px      :     0.010783
      py      :     0.005202
 22 H s       :     0.953196  s :     0.953196
      pz      :     0.007349  p :     0.023333
      px      :     0.010783
      py      :     0.005202
 23 H s       :     0.928868  s :     0.928868
      pz      :     0.011469  p :     0.023853
      px      :     0.003829
      py      :     0.008555
 24 H s       :     0.928868  s :     0.928868
      pz      :     0.011469  p :     0.023853
      px      :     0.003829
      py      :     0.008555
 25 H s       :     0.928868  s :     0.928868
      pz      :     0.011469  p :     0.023853
      px      :     0.003829
      py      :     0.008555
 26 H s       :     0.928869  s :     0.928869
      pz      :     0.011469  p :     0.023853
      px      :     0.003829
      py      :     0.008555
 27 H s       :     0.955547  s :     0.955547
      pz      :     0.005439  p :     0.023546
      px      :     0.004105
      py      :     0.014002
 28 H s       :     0.955547  s :     0.955547
      pz      :     0.005439  p :     0.023546
      px      :     0.004105
      py      :     0.014002
 29 H s       :     0.955547  s :     0.955547
      pz      :     0.005439  p :     0.023546
      px      :     0.004105
      py      :     0.014002
 30 H s       :     0.955547  s :     0.955547
      pz      :     0.005439  p :     0.023546
      px      :     0.004105
      py      :     0.014002
 31 H s       :     0.972727  s :     0.972727
      pz      :     0.010994  p :     0.020917
      px      :     0.003660
      py      :     0.006263
 32 H s       :     0.972727  s :     0.972727
      pz      :     0.010994  p :     0.020917
      px      :     0.003660
      py      :     0.006263


                     *******************************
                     * LOEWDIN POPULATION ANALYSIS *
                     *******************************

----------------------
LOEWDIN ATOMIC CHARGES
----------------------
   0 C :   -0.049666
   1 C :   -0.049666
   2 C :   -0.251842
   3 N :    0.025753
   4 N :    0.025753
   5 C :   -0.059482
   6 C :   -0.059482
   7 H :    0.035160
   8 H :    0.035160
   9 H :    0.035160
  10 H :    0.035160
  11 H :    0.035840
  12 H :    0.035840
  13 C :   -0.056983
  14 C :   -0.056983
  15 C :   -0.056983
  16 C :   -0.056983
  17 C :    0.030256
  18 C :    0.030256
  19 H :    0.025339
  20 H :    0.025339
  21 H :    0.025339
  22 H :    0.025339
  23 H :    0.033596
  24 H :    0.033596
  25 H :    0.033596
  26 H :    0.033596
  27 H :    0.024658
  28 H :    0.024658
  29 H :    0.024658
  30 H :    0.024658
  31 H :    0.019679
  32 H :    0.019679

-------------------------------
LOEWDIN REDUCED ORBITAL CHARGES
-------------------------------
  0 C s       :     2.842990  s :     2.842990
      pz      :     0.942858  p :     3.069775
      px      :     1.072588
      py      :     1.054329
      dz2     :     0.045497  d :     0.136901
      dxz     :     0.018892
      dyz     :     0.037023
      dx2y2   :     0.015591
      dxy     :     0.019898
  1 C s       :     2.842990  s :     2.842990
      pz      :     0.942858  p :     3.069775
      px      :     1.072588
      py      :     1.054329
      dz2     :     0.045497  d :     0.136901
      dxz     :     0.018892
      dyz     :     0.037023
      dx2y2   :     0.015591
      dxy     :     0.019898
  2 C s       :     3.191826  s :     3.191826
      pz      :     1.374274  p :     2.916988
      px      :     0.718444
      py      :     0.824270
      dz2     :     0.014391  d :     0.143028
      dxz     :     0.014332
      dyz     :     0.066087
      dx2y2   :     0.022118
      dxy     :     0.026100
  3 N s       :     3.064851  s :     3.064851
      pz      :     1.189508  p :     3.835072
      px      :     1.453234
      py      :     1.192330
      dz2     :     0.022478  d :     0.074323
      dxz     :     0.010487
      dyz     :     0.023694
      dx2y2   :     0.011242
      dxy     :     0.006423
  4 N s       :     3.064851  s :     3.064851
      pz      :     1.189508  p :     3.835072
      px      :     1.453234
      py      :     1.192329
      dz2     :     0.022478  d :     0.074323
      dxz     :     0.010487
      dyz     :     0.023694
      dx2y2   :     0.011242
      dxy     :     0.006423
  5 C s       :     2.822998  s :     2.822998
      pz      :     1.046135  p :     3.162554
      px      :     1.068622
      py      :     1.047797
      dz2     :     0.017806  d :     0.073931
      dxz     :     0.004014
      dyz     :     0.021387
      dx2y2   :     0.005648
      dxy     :     0.025076
  6 C s       :     2.822998  s :     2.822998
      pz      :     1.046134  p :     3.162553
      px      :     1.068622
      py      :     1.047797
      dz2     :     0.017806  d :     0.073931
      dxz     :     0.004014
      dyz     :     0.021387
      dx2y2   :     0.005648
      dxy     :     0.025076
  7 H s       :     0.899782  s :     0.899782
      pz      :     0.012375  p :     0.065058
      px      :     0.031029
      py      :     0.021654
  8 H s       :     0.899782  s :     0.899782
      pz      :     0.012375  p :     0.065058
      px      :     0.031029
      py      :     0.021655
  9 H s       :     0.899782  s :     0.899782
      pz      :     0.012375  p :     0.065058
      px      :     0.031029
      py      :     0.021655
 10 H s       :     0.899782  s :     0.899782
      pz      :     0.012375  p :     0.065058
      px      :     0.031029
      py      :     0.021654
 11 H s       :     0.898923  s :     0.898923
      pz      :     0.033190  p :     0.065237
      px      :     0.012486
      py      :     0.019561
 12 H s       :     0.898923  s :     0.898923
      pz      :     0.033190  p :     0.065237
      px      :     0.012486
      py      :     0.019561
 13 C s       :     2.840644  s :     2.840644
      pz      :     1.061791  p :     3.146205
      px      :     1.023173
      py      :     1.061241
      dz2     :     0.009912  d :     0.070134
      dxz     :     0.019823
      dyz     :     0.013700
      dx2y2   :     0.022240
      dxy     :     0.004459
 14 C s       :     2.840644  s :     2.840644
      pz      :     1.061791  p :     3.146205
      px      :     1.023173
      py      :     1.061241
      dz2     :     0.009912  d :     0.070134
      dxz     :     0.019823
      dyz     :     0.013700
      dx2y2   :     0.022240
      dxy     :     0.004459
 15 C s       :     2.840644  s :     2.840644
      pz      :     1.061791  p :     3.146205
      px      :     1.023173
      py      :     1.061241
      dz2     :     0.009912  d :     0.070134
      dxz     :     0.019823
      dyz     :     0.013700
      dx2y2   :     0.022240
      dxy     :     0.004459
 16 C s       :     2.840644  s :     2.840644
      pz      :     1.061791  p :     3.146205
      px      :     1.023173
      py      :     1.061241
      dz2     :     0.009912  d :     0.070134
      dxz     :     0.019823
      dyz     :     0.013700
      dx2y2   :     0.022240
      dxy     :     0.004459
 17 C s       :     2.832654  s :     2.832654
      pz      :     1.047221  p :     3.006599
      px      :     1.057620
      py      :     0.901758
      dz2     :     0.017291  d :     0.130491
      dxz     :     0.025457
      dyz     :     0.029656
      dx2y2   :     0.037419
      dxy     :     0.020668
 18 C s       :     2.832654  s :     2.832654
      pz      :     1.047221  p :     3.006598
      px      :     1.057620
      py      :     0.901758
      dz2     :     0.017291  d :     0.130491
      dxz     :     0.025457
      dyz     :     0.029656
      dx2y2   :     0.037419
      dxy     :     0.020668
 19 H s       :     0.910119  s :     0.910119
      pz      :     0.020340  p :     0.064542
      px      :     0.031113
      py      :     0.013089
 20 H s       :     0.910119  s :     0.910119
      pz      :     0.020340  p :     0.064542
      px      :     0.031113
      py      :     0.013089
 21 H s       :     0.910119  s :     0.910119
      pz      :     0.020340  p :     0.064542
      px      :     0.031113
      py      :     0.013089
 22 H s       :     0.910119  s :     0.910119
      pz      :     0.020340  p :     0.064542
      px      :     0.031113
      py      :     0.013089
 23 H s       :     0.899908  s :     0.899908
      pz      :     0.032311  p :     0.066495
      px      :     0.011985
      py      :     0.022199
 24 H s       :     0.899908  s :     0.899908
      pz      :     0.032311  p :     0.066495
      px      :     0.011985
      py      :     0.022199
 25 H s       :     0.899908  s :     0.899908
      pz      :     0.032311  p :     0.066495
      px      :     0.011985
      py      :     0.022199
 26 H s       :     0.899908  s :     0.899908
      pz      :     0.032311  p :     0.066495
      px      :     0.011985
      py      :     0.022199
 27 H s       :     0.910695  s :     0.910695
      pz      :     0.014978  p :     0.064647
      px      :     0.012199
      py      :     0.037471
 28 H s       :     0.910695  s :     0.910695
      pz      :     0.014978  p :     0.064647
      px      :     0.012199
      py      :     0.037471
 29 H s       :     0.910695  s :     0.910695
      pz      :     0.014978  p :     0.064647
      px      :     0.012199
      py      :     0.037471
 30 H s       :     0.910695  s :     0.910695
      pz      :     0.014978  p :     0.064647
      px      :     0.012199
      py      :     0.037471
 31 H s       :     0.915238  s :     0.915238
      pz      :     0.031786  p :     0.065083
      px      :     0.013976
      py      :     0.019320
 32 H s       :     0.915238  s :     0.915238
      pz      :     0.031786  p :     0.065083
      px      :     0.013977
      py      :     0.019320


                      *****************************
                      * MAYER POPULATION ANALYSIS *
                      *****************************

  NA   - Mulliken gross atomic population
  ZA   - Total nuclear charge
  QA   - Mulliken gross atomic charge
  VA   - Mayer's total valence
  BVA  - Mayer's bonded valence
  FA   - Mayer's free valence

  ATOM       NA         ZA         QA         VA         BVA        FA
  0 C      6.1080     6.0000    -0.1080     4.0568     4.0568     0.0000
  1 C      6.1080     6.0000    -0.1080     4.0568     4.0568     0.0000
  2 C      6.1214     6.0000    -0.1214     2.7033     2.7033    -0.0000
  3 N      7.2279     7.0000    -0.2279     3.3210     3.3210    -0.0000
  4 N      7.2279     7.0000    -0.2279     3.3210     3.3210    -0.0000
  5 C      5.9198     6.0000     0.0802     3.9619     3.9619    -0.0000
  6 C      5.9198     6.0000     0.0802     3.9619     3.9619     0.0000
  7 H      0.9559     1.0000     0.0441     0.9877     0.9877    -0.0000
  8 H      0.9559     1.0000     0.0441     0.9877     0.9877    -0.0000
  9 H      0.9559     1.0000     0.0441     0.9877     0.9877    -0.0000
 10 H      0.9559     1.0000     0.0441     0.9877     0.9877     0.0000
 11 H      0.9820     1.0000     0.0180     1.0028     1.0028    -0.0000
 12 H      0.9820     1.0000     0.0180     1.0028     1.0028     0.0000
 13 C      5.9903     6.0000     0.0097     3.9530     3.9530    -0.0000
 14 C      5.9903     6.0000     0.0097     3.9530     3.9530    -0.0000
 15 C      5.9903     6.0000     0.0097     3.9530     3.9530    -0.0000
 16 C      5.9903     6.0000     0.0097     3.9530     3.9530    -0.0000
 17 C      5.9989     6.0000     0.0011     4.1025     4.1025    -0.0000
 18 C      5.9989     6.0000     0.0011     4.1025     4.1025    -0.0000
 19 H      0.9765     1.0000     0.0235     0.9950     0.9950    -0.0000
 20 H      0.9765     1.0000     0.0235     0.9950     0.9950    -0.0000
 21 H      0.9765     1.0000     0.0235     0.9950     0.9950    -0.0000
 22 H      0.9765     1.0000     0.0235     0.9950     0.9950    -0.0000
 23 H      0.9527     1.0000     0.0473     1.0152     1.0152     0.0000
 24 H      0.9527     1.0000     0.0473     1.0152     1.0152    -0.0000
 25 H      0.9527     1.0000     0.0473     1.0152     1.0152    -0.0000
 26 H      0.9527     1.0000     0.0473     1.0152     1.0152    -0.0000
 27 H      0.9791     1.0000     0.0209     0.9911     0.9911    -0.0000
 28 H      0.9791     1.0000     0.0209     0.9911     0.9911    -0.0000
 29 H      0.9791     1.0000     0.0209     0.9911     0.9911    -0.0000
 30 H      0.9791     1.0000     0.0209     0.9911     0.9911     0.0000
 31 H      0.9936     1.0000     0.0064     0.9871     0.9871    -0.0000
 32 H      0.9936     1.0000     0.0064     0.9871     0.9871    -0.0000

  Mayer bond orders larger than 0.100000
B(  0-C ,  1-C ) :   1.6603 B(  0-C ,  3-N ) :   1.1221 B(  0-C ,  5-C ) :   1.0905 
B(  1-C ,  4-N ) :   1.1221 B(  1-C ,  6-C ) :   1.0905 B(  2-C ,  3-N ) :   1.2348 
B(  2-C ,  4-N ) :   1.2348 B(  3-N , 17-C ) :   0.9104 B(  4-N , 18-C ) :   0.9104 
B(  5-C ,  7-H ) :   0.9499 B(  5-C , 10-H ) :   0.9499 B(  5-C , 11-H ) :   0.9448 
B(  6-C ,  8-H ) :   0.9499 B(  6-C ,  9-H ) :   0.9499 B(  6-C , 12-H ) :   0.9448 
B( 13-C , 17-C ) :   1.0736 B( 13-C , 19-H ) :   0.9671 B( 13-C , 23-H ) :   0.9640 
B( 13-C , 27-H ) :   0.9703 B( 14-C , 18-C ) :   1.0736 B( 14-C , 20-H ) :   0.9671 
B( 14-C , 24-H ) :   0.9640 B( 14-C , 28-H ) :   0.9703 B( 15-C , 18-C ) :   1.0736 
B( 15-C , 21-H ) :   0.9671 B( 15-C , 25-H ) :   0.9640 B( 15-C , 29-H ) :   0.9703 
B( 16-C , 17-C ) :   1.0736 B( 16-C , 22-H ) :   0.9671 B( 16-C , 26-H ) :   0.9640 
B( 16-C , 30-H ) :   0.9703 B( 17-C , 31-H ) :   0.9398 B( 18-C , 32-H ) :   0.9398 


-------
TIMINGS
-------

Total SCF time: 0 days 0 hours 1 min 49 sec 

Total time                  ....     109.675 sec
Sum of individual times     ....     109.212 sec  ( 99.6%)

Fock matrix formation       ....     105.927 sec  ( 96.6%)
  Split-RI-J                ....       4.426 sec  (  4.2% of F)
  Chain of spheres X        ....      93.757 sec  ( 88.5% of F)
  XC integration            ....       7.588 sec  (  7.2% of F)
    Basis function eval.    ....       2.664 sec  ( 35.1% of XC)
    Density eval.           ....       1.694 sec  ( 22.3% of XC)
    XC-Functional eval.     ....       1.007 sec  ( 13.3% of XC)
    XC-Potential eval.      ....       1.650 sec  ( 21.7% of XC)
Diagonalization             ....       0.113 sec  (  0.1%)
Density matrix formation    ....       0.013 sec  (  0.0%)
Population analysis         ....       0.018 sec  (  0.0%)
Initial guess               ....       0.390 sec  (  0.4%)
Orbital Transformation      ....       0.000 sec  (  0.0%)
Orbital Orthonormalization  ....       0.000 sec  (  0.0%)
DIIS solution               ....       0.063 sec  (  0.1%)
SOSCF solution              ....       0.089 sec  (  0.1%)
Grid generation             ....       2.599 sec  (  2.4%)

Maximum memory used throughout the entire SCF-calculation: 69.6 MB


-------------------------------------------------------------------------------
                          DFT DISPERSION CORRECTION                            
                                                                               
                                 DFTD4 V2.5                                    
-------------------------------------------------------------------------------
The WB97X functional is recognized
Active option DFTDOPT                   ...         5   

Starting D4
-------------------------   ----------------
Dispersion correction           -0.005728665
-------------------------   ----------------


-------------------------   --------------------
FINAL SINGLE POINT ENERGY      -540.185686676252
-------------------------   --------------------


                            ***************************************
                            *     ORCA property calculations      *
                            ***************************************

                                    ---------------------
                                    Active property flags
                                    ---------------------
   (+) Dipole Moment


------------------------------------------------------------------------------
                       ORCA ELECTRIC PROPERTIES CALCULATION
------------------------------------------------------------------------------

Dipole Moment Calculation                       ... on
Quadrupole Moment Calculation                   ... off
Polarizability Calculation                      ... off
GBWName                                         ... DFT_water_outs/6-gasSP.gbw
Electron density                                ... DFT_water_outs/6-gasSP.scfp
The origin for moment calculation is the CENTER OF MASS  = ( 0.000000,  0.000000  0.000316)

-------------
DIPOLE MOMENT
-------------
                                X             Y             Z
Electronic contribution:     -0.00000      -0.00000      -2.00105
Nuclear contribution   :      0.00000       0.00000       0.92911
                        -----------------------------------------
Total Dipole Moment    :     -0.00000      -0.00000      -1.07194
                        -----------------------------------------
Magnitude (a.u.)       :      1.07194
Magnitude (Debye)      :      2.72466



--------------------
Rotational spectrum 
--------------------
 
Rotational constants in cm-1:     0.035701     0.019180     0.014980 
Rotational constants in MHz :  1070.296874   574.999371   449.099251 

 Dipole components along the rotational axes: 
x,y,z [a.u.] :    -0.000001    -1.071943    -0.000000 
x,y,z [Debye]:    -0.000001    -2.724663    -0.000000 

 

Timings for individual modules:

Sum of individual times         ...      110.726 sec (=   1.845 min)
GTO integral calculation        ...        0.657 sec (=   0.011 min)   0.6 %
SCF iterations                  ...      110.069 sec (=   1.834 min)  99.4 %
                             ****ORCA TERMINATED NORMALLY****
TOTAL RUN TIME: 0 days 0 hours 1 minutes 51 seconds 356 msec
