
                                 *****************
                                 * O   R   C   A *
                                 *****************

                                            #,                                       
                                            ###                                      
                                            ####                                     
                                            #####                                    
                                            ######                                   
                                           ########,                                 
                                     ,,################,,,,,                         
                               ,,#################################,,                 
                          ,,##########################################,,             
                       ,#########################################, ''#####,          
                    ,#############################################,,   '####,        
                  ,##################################################,,,,####,       
                ,###########''''           ''''###############################       
              ,#####''   ,,,,##########,,,,          '''####'''          '####       
            ,##' ,,,,###########################,,,                        '##       
           ' ,,###''''                  '''############,,,                           
         ,,##''                                '''############,,,,        ,,,,,,###''
      ,#''                                            '''#######################'''  
     '                                                          ''''####''''         
             ,#######,   #######,   ,#######,      ##                                
            ,#'     '#,  ##    ##  ,#'     '#,    #''#        ######   ,####,        
            ##       ##  ##   ,#'  ##            #'  '#       #        #'  '#        
            ##       ##  #######   ##           ,######,      #####,   #    #        
            '#,     ,#'  ##    ##  '#,     ,#' ,#      #,         ##   #,  ,#        
             '#######'   ##     ##  '#######'  #'      '#     #####' # '####'        



                  #######################################################
                  #                        -***-                        #
                  #          Department of theory and spectroscopy      #
                  #    Directorship and core code : Frank Neese         #
                  #        Max Planck Institute fuer Kohlenforschung    #
                  #                Kaiser Wilhelm Platz 1               #
                  #                 D-45470 Muelheim/Ruhr               #
                  #                      Germany                        #
                  #                                                     #
                  #                  All rights reserved                #
                  #                        -***-                        #
                  #######################################################


                         Program Version 5.0.4 -  RELEASE  -


 With contributions from (in alphabetic order):
   Daniel Aravena         : Magnetic Suceptibility
   Michael Atanasov       : Ab Initio Ligand Field Theory (pilot matlab implementation)
   Alexander A. Auer      : GIAO ZORA, VPT2 properties, NMR spectrum
   Ute Becker             : Parallelization
   Giovanni Bistoni       : ED, misc. LED, open-shell LED, HFLD
   Martin Brehm           : Molecular dynamics
   Dmytro Bykov           : SCF Hessian
   Vijay G. Chilkuri      : MRCI spin determinant printing, contributions to CSF-ICE
   Dipayan Datta          : RHF DLPNO-CCSD density
   Achintya Kumar Dutta   : EOM-CC, STEOM-CC
   Dmitry Ganyushin       : Spin-Orbit,Spin-Spin,Magnetic field MRCI
   Miquel Garcia          : C-PCM and meta-GGA Hessian, CC/C-PCM, Gaussian charge scheme
   Yang Guo               : DLPNO-NEVPT2, F12-NEVPT2, CIM, IAO-localization
   Andreas Hansen         : Spin unrestricted coupled pair/coupled cluster methods
   Benjamin Helmich-Paris : MC-RPA, TRAH-SCF, COSX integrals
   Lee Huntington         : MR-EOM, pCC
   Robert Izsak           : Overlap fitted RIJCOSX, COSX-SCS-MP3, EOM
   Marcus Kettner         : VPT2
   Christian Kollmar      : KDIIS, OOCD, Brueckner-CCSD(T), CCSD density, CASPT2, CASPT2-K
   Simone Kossmann        : Meta GGA functionals, TD-DFT gradient, OOMP2, MP2 Hessian
   Martin Krupicka        : Initial AUTO-CI
   Lucas Lang             : DCDCAS
   Marvin Lechner         : AUTO-CI (C++ implementation), FIC-MRCC
   Dagmar Lenk            : GEPOL surface, SMD
   Dimitrios Liakos       : Extrapolation schemes; Compound Job, initial MDCI parallelization
   Dimitrios Manganas     : Further ROCIS development; embedding schemes
   Dimitrios Pantazis     : SARC Basis sets
   Anastasios Papadopoulos: AUTO-CI, single reference methods and gradients
   Taras Petrenko         : DFT Hessian,TD-DFT gradient, ASA, ECA, R-Raman, ABS, FL, XAS/XES, NRVS
   Peter Pinski           : DLPNO-MP2, DLPNO-MP2 Gradient
   Christoph Reimann      : Effective Core Potentials
   Marius Retegan         : Local ZFS, SOC
   Christoph Riplinger    : Optimizer, TS searches, QM/MM, DLPNO-CCSD(T), (RO)-DLPNO pert. Triples
   Tobias Risthaus        : Range-separated hybrids, TD-DFT gradient, RPA, STAB
   Michael Roemelt        : Original ROCIS implementation
   Masaaki Saitow         : Open-shell DLPNO-CCSD energy and density
   Barbara Sandhoefer     : DKH picture change effects
   Avijit Sen             : IP-ROCIS
   Kantharuban Sivalingam : CASSCF convergence, NEVPT2, FIC-MRCI
   Bernardo de Souza      : ESD, SOC TD-DFT
   Georgi Stoychev        : AutoAux, RI-MP2 NMR, DLPNO-MP2 response
   Willem Van den Heuvel  : Paramagnetic NMR
   Boris Wezisla          : Elementary symmetry handling
   Frank Wennmohs         : Technical directorship


 We gratefully acknowledge several colleagues who have allowed us to
 interface, adapt or use parts of their codes:
   Stefan Grimme, W. Hujo, H. Kruse, P. Pracht,  : VdW corrections, initial TS optimization,
                  C. Bannwarth, S. Ehlert          DFT functionals, gCP, sTDA/sTD-DF
   Ed Valeev, F. Pavosevic, A. Kumar             : LibInt (2-el integral package), F12 methods
   Garnet Chan, S. Sharma, J. Yang, R. Olivares  : DMRG
   Ulf Ekstrom                                   : XCFun DFT Library
   Mihaly Kallay                                 : mrcc  (arbitrary order and MRCC methods)
   Jiri Pittner, Ondrej Demel                    : Mk-CCSD
   Frank Weinhold                                : gennbo (NPA and NBO analysis)
   Christopher J. Cramer and Donald G. Truhlar   : smd solvation model
   Lars Goerigk                                  : TD-DFT with DH, B97 family of functionals
   V. Asgeirsson, H. Jonsson                     : NEB implementation
   FAccTs GmbH                                   : IRC, NEB, NEB-TS, DLPNO-Multilevel, CI-OPT
                                                   MM, QMMM, 2- and 3-layer-ONIOM, Crystal-QMMM,
                                                   LR-CPCM, SF, NACMEs, symmetry and pop. for TD-DFT,
                                                   nearIR, NL-DFT gradient (VV10), updates on ESD,
                                                   ML-optimized integration grids
   S Lehtola, MJT Oliveira, MAL Marques          : LibXC Library
   Liviu Ungur et al                             : ANISO software


 Your calculation uses the libint2 library for the computation of 2-el integrals
 For citations please refer to: http://libint.valeyev.net

 Your ORCA version has been built with support for libXC version: 5.1.0
 For citations please refer to: https://tddft.org/programs/libxc/

 This ORCA versions uses:
   CBLAS   interface :  Fast vector & matrix operations
   LAPACKE interface :  Fast linear algebra routines
   SCALAPACK package :  Parallel linear algebra routines
   Shared memory     :  Shared parallel matrices
   BLAS/LAPACK       :  OpenBLAS 0.3.15  USE64BITINT DYNAMIC_ARCH NO_AFFINITY SkylakeX SINGLE_THREADED
        Core in use  :  SkylakeX
   Copyright (c) 2011-2014, The OpenBLAS Project




***************************************
The coordinates will be read from file: 6.xyz
***************************************


Your calculation utilizes the atom-pairwise dispersion correction
based on tight binding partial charges (D4)
Cite in your paper:
E.Caldeweyher, C.Bannwarth, S.Grimme, J.Chem.Phys., (2017), 147, 034112.
E.Caldeweyher, S.Ehlert, A.Hansen, H.Neugebauer, S.Grimme, J.Chem.Phys., (2018), in progress.
   

XCFun DFT library Copyright 2009-2010 Ulf Ekstrom and contributors.
See http://admol.org/xcfun for more information.
This is free software; see the source code for copying conditions.
There is ABSOLUTELY NO WARRANTY; not even for MERCHANTABILITY or FITNESS FOR A PARTICULAR PURPOSE.
For details see the documentation.
Scientific users of this library should cite U. Ekstrom, L. Visscher, R. Bast, A. J. Thorvaldsen and K. Ruud;
J.Chem.Theor.Comp. 2010, DOI: 10.1021/ct100117s
XCFun Version 0.99 

================================================================================

----- Orbital basis set information -----
Your calculation utilizes the basis: def2-SVP
   F. Weigend and R. Ahlrichs, Phys. Chem. Chem. Phys. 7, 3297 (2005).

----- AuxJ basis set information -----
Your calculation utilizes the auxiliary basis: def2/J
   F. Weigend, Phys. Chem. Chem. Phys. 8, 1057 (2006).

================================================================================
                                        WARNINGS
                       Please study these warnings very carefully!
================================================================================


INFO   : the flag for use of the SHARK integral package has been found!

================================================================================
                                       INPUT FILE
================================================================================
NAME = 6.inp
|  1> # ORCA 5.0.4 - 6.inp # write input file
|  2> # Basic Mode
|  3> #
|  4> ! Freq wB97X Def2-SVP D4 SlowConv TightSCF DEFGRID2 Def2/J RIJCOSX 
|  5> 
|  6> 
|  7> 
|  8> %maxcore 4500
|  9> 
| 10> %geom
| 11> Maxiter 150
| 12> END
| 13> 
| 14> * xyzfile 0 1 6.xyz
| 15> 
| 16>                          ****END OF INPUT****
================================================================================

                       ****************************
                       * Single Point Calculation *
                       ****************************

---------------------------------
CARTESIAN COORDINATES (ANGSTROEM)
---------------------------------
  C      0.000001    0.681063   -1.284902
  C      0.000001   -0.681063   -1.284901
  C      0.000005    0.000000    0.900385
  N      0.000003    1.061709    0.058293
  N      0.000003   -1.061708    0.058294
  C      0.000000    1.645632   -2.424841
  C     -0.000001   -1.645633   -2.424840
  H     -0.889595    2.295772   -2.411706
  H     -0.889598   -2.295772   -2.411704
  H      0.889594   -2.295773   -2.411707
  H      0.889597    2.295771   -2.411708
  H     -0.000001    1.098690   -3.377552
  H     -0.000002   -1.098691   -3.377552
  C     -1.267586    2.763518    1.312888
  C     -1.267587   -2.763519    1.312885
  C      1.267586   -2.763522    1.312888
  C      1.267586    2.763524    1.312886
  C      0.000000    2.453876    0.525290
  C      0.000001   -2.453875    0.525290
  H     -2.164507    2.557273    0.708596
  H     -2.164507   -2.557274    0.708592
  H      2.164508   -2.557278    0.708598
  H      2.164508    2.557282    0.708595
  H     -1.314557    2.146766    2.223588
  H     -1.314560   -2.146768    2.223587
  H      1.314558   -2.146773    2.223590
  H      1.314560    2.146773    2.223588
  H     -1.284089    3.824111    1.606975
  H     -1.284090   -3.824112    1.606972
  H      1.284086   -3.824116    1.606974
  H      1.284085    3.824117    1.606973
  H     -0.000001    3.077561   -0.380947
  H      0.000001   -3.077560   -0.380947

----------------------------
CARTESIAN COORDINATES (A.U.)
----------------------------
  NO LB      ZA    FRAG     MASS         X           Y           Z
   0 C     6.0000    0    12.011    0.000002    1.287023   -2.428113
   1 C     6.0000    0    12.011    0.000002   -1.287023   -2.428111
   2 C     6.0000    0    12.011    0.000009    0.000000    1.701481
   3 N     7.0000    0    14.007    0.000006    2.006339    0.110158
   4 N     7.0000    0    14.007    0.000006   -2.006337    0.110160
   5 C     6.0000    0    12.011    0.000000    3.109794   -4.582285
   6 C     6.0000    0    12.011   -0.000002   -3.109796   -4.582284
   7 H     1.0000    0     1.008   -1.681091    4.338380   -4.557464
   8 H     1.0000    0     1.008   -1.681097   -4.338380   -4.557460
   9 H     1.0000    0     1.008    1.681089   -4.338382   -4.557466
  10 H     1.0000    0     1.008    1.681095    4.338378   -4.557468
  11 H     1.0000    0     1.008   -0.000002    2.076223   -6.382648
  12 H     1.0000    0     1.008   -0.000004   -2.076225   -6.382648
  13 C     6.0000    0    12.011   -2.395390    5.222292    2.480999
  14 C     6.0000    0    12.011   -2.395392   -5.222294    2.480993
  15 C     6.0000    0    12.011    2.395390   -5.222300    2.480999
  16 C     6.0000    0    12.011    2.395390    5.222304    2.480995
  17 C     6.0000    0    12.011    0.000000    4.637154    0.992654
  18 C     6.0000    0    12.011    0.000002   -4.637152    0.992654
  19 H     1.0000    0     1.008   -4.090325    4.832546    1.339052
  20 H     1.0000    0     1.008   -4.090325   -4.832548    1.339045
  21 H     1.0000    0     1.008    4.090327   -4.832555    1.339056
  22 H     1.0000    0     1.008    4.090327    4.832563    1.339050
  23 H     1.0000    0     1.008   -2.484153    4.056800    4.201972
  24 H     1.0000    0     1.008   -2.484158   -4.056804    4.201970
  25 H     1.0000    0     1.008    2.484155   -4.056813    4.201976
  26 H     1.0000    0     1.008    2.484158    4.056813    4.201972
  27 H     1.0000    0     1.008   -2.426577    7.226522    3.036743
  28 H     1.0000    0     1.008   -2.426578   -7.226524    3.036737
  29 H     1.0000    0     1.008    2.426571   -7.226532    3.036741
  30 H     1.0000    0     1.008    2.426569    7.226534    3.036739
  31 H     1.0000    0     1.008   -0.000002    5.815747   -0.719886
  32 H     1.0000    0     1.008    0.000002   -5.815746   -0.719886

--------------------------------
INTERNAL COORDINATES (ANGSTROEM)
--------------------------------
 C      0   0   0     0.000000000000     0.00000000     0.00000000
 C      1   0   0     1.362126000000     0.00000000     0.00000000
 C      2   1   0     2.288956467865    72.68995177     0.00000000
 N      3   2   1     1.355118052846    68.89048026     0.00000000
 N      3   2   1     1.355116647949    34.27030653   179.99996555
 C      1   2   3     1.493269660672   130.23655359   179.99994538
 C      2   1   3     1.493270306617   130.23649875   180.00000444
 H      6   1   2     1.101922779441   111.83971463   119.57226225
 H      7   2   1     1.101923815981   111.83966191   240.42783385
 H      7   2   1     1.101922755602   111.83971499   119.57226373
 H      6   1   2     1.101923780222   111.83967637   240.42784342
 H      6   1   2     1.098546221552   109.90377959     0.00000000
 H      7   2   1     1.098547088799   109.90377626     0.00000000
 C      4   3   2     2.465145910373   102.98029848   148.15055433
 C      5   3   2     2.465145769544   102.98040172   211.84946960
 C      5   3   2     2.465145767966   102.98032408   148.15079958
 C      4   3   2     2.465145949384   102.98035079   211.84918065
 C      4   3   2     1.468405650325   123.03656259   179.99984068
 C      5   3   2     1.468405332294   123.03660643   180.00009180
 H     14   4   3     1.100987330322    90.58679393   258.63541330
 H     15   5   3     1.100987064535    90.58680212   101.36462124
 H     16   5   3     1.100986859922    90.58678725   258.63557902
 H     17   4   3     1.100987034133    90.58684089   101.36453073
 H     14   4   3     1.100892271907    93.22143582     7.02200824
 H     15   5   3     1.100893451490    93.22147308   352.97801159
 H     16   5   3     1.100892288368    93.22153336     7.02216823
 H     17   4   3     1.100893494159    93.22147892   352.97796669
 H     14   4   3     1.100734765612   143.98423290   135.28938483
 H     15   5   3     1.100734765612   143.98427192   224.71073781
 H     16   5   3     1.100735416997   143.98424662   135.28949464
 H     17   4   3     1.100734705648   143.98425770   224.71068066
 H     18   4   3     1.100112939382   105.99246593   179.99999609
 H     19   5   3     1.100112939381   105.99250293   180.00007249

---------------------------
INTERNAL COORDINATES (A.U.)
---------------------------
 C      0   0   0     0.000000000000     0.00000000     0.00000000
 C      1   0   0     2.574045099894     0.00000000     0.00000000
 C      2   1   0     4.325500856733    72.68995177     0.00000000
 N      3   2   1     2.560801999011    68.89048026     0.00000000
 N      3   2   1     2.560799344141    34.27030653   179.99996555
 C      1   2   3     2.821870702763   130.23655359   179.99994538
 C      2   1   3     2.821871923423   130.23649875   180.00000444
 H      6   1   2     2.082332273872   111.83971463   119.57226225
 H      7   2   1     2.082334232649   111.83966191   240.42783385
 H      7   2   1     2.082332228824   111.83971499   119.57226373
 H      6   1   2     2.082334165075   111.83967637   240.42784342
 H      6   1   2     2.075951504187   109.90377959     0.00000000
 H      7   2   1     2.075953143047   109.90377626     0.00000000
 C      4   3   2     4.658450650760   102.98029848   148.15055433
 C      5   3   2     4.658450384633   102.98040172   211.84946960
 C      5   3   2     4.658450381651   102.98032408   148.15079958
 C      4   3   2     4.658450724481   102.98035079   211.84918065
 C      4   3   2     2.774884532617   123.03656259   179.99984068
 C      5   3   2     2.774883931625   123.03660643   180.00009180
 H     14   4   3     2.080564531226    90.58679393   258.63541330
 H     15   5   3     2.080564028962    90.58680212   101.36462124
 H     16   5   3     2.080563642298    90.58678725   258.63557902
 H     17   4   3     2.080563971510    90.58684089   101.36453073
 H     14   4   3     2.080384896855    93.22143582     7.02200824
 H     15   5   3     2.080387125944    93.22147308   352.97801159
 H     16   5   3     2.080384927962    93.22153336     7.02216823
 H     17   4   3     2.080387206576    93.22147892   352.97796669
 H     14   4   3     2.080087253093   143.98423290   135.28938483
 H     15   5   3     2.080087253093   143.98427192   224.71073781
 H     16   5   3     2.080088484032   143.98424662   135.28949464
 H     17   4   3     2.080087139778   143.98425770   224.71068066
 H     18   4   3     2.078912171814   105.99246593   179.99999609
 H     19   5   3     2.078912171814   105.99250293   180.00007249

---------------------
BASIS SET INFORMATION
---------------------
There are 3 groups of distinct atoms

 Group   1 Type C   : 7s4p1d contracted to 3s2p1d pattern {511/31/1}
 Group   2 Type N   : 7s4p1d contracted to 3s2p1d pattern {511/31/1}
 Group   3 Type H   : 4s1p contracted to 2s1p pattern {31/1}

Atom   0C    basis set group =>   1
Atom   1C    basis set group =>   1
Atom   2C    basis set group =>   1
Atom   3N    basis set group =>   2
Atom   4N    basis set group =>   2
Atom   5C    basis set group =>   1
Atom   6C    basis set group =>   1
Atom   7H    basis set group =>   3
Atom   8H    basis set group =>   3
Atom   9H    basis set group =>   3
Atom  10H    basis set group =>   3
Atom  11H    basis set group =>   3
Atom  12H    basis set group =>   3
Atom  13C    basis set group =>   1
Atom  14C    basis set group =>   1
Atom  15C    basis set group =>   1
Atom  16C    basis set group =>   1
Atom  17C    basis set group =>   1
Atom  18C    basis set group =>   1
Atom  19H    basis set group =>   3
Atom  20H    basis set group =>   3
Atom  21H    basis set group =>   3
Atom  22H    basis set group =>   3
Atom  23H    basis set group =>   3
Atom  24H    basis set group =>   3
Atom  25H    basis set group =>   3
Atom  26H    basis set group =>   3
Atom  27H    basis set group =>   3
Atom  28H    basis set group =>   3
Atom  29H    basis set group =>   3
Atom  30H    basis set group =>   3
Atom  31H    basis set group =>   3
Atom  32H    basis set group =>   3
---------------------------------
AUXILIARY/J BASIS SET INFORMATION
---------------------------------
There are 3 groups of distinct atoms

 Group   1 Type C   : 12s5p4d2f1g contracted to 6s4p3d1f1g pattern {711111/2111/211/2/1}
 Group   2 Type N   : 12s5p4d2f1g contracted to 6s4p3d1f1g pattern {711111/2111/211/2/1}
 Group   3 Type H   : 5s2p1d contracted to 3s1p1d pattern {311/2/1}

Atom   0C    basis set group =>   1
Atom   1C    basis set group =>   1
Atom   2C    basis set group =>   1
Atom   3N    basis set group =>   2
Atom   4N    basis set group =>   2
Atom   5C    basis set group =>   1
Atom   6C    basis set group =>   1
Atom   7H    basis set group =>   3
Atom   8H    basis set group =>   3
Atom   9H    basis set group =>   3
Atom  10H    basis set group =>   3
Atom  11H    basis set group =>   3
Atom  12H    basis set group =>   3
Atom  13C    basis set group =>   1
Atom  14C    basis set group =>   1
Atom  15C    basis set group =>   1
Atom  16C    basis set group =>   1
Atom  17C    basis set group =>   1
Atom  18C    basis set group =>   1
Atom  19H    basis set group =>   3
Atom  20H    basis set group =>   3
Atom  21H    basis set group =>   3
Atom  22H    basis set group =>   3
Atom  23H    basis set group =>   3
Atom  24H    basis set group =>   3
Atom  25H    basis set group =>   3
Atom  26H    basis set group =>   3
Atom  27H    basis set group =>   3
Atom  28H    basis set group =>   3
Atom  29H    basis set group =>   3
Atom  30H    basis set group =>   3
Atom  31H    basis set group =>   3
Atom  32H    basis set group =>   3
------------------------------------------------------------------------------
                           ORCA GTO INTEGRAL CALCULATION
                           -- RI-GTO INTEGRALS CHOSEN --
------------------------------------------------------------------------------
------------------------------------------------------------------------------
                   ___                                                        
                  /   \      - P O W E R E D   B Y -                         
                 /     \                                                     
                 |  |  |   _    _      __       _____    __    __             
                 |  |  |  | |  | |    /  \     |  _  \  |  |  /  |          
                  \  \/   | |  | |   /    \    | | | |  |  | /  /          
                 / \  \   | |__| |  /  /\  \   | |_| |  |  |/  /          
                |  |  |   |  __  | /  /__\  \  |    /   |      \           
                |  |  |   | |  | | |   __   |  |    \   |  |\   \          
                \     /   | |  | | |  |  |  |  | |\  \  |  | \   \       
                 \___/    |_|  |_| |__|  |__|  |_| \__\ |__|  \__/        
                                                                              
                      - O R C A' S   B I G   F R I E N D -                    
                                      &                                       
                       - I N T E G R A L  F E E D E R -                       
                                                                              
 v1 FN, 2020, v2 2021                                                         
------------------------------------------------------------------------------


Reading SHARK input file 6.SHARKINP.tmp ... ok
----------------------
SHARK INTEGRAL PACKAGE
----------------------

Number of atoms                             ...     33
Number of basis functions                   ...    282
Number of shells                            ...    138
Maximum angular momentum                    ...      2
Integral batch strategy                     ... SHARK/LIBINT Hybrid
RI-J (if used) integral strategy            ... SPLIT-RIJ (Revised 2003 algorithm where possible)
Printlevel                                  ...      1
Contraction scheme used                     ... SEGMENTED contraction
Coulomb Range Separation                    ... NOT USED
Exchange Range Separation                   ... Long Range
   Mu parameter                             ...  0.300000
   Scaling (regular/separated)              ...  0.157706  0.842294
Finite Nucleus Model                        ... NOT USED
Auxiliary Coulomb fitting basis             ... AVAILABLE
   # of basis functions in Aux-J            ...    857
   # of shells in Aux-J                     ...    295
   Maximum angular momentum in Aux-J        ...      4
Auxiliary J/K fitting basis                 ... NOT available
Auxiliary Correlation fitting basis         ... NOT available
Auxiliary 'external' fitting basis          ... NOT available
Integral threshold                          ...     2.500000e-11
Primitive cut-off                           ...     2.500000e-12
Primitive pair pre-selection threshold      ...     2.500000e-12

Calculating pre-screening integrals         ... done (  0.1 sec) Dimension = 138
Organizing shell pair data                  ... done (  0.1 sec)
Shell pair information
Total number of shell pairs                 ...      9591
Shell pairs after pre-screening             ...      8209
Total number of primitive shell pairs       ...     33125
Primitive shell pairs kept                  ...     19584
          la=0 lb=0:   2802 shell pairs
          la=1 lb=0:   3102 shell pairs
          la=1 lb=1:    882 shell pairs
          la=2 lb=0:    867 shell pairs
          la=2 lb=1:    480 shell pairs
          la=2 lb=2:     76 shell pairs

Calculating one electron integrals          ... done (  0.1 sec)
Calculating RI/J V-Matrix + Cholesky decomp.... done (  0.1 sec)
Calculating Nuclear repulsion               ... done (  0.0 sec) ENN=    851.704108383415 Eh

SHARK setup successfully completed in   0.4 seconds

Maximum memory used throughout the entire GTOINT-calculation: 47.2 MB
-------------------------------------------------------------------------------
                                 ORCA SCF
-------------------------------------------------------------------------------

------------
SCF SETTINGS
------------
Hamiltonian:
 Density Functional     Method          .... DFT(GTOs)
 Exchange Functional    Exchange        .... WB97X
 Correlation Functional Correlation     .... WB97X
 Gradients option       PostSCFGGA      .... off
 Hybrid DFT is turned on
   Fraction HF Exchange ScalHFX         ....  0.157706
   Scaling of DF-GGA-X  ScalDFX         ....  0.000000
   Scaling of DF-GGA-C  ScalDFC         ....  1.000000
   Scaling of DF-LDA-C  ScalLDAC        ....  1.000000
   Perturbative correction              ....  0.000000
   Density functional embedding theory  .... OFF
 Long-range corrected/Screened/Range-Separated Hybrid DFT is turned on
   Amount of maximum screened exact exchange              ....  0.842294
   Range separation parameter mu (erf(mu*r12)/r12)        ....  0.300000
 RI-approximation to the Coulomb term is turned on
   Number of AuxJ basis functions       .... 857
   RIJ-COSX (HFX calculated with COS-X)).... on


General Settings:
 Integral files         IntName         .... 6
 Hartree-Fock type      HFTyp           .... RHF
 Total Charge           Charge          ....    0
 Multiplicity           Mult            ....    1
 Number of Electrons    NEL             ....  100
 Basis Dimension        Dim             ....  282
 Nuclear Repulsion      ENuc            ....    851.7041083834 Eh

Convergence Acceleration:
 DIIS                   CNVDIIS         .... on
   Start iteration      DIISMaxIt       ....     0
   Startup error        DIISStart       ....  0.200000
   # of expansion vecs  DIISMaxEq       ....     5
   Bias factor          DIISBfac        ....   1.050
   Max. coefficient     DIISMaxC        ....  10.000
 Trust-Rad. Augm. Hess. CNVTRAH         .... auto
   Auto Start mean grad. ratio tolernc. ....  1.125000
   Auto Start start iteration           ....    20
   Auto Start num. interpolation iter.  ....    10
   Max. Number of Micro iterations      ....    16
   Max. Number of Macro iterations      .... Maxiter - #DIIS iter
   Number of Davidson start vectors     ....     2
   Converg. threshold I  (grad. norm)   ....   1.000e-05
   Converg. threshold II (energy diff.) ....   1.000e-08
   Grad. Scal. Fac. for Micro threshold ....   0.100
   Minimum threshold for Micro iter.    ....   0.010
   NR start threshold (gradient norm)   ....   0.001
   Initial trust radius                 ....   0.400
   Minimum AH scaling param. (alpha)    ....   1.000
   Maximum AH scaling param. (alpha)    .... 1000.000
   Orbital update algorithm             .... Taylor
   White noise on init. David. guess    .... on
   Maximum white noise                  ....   0.010
   Quad. conv. algorithm                .... NR
 SOSCF                  CNVSOSCF        .... on
   Start iteration      SOSCFMaxIt      ....   150
   Startup grad/error   SOSCFStart      ....  0.001000
 Level Shifting         CNVShift        .... on
   Level shift para.    LevelShift      ....    0.2500
   Turn off err/grad.   ShiftErr        ....    0.0000
 Zerner damping         CNVZerner       .... off
 Static damping         CNVDamp         .... on
   Fraction old density DampFac         ....    0.8500
   Max. Damping (<1)    DampMax         ....    0.9800
   Min. Damping (>=0)   DampMin         ....    0.0000
   Turn off err/grad.   DampErr         ....    0.0300
 Fernandez-Rico         CNVRico         .... off

SCF Procedure:
 Maximum # iterations   MaxIter         ....   125
 SCF integral mode      SCFMode         .... Direct
   Integral package                     .... SHARK and LIBINT hybrid scheme
 Reset frequency        DirectResetFreq ....    20
 Integral Threshold     Thresh          ....  2.500e-11 Eh
 Primitive CutOff       TCut            ....  2.500e-12 Eh

Convergence Tolerance:
 Convergence Check Mode ConvCheckMode   .... Total+1el-Energy
 Convergence forced     ConvForced      .... 0
 Energy Change          TolE            ....  1.000e-08 Eh
 1-El. energy change                    ....  1.000e-05 Eh
 Orbital Gradient       TolG            ....  1.000e-05
 Orbital Rotation angle TolX            ....  1.000e-05
 DIIS Error             TolErr          ....  5.000e-07


Diagonalization of the overlap matrix:
Smallest eigenvalue                        ... 8.936e-04
Time for diagonalization                   ...    0.013 sec
Threshold for overlap eigenvalues          ... 1.000e-08
Number of eigenvalues below threshold      ... 0
Time for construction of square roots      ...    0.005 sec
Total time needed                          ...    0.019 sec

Time for model grid setup =    0.760 sec

------------------------------
INITIAL GUESS: MODEL POTENTIAL
------------------------------
Loading Hartree-Fock densities                     ... done
Calculating cut-offs                               ... done
Initializing the effective Hamiltonian             ... done
Setting up the integral package (SHARK)            ... done
Starting the Coulomb interaction                   ... done (   0.8 sec)
Reading the grid                                   ... done
Mapping shells                                     ... done
Starting the XC term evaluation                    ... done (   0.8 sec)
  promolecular density results
     # of electrons  =     99.985264823
     EX              =    -75.264354547
     EC              =     -3.302133566
     EX+EC           =    -78.566488112
Transforming the Hamiltonian                       ... done (   0.0 sec)
Diagonalizing the Hamiltonian                      ... done (   0.0 sec)
Back transforming the eigenvectors                 ... done (   0.0 sec)
Now organizing SCF variables                       ... done
                      ------------------
                      INITIAL GUESS DONE (   2.3 sec)
                      ------------------
-------------------
DFT GRID GENERATION
-------------------

General Integration Accuracy     IntAcc      ... 4.388
Radial Grid Type                 RadialGrid  ... OptM3 with GC (2021)
Angular Grid (max. ang.)         AngularGrid ... 4 (Lebedev-302)
Angular grid pruning method      GridPruning ... 4 (adaptive)
Weight generation scheme         WeightScheme... Becke
Basis function cutoff            BFCut       ... 1.0000e-11
Integration weight cutoff        WCut        ... 1.0000e-14
Angular grids for H and He will be reduced by one unit
Partially contracted basis set               ... off
Rotationally invariant grid construction     ... off

Total number of grid points                  ...   141335
Total number of batches                      ...     2225
Average number of points per batch           ...       63
Average number of grid points per atom       ...     4283
Time for grid setup =    2.726 sec

--------------------
COSX GRID GENERATION
--------------------

GRIDX 1
-------
General Integration Accuracy     IntAcc      ... 3.816
Radial Grid Type                 RadialGrid  ... OptM3 with GC (2021)
Angular Grid (max. ang.)         AngularGrid ... 1 (Lebedev-50)
Angular grid pruning method      GridPruning ... 4 (adaptive)
Weight generation scheme         WeightScheme... Becke
Basis function cutoff            BFCut       ... 1.0000e-11
Integration weight cutoff        WCut        ... 1.0000e-14
Angular grids for H and He will be reduced by one unit
Partially contracted basis set               ... on
Rotationally invariant grid construction     ... off

Total number of grid points                  ...    18079
Total number of batches                      ...      302
Average number of points per batch           ...       59
Average number of grid points per atom       ...      548
UseSFitting                                  ... on

GRIDX 2
-------
General Integration Accuracy     IntAcc      ... 4.020
Radial Grid Type                 RadialGrid  ... OptM3 with GC (2021)
Angular Grid (max. ang.)         AngularGrid ... 2 (Lebedev-110)
Angular grid pruning method      GridPruning ... 4 (adaptive)
Weight generation scheme         WeightScheme... Becke
Basis function cutoff            BFCut       ... 1.0000e-11
Integration weight cutoff        WCut        ... 1.0000e-14
Angular grids for H and He will be reduced by one unit
Partially contracted basis set               ... on
Rotationally invariant grid construction     ... off

Total number of grid points                  ...    37631
Total number of batches                      ...      607
Average number of points per batch           ...       61
Average number of grid points per atom       ...     1140
UseSFitting                                  ... on

GRIDX 3
-------
General Integration Accuracy     IntAcc      ... 4.338
Radial Grid Type                 RadialGrid  ... OptM3 with GC (2021)
Angular Grid (max. ang.)         AngularGrid ... 3 (Lebedev-194)
Angular grid pruning method      GridPruning ... 4 (adaptive)
Weight generation scheme         WeightScheme... Becke
Basis function cutoff            BFCut       ... 1.0000e-11
Integration weight cutoff        WCut        ... 1.0000e-14
Angular grids for H and He will be reduced by one unit
Partially contracted basis set               ... on
Rotationally invariant grid construction     ... off

Total number of grid points                  ...    81789
Total number of batches                      ...     1295
Average number of points per batch           ...       63
Average number of grid points per atom       ...     2478
UseSFitting                                  ... on

Time for X-Grid setup             =    3.426 sec

--------------
SCF ITERATIONS
--------------
ITER       Energy         Delta-E        Max-DP      RMS-DP      [F,P]     Damp
               ***  Starting incremental Fock matrix formation  ***
  0   -539.8546056883   0.000000000000 0.03690351  0.00068123  0.1529009 0.8500
  1   -539.9219881413  -0.067382453080 0.03897264  0.00065185  0.1229665 0.8500
                               ***Turning on DIIS***
  2   -539.9733504691  -0.051362327806 0.03387255  0.00053490  0.0941216 0.8500
  3   -540.0114350914  -0.038084622303 0.02683593  0.00037744  0.0721234 0.8500
  4   -540.0407327083  -0.029297616893 0.02200170  0.00028695  0.0577750 0.8500
  5   -540.0637521297  -0.023019421331 0.01863073  0.00023476  0.0478042 0.8500
  6   -540.0824187077  -0.018666577990 0.01596974  0.00019803  0.0401770 0.8500
  7   -540.0978365216  -0.015417813919 0.01385356  0.00017064  0.0340066 0.8500
  8   -540.1107123086  -0.012875787041 0.07993485  0.00098012  0.0287934 0.0000
  9   -540.1798431456  -0.069130837026 0.00143367  0.00003960  0.0012033 0.0000
                      *** Initiating the SOSCF procedure ***
                           *** Shutting down DIIS ***
                      *** Re-Reading the Fockian *** 
                      *** Removing any level shift *** 
ITER      Energy       Delta-E        Grad      Rot      Max-DP    RMS-DP
 10   -540.17987391  -0.0000307638  0.000604  0.000604  0.001057  0.000019
               *** Restarting incremental Fock matrix formation ***
 11   -540.17990500  -0.0000310861  0.000342  0.000780  0.000599  0.000015
 12   -540.17990672  -0.0000017218  0.000161  0.000764  0.000417  0.000012
 13   -540.17990714  -0.0000004231  0.000042  0.000105  0.000246  0.000004
 14   -540.17990724  -0.0000000968  0.000008  0.000009  0.000071  0.000001
 15   -540.17990724  -0.0000000057  0.000004  0.000012  0.000016  0.000000
                  ***Gradient check signals convergence***
              ***Rediagonalizing the Fockian in SOSCF/NRSCF***

               *****************************************************
               *                     SUCCESS                       *
               *           SCF CONVERGED AFTER  16 CYCLES          *
               *****************************************************

Old exchange energy                            =    -25.313542089 Eh
New exchange energy                            =    -25.313593431 Eh
Exchange energy change after final integration =     -0.000051342 Eh
Total energy after final integration           =   -540.179958590 Eh
Final COS-X integration done in                =    90.905 sec

----------------
TOTAL SCF ENERGY
----------------

Total Energy       :         -540.17995859 Eh          -14699.04396 eV

Components:
Nuclear Repulsion  :          851.70410838 Eh           23176.04704 eV
Electronic Energy  :        -1391.88406697 Eh          -37875.09099 eV
One Electron Energy:        -2418.54094173 Eh          -65811.84483 eV
Two Electron Energy:         1026.65687476 Eh           27936.75384 eV
Max COSX asymmetry :            0.00000264 Eh               0.00007 eV

Virial components:
Potential Energy   :        -1073.67645852 Eh          -29216.22176 eV
Kinetic Energy     :          533.49649993 Eh           14517.17780 eV
Virial Ratio       :            2.01252765


DFT components:
N(Alpha)           :       50.000184377419 electrons
N(Beta)            :       50.000184377419 electrons
N(Total)           :      100.000368754838 electrons
E(XC)              :      -55.458692742674 Eh       
DFET-embed. en.    :        0.000000000000 Eh       

---------------
SCF CONVERGENCE
---------------

  Last Energy change         ...   -5.2022e-09  Tolerance :   1.0000e-08
  Last MAX-Density change    ...    4.8850e-15  Tolerance :   1.0000e-07
  Last RMS-Density change    ...    5.1553e-17  Tolerance :   5.0000e-09
  Last Orbital Gradient      ...    8.3823e-07  Tolerance :   1.0000e-05
  Last Orbital Rotation      ...    2.7070e-06  Tolerance :   1.0000e-05

             **** THE GBW FILE WAS UPDATED (6.gbw) ****
             **** DENSITY 6.scfp WAS UPDATED ****
             **** ENERGY FILE WAS UPDATED (6.en.tmp) ****
             **** THE GBW FILE WAS UPDATED (6.gbw) ****
             **** DENSITY 6.scfp WAS UPDATED ****
----------------
ORBITAL ENERGIES
----------------

  NO   OCC          E(Eh)            E(eV) 
   0   2.0000     -14.430460      -392.6728 
   1   2.0000     -14.430460      -392.6728 
   2   2.0000     -10.305005      -280.4134 
   3   2.0000     -10.304973      -280.4126 
   4   2.0000     -10.288033      -279.9516 
   5   2.0000     -10.287524      -279.9378 
   6   2.0000     -10.282006      -279.7876 
   7   2.0000     -10.281948      -279.7860 
   8   2.0000     -10.256283      -279.0876 
   9   2.0000     -10.256280      -279.0876 
  10   2.0000     -10.256279      -279.0876 
  11   2.0000     -10.256269      -279.0873 
  12   2.0000     -10.255094      -279.0553 
  13   2.0000      -1.132573       -30.8189 
  14   2.0000      -1.029523       -28.0147 
  15   2.0000      -0.932551       -25.3760 
  16   2.0000      -0.899740       -24.4832 
  17   2.0000      -0.884897       -24.0793 
  18   2.0000      -0.842899       -22.9364 
  19   2.0000      -0.801575       -21.8120 
  20   2.0000      -0.801056       -21.7978 
  21   2.0000      -0.784556       -21.3489 
  22   2.0000      -0.761295       -20.7159 
  23   2.0000      -0.693174       -18.8622 
  24   2.0000      -0.676902       -18.4194 
  25   2.0000      -0.642415       -17.4810 
  26   2.0000      -0.616985       -16.7890 
  27   2.0000      -0.578235       -15.7346 
  28   2.0000      -0.555264       -15.1095 
  29   2.0000      -0.553272       -15.0553 
  30   2.0000      -0.548318       -14.9205 
  31   2.0000      -0.537832       -14.6351 
  32   2.0000      -0.535854       -14.5813 
  33   2.0000      -0.522889       -14.2285 
  34   2.0000      -0.514355       -13.9963 
  35   2.0000      -0.511381       -13.9154 
  36   2.0000      -0.508545       -13.8382 
  37   2.0000      -0.492206       -13.3936 
  38   2.0000      -0.487967       -13.2783 
  39   2.0000      -0.482663       -13.1339 
  40   2.0000      -0.470364       -12.7993 
  41   2.0000      -0.464348       -12.6356 
  42   2.0000      -0.459358       -12.4998 
  43   2.0000      -0.450344       -12.2545 
  44   2.0000      -0.437890       -11.9156 
  45   2.0000      -0.436698       -11.8832 
  46   2.0000      -0.428073       -11.6485 
  47   2.0000      -0.355252        -9.6669 
  48   2.0000      -0.296317        -8.0632 
  49   2.0000      -0.294363        -8.0100 
  50   0.0000       0.129415         3.5216 
  51   0.0000       0.136922         3.7258 
  52   0.0000       0.141950         3.8627 
  53   0.0000       0.144646         3.9360 
  54   0.0000       0.165768         4.5108 
  55   0.0000       0.184768         5.0278 
  56   0.0000       0.186627         5.0784 
  57   0.0000       0.189250         5.1498 
  58   0.0000       0.198708         5.4071 
  59   0.0000       0.209488         5.7004 
  60   0.0000       0.214111         5.8262 
  61   0.0000       0.225768         6.1435 
  62   0.0000       0.232627         6.3301 
  63   0.0000       0.234355         6.3771 
  64   0.0000       0.235929         6.4200 
  65   0.0000       0.243582         6.6282 
  66   0.0000       0.244096         6.6422 
  67   0.0000       0.261463         7.1148 
  68   0.0000       0.264988         7.2107 
  69   0.0000       0.272377         7.4118 
  70   0.0000       0.274978         7.4825 
  71   0.0000       0.277313         7.5461 
  72   0.0000       0.288579         7.8526 
  73   0.0000       0.291717         7.9380 
  74   0.0000       0.293203         7.9785 
  75   0.0000       0.321293         8.7428 
  76   0.0000       0.330206         8.9854 
  77   0.0000       0.352894         9.6027 
  78   0.0000       0.357339         9.7237 
  79   0.0000       0.358742         9.7619 
  80   0.0000       0.376375        10.2417 
  81   0.0000       0.387475        10.5437 
  82   0.0000       0.401414        10.9230 
  83   0.0000       0.464743        12.6463 
  84   0.0000       0.481176        13.0935 
  85   0.0000       0.496279        13.5044 
  86   0.0000       0.500647        13.6233 
  87   0.0000       0.507081        13.7984 
  88   0.0000       0.511098        13.9077 
  89   0.0000       0.526366        14.3231 
  90   0.0000       0.536043        14.5865 
  91   0.0000       0.539830        14.6895 
  92   0.0000       0.564462        15.3598 
  93   0.0000       0.575290        15.6544 
  94   0.0000       0.580103        15.7854 
  95   0.0000       0.585727        15.9384 
  96   0.0000       0.627129        17.0650 
  97   0.0000       0.631296        17.1784 
  98   0.0000       0.640590        17.4313 
  99   0.0000       0.670021        18.2322 
 100   0.0000       0.670498        18.2452 
 101   0.0000       0.679517        18.4906 
 102   0.0000       0.694634        18.9020 
 103   0.0000       0.700251        19.0548 
 104   0.0000       0.707519        19.2526 
 105   0.0000       0.708957        19.2917 
 106   0.0000       0.717619        19.5274 
 107   0.0000       0.720752        19.6127 
 108   0.0000       0.741103        20.1664 
 109   0.0000       0.741515        20.1776 
 110   0.0000       0.748297        20.3622 
 111   0.0000       0.748446        20.3663 
 112   0.0000       0.753863        20.5137 
 113   0.0000       0.768579        20.9141 
 114   0.0000       0.769284        20.9333 
 115   0.0000       0.770702        20.9719 
 116   0.0000       0.779051        21.1991 
 117   0.0000       0.781142        21.2559 
 118   0.0000       0.794600        21.6222 
 119   0.0000       0.797734        21.7074 
 120   0.0000       0.798896        21.7391 
 121   0.0000       0.799359        21.7517 
 122   0.0000       0.805135        21.9088 
 123   0.0000       0.805758        21.9258 
 124   0.0000       0.807937        21.9851 
 125   0.0000       0.811167        22.0730 
 126   0.0000       0.812614        22.1124 
 127   0.0000       0.813481        22.1359 
 128   0.0000       0.827184        22.5088 
 129   0.0000       0.829301        22.5664 
 130   0.0000       0.834334        22.7034 
 131   0.0000       0.837382        22.7863 
 132   0.0000       0.843108        22.9421 
 133   0.0000       0.868481        23.6326 
 134   0.0000       0.872124        23.7317 
 135   0.0000       0.884071        24.0568 
 136   0.0000       0.884621        24.0718 
 137   0.0000       0.901950        24.5433 
 138   0.0000       0.906892        24.6778 
 139   0.0000       0.975011        26.5314 
 140   0.0000       0.983475        26.7617 
 141   0.0000       1.039621        28.2895 
 142   0.0000       1.056081        28.7374 
 143   0.0000       1.065780        29.0013 
 144   0.0000       1.099331        29.9143 
 145   0.0000       1.162694        31.6385 
 146   0.0000       1.165395        31.7120 
 147   0.0000       1.189672        32.3726 
 148   0.0000       1.190888        32.4057 
 149   0.0000       1.198288        32.6071 
 150   0.0000       1.219023        33.1713 
 151   0.0000       1.222487        33.2656 
 152   0.0000       1.251394        34.0522 
 153   0.0000       1.280691        34.8494 
 154   0.0000       1.281435        34.8696 
 155   0.0000       1.281783        34.8791 
 156   0.0000       1.348434        36.6928 
 157   0.0000       1.355273        36.8789 
 158   0.0000       1.419158        38.6172 
 159   0.0000       1.420722        38.6598 
 160   0.0000       1.422252        38.7014 
 161   0.0000       1.449534        39.4438 
 162   0.0000       1.508317        41.0434 
 163   0.0000       1.536822        41.8190 
 164   0.0000       1.547444        42.1081 
 165   0.0000       1.549841        42.1733 
 166   0.0000       1.582216        43.0543 
 167   0.0000       1.639939        44.6250 
 168   0.0000       1.642822        44.7035 
 169   0.0000       1.644407        44.7466 
 170   0.0000       1.649616        44.8883 
 171   0.0000       1.652557        44.9684 
 172   0.0000       1.657206        45.0949 
 173   0.0000       1.659574        45.1593 
 174   0.0000       1.662645        45.2429 
 175   0.0000       1.673389        45.5352 
 176   0.0000       1.674729        45.5717 
 177   0.0000       1.678476        45.6736 
 178   0.0000       1.685056        45.8527 
 179   0.0000       1.788962        48.6801 
 180   0.0000       1.808581        49.2140 
 181   0.0000       1.834670        49.9239 
 182   0.0000       1.837983        50.0141 
 183   0.0000       1.839326        50.0506 
 184   0.0000       1.849164        50.3183 
 185   0.0000       1.849548        50.3288 
 186   0.0000       1.880441        51.1694 
 187   0.0000       1.880479        51.1704 
 188   0.0000       1.884327        51.2752 
 189   0.0000       1.884887        51.2904 
 190   0.0000       1.895699        51.5846 
 191   0.0000       1.897343        51.6293 
 192   0.0000       1.905464        51.8503 
 193   0.0000       1.915416        52.1211 
 194   0.0000       1.920246        52.2525 
 195   0.0000       1.941168        52.8219 
 196   0.0000       1.943614        52.8884 
 197   0.0000       1.944916        52.9238 
 198   0.0000       1.946905        52.9780 
 199   0.0000       1.956365        53.2354 
 200   0.0000       1.973117        53.6912 
 201   0.0000       1.979898        53.8758 
 202   0.0000       2.000746        54.4431 
 203   0.0000       2.003716        54.5239 
 204   0.0000       2.005452        54.5711 
 205   0.0000       2.005764        54.5796 
 206   0.0000       2.008361        54.6503 
 207   0.0000       2.015647        54.8485 
 208   0.0000       2.043670        55.6111 
 209   0.0000       2.069096        56.3030 
 210   0.0000       2.075043        56.4648 
 211   0.0000       2.082745        56.6744 
 212   0.0000       2.105423        57.2915 
 213   0.0000       2.106398        57.3180 
 214   0.0000       2.123552        57.7848 
 215   0.0000       2.132732        58.0346 
 216   0.0000       2.155916        58.6655 
 217   0.0000       2.157216        58.7008 
 218   0.0000       2.176805        59.2339 
 219   0.0000       2.232033        60.7367 
 220   0.0000       2.255653        61.3794 
 221   0.0000       2.264470        61.6194 
 222   0.0000       2.280871        62.0657 
 223   0.0000       2.284820        62.1731 
 224   0.0000       2.305697        62.7412 
 225   0.0000       2.328703        63.3672 
 226   0.0000       2.344420        63.7949 
 227   0.0000       2.365068        64.3568 
 228   0.0000       2.370772        64.5120 
 229   0.0000       2.371268        64.5255 
 230   0.0000       2.382303        64.8258 
 231   0.0000       2.443596        66.4936 
 232   0.0000       2.464154        67.0530 
 233   0.0000       2.498767        67.9949 
 234   0.0000       2.499904        68.0258 
 235   0.0000       2.511321        68.3365 
 236   0.0000       2.516895        68.4882 
 237   0.0000       2.519617        68.5623 
 238   0.0000       2.547442        69.3194 
 239   0.0000       2.551926        69.4414 
 240   0.0000       2.570811        69.9553 
 241   0.0000       2.595721        70.6332 
 242   0.0000       2.598730        70.7150 
 243   0.0000       2.612245        71.0828 
 244   0.0000       2.635892        71.7263 
 245   0.0000       2.660451        72.3946 
 246   0.0000       2.682502        72.9946 
 247   0.0000       2.690151        73.2027 
 248   0.0000       2.709043        73.7168 
 249   0.0000       2.717239        73.9398 
 250   0.0000       2.719805        74.0097 
 251   0.0000       2.750370        74.8414 
 252   0.0000       2.807991        76.4093 
 253   0.0000       2.816482        76.6404 
 254   0.0000       2.828179        76.9586 
 255   0.0000       2.834580        77.1328 
 256   0.0000       2.849912        77.5501 
 257   0.0000       2.852129        77.6104 
 258   0.0000       2.906908        79.1010 
 259   0.0000       2.972821        80.8946 
 260   0.0000       2.978120        81.0388 
 261   0.0000       2.991086        81.3916 
 262   0.0000       2.995715        81.5175 
 263   0.0000       3.016805        82.0914 
 264   0.0000       3.016927        82.0948 
 265   0.0000       3.017912        82.1216 
 266   0.0000       3.031459        82.4902 
 267   0.0000       3.032300        82.5131 
 268   0.0000       3.069423        83.5232 
 269   0.0000       3.072842        83.6163 
 270   0.0000       3.098292        84.3088 
 271   0.0000       3.100261        84.3624 
 272   0.0000       3.129488        85.1577 
 273   0.0000       3.148312        85.6699 
 274   0.0000       3.149430        85.7004 
 275   0.0000       3.149746        85.7089 
 276   0.0000       3.170606        86.2766 
 277   0.0000       3.212170        87.4076 
 278   0.0000       3.329765        90.6075 
 279   0.0000       3.449322        93.8608 
 280   0.0000       3.476081        94.5890 
 281   0.0000       3.547106        96.5217 

                    ********************************
                    * MULLIKEN POPULATION ANALYSIS *
                    ********************************

-----------------------
MULLIKEN ATOMIC CHARGES
-----------------------
   0 C :   -0.107952
   1 C :   -0.107954
   2 C :   -0.121401
   3 N :   -0.227957
   4 N :   -0.227953
   5 C :    0.080288
   6 C :    0.080290
   7 H :    0.044061
   8 H :    0.044062
   9 H :    0.044061
  10 H :    0.044061
  11 H :    0.017995
  12 H :    0.017993
  13 C :    0.009730
  14 C :    0.009728
  15 C :    0.009728
  16 C :    0.009729
  17 C :    0.001120
  18 C :    0.001122
  19 H :    0.023463
  20 H :    0.023464
  21 H :    0.023464
  22 H :    0.023463
  23 H :    0.047272
  24 H :    0.047272
  25 H :    0.047272
  26 H :    0.047272
  27 H :    0.020902
  28 H :    0.020902
  29 H :    0.020902
  30 H :    0.020902
  31 H :    0.006348
  32 H :    0.006348
Sum of atomic charges:    0.0000000

--------------------------------
MULLIKEN REDUCED ORBITAL CHARGES
--------------------------------
  0 C s       :     3.092741  s :     3.092741
      pz      :     0.878759  p :     2.958694
      px      :     1.091981
      py      :     0.987954
      dz2     :     0.017565  d :     0.056517
      dxz     :     0.009466
      dyz     :     0.013666
      dx2y2   :     0.005595
      dxy     :     0.010225
  1 C s       :     3.092738  s :     3.092738
      pz      :     0.878762  p :     2.958699
      px      :     1.091983
      py      :     0.987955
      dz2     :     0.017565  d :     0.056517
      dxz     :     0.009466
      dyz     :     0.013666
      dx2y2   :     0.005595
      dxy     :     0.010225
  2 C s       :     3.617349  s :     3.617349
      pz      :     1.130945  p :     2.437928
      px      :     0.663066
      py      :     0.643917
      dz2     :     0.008756  d :     0.066124
      dxz     :     0.009964
      dyz     :     0.028242
      dx2y2   :     0.007154
      dxy     :     0.012008
  3 N s       :     3.399023  s :     3.399023
      pz      :     1.117921  p :     3.797629
      px      :     1.528797
      py      :     1.150910
      dz2     :     0.008553  d :     0.031305
      dxz     :     0.005428
      dyz     :     0.008491
      dx2y2   :     0.005273
      dxy     :     0.003560
  4 N s       :     3.399021  s :     3.399021
      pz      :     1.117920  p :     3.797627
      px      :     1.528797
      py      :     1.150910
      dz2     :     0.008553  d :     0.031305
      dxz     :     0.005428
      dyz     :     0.008491
      dx2y2   :     0.005273
      dxy     :     0.003560
  5 C s       :     2.899110  s :     2.899110
      pz      :     0.978784  p :     2.992843
      px      :     1.019126
      py      :     0.994934
      dz2     :     0.006406  d :     0.027759
      dxz     :     0.002022
      dyz     :     0.007689
      dx2y2   :     0.002281
      dxy     :     0.009361
  6 C s       :     2.899108  s :     2.899108
      pz      :     0.978782  p :     2.992843
      px      :     1.019125
      py      :     0.994937
      dz2     :     0.006406  d :     0.027759
      dxz     :     0.002022
      dyz     :     0.007689
      dx2y2   :     0.002281
      dxy     :     0.009361
  7 H s       :     0.932152  s :     0.932152
      pz      :     0.004222  p :     0.023787
      px      :     0.011561
      py      :     0.008004
  8 H s       :     0.932152  s :     0.932152
      pz      :     0.004222  p :     0.023787
      px      :     0.011561
      py      :     0.008004
  9 H s       :     0.932152  s :     0.932152
      pz      :     0.004222  p :     0.023787
      px      :     0.011561
      py      :     0.008004
 10 H s       :     0.932152  s :     0.932152
      pz      :     0.004222  p :     0.023787
      px      :     0.011561
      py      :     0.008004
 11 H s       :     0.957759  s :     0.957759
      pz      :     0.012204  p :     0.024246
      px      :     0.004934
      py      :     0.007109
 12 H s       :     0.957760  s :     0.957760
      pz      :     0.012204  p :     0.024246
      px      :     0.004934
      py      :     0.007109
 13 C s       :     2.999555  s :     2.999555
      pz      :     1.016410  p :     2.964216
      px      :     0.957948
      py      :     0.989858
      dz2     :     0.004096  d :     0.026499
      dxz     :     0.007325
      dyz     :     0.005154
      dx2y2   :     0.008160
      dxy     :     0.001764
 14 C s       :     2.999556  s :     2.999556
      pz      :     1.016410  p :     2.964217
      px      :     0.957949
      py      :     0.989858
      dz2     :     0.004096  d :     0.026499
      dxz     :     0.007325
      dyz     :     0.005154
      dx2y2   :     0.008160
      dxy     :     0.001764
 15 C s       :     2.999556  s :     2.999556
      pz      :     1.016410  p :     2.964218
      px      :     0.957949
      py      :     0.989858
      dz2     :     0.004096  d :     0.026499
      dxz     :     0.007325
      dyz     :     0.005154
      dx2y2   :     0.008160
      dxy     :     0.001764
 16 C s       :     2.999556  s :     2.999556
      pz      :     1.016410  p :     2.964216
      px      :     0.957948
      py      :     0.989858
      dz2     :     0.004096  d :     0.026499
      dxz     :     0.007325
      dyz     :     0.005154
      dx2y2   :     0.008160
      dxy     :     0.001764
 17 C s       :     3.071110  s :     3.071110
      pz      :     1.007005  p :     2.870941
      px      :     1.039340
      py      :     0.824596
      dz2     :     0.008319  d :     0.056829
      dxz     :     0.010162
      dyz     :     0.012271
      dx2y2   :     0.015924
      dxy     :     0.010153
 18 C s       :     3.071109  s :     3.071109
      pz      :     1.007005  p :     2.870939
      px      :     1.039339
      py      :     0.824595
      dz2     :     0.008319  d :     0.056829
      dxz     :     0.010162
      dyz     :     0.012271
      dx2y2   :     0.015924
      dxy     :     0.010153
 19 H s       :     0.953204  s :     0.953204
      pz      :     0.007348  p :     0.023333
      px      :     0.010783
      py      :     0.005202
 20 H s       :     0.953203  s :     0.953203
      pz      :     0.007348  p :     0.023333
      px      :     0.010783
      py      :     0.005202
 21 H s       :     0.953203  s :     0.953203
      pz      :     0.007348  p :     0.023333
      px      :     0.010783
      py      :     0.005202
 22 H s       :     0.953204  s :     0.953204
      pz      :     0.007348  p :     0.023333
      px      :     0.010783
      py      :     0.005202
 23 H s       :     0.928876  s :     0.928876
      pz      :     0.011468  p :     0.023852
      px      :     0.003829
      py      :     0.008555
 24 H s       :     0.928876  s :     0.928876
      pz      :     0.011468  p :     0.023852
      px      :     0.003829
      py      :     0.008555
 25 H s       :     0.928876  s :     0.928876
      pz      :     0.011468  p :     0.023852
      px      :     0.003829
      py      :     0.008555
 26 H s       :     0.928876  s :     0.928876
      pz      :     0.011468  p :     0.023852
      px      :     0.003829
      py      :     0.008555
 27 H s       :     0.955552  s :     0.955552
      pz      :     0.005439  p :     0.023546
      px      :     0.004105
      py      :     0.014002
 28 H s       :     0.955552  s :     0.955552
      pz      :     0.005439  p :     0.023546
      px      :     0.004105
      py      :     0.014002
 29 H s       :     0.955552  s :     0.955552
      pz      :     0.005439  p :     0.023546
      px      :     0.004105
      py      :     0.014002
 30 H s       :     0.955552  s :     0.955552
      pz      :     0.005439  p :     0.023546
      px      :     0.004105
      py      :     0.014002
 31 H s       :     0.972736  s :     0.972736
      pz      :     0.010994  p :     0.020916
      px      :     0.003660
      py      :     0.006263
 32 H s       :     0.972736  s :     0.972736
      pz      :     0.010994  p :     0.020916
      px      :     0.003660
      py      :     0.006263


                     *******************************
                     * LOEWDIN POPULATION ANALYSIS *
                     *******************************

----------------------
LOEWDIN ATOMIC CHARGES
----------------------
   0 C :   -0.049628
   1 C :   -0.049628
   2 C :   -0.251805
   3 N :    0.025733
   4 N :    0.025734
   5 C :   -0.059452
   6 C :   -0.059452
   7 H :    0.035149
   8 H :    0.035149
   9 H :    0.035149
  10 H :    0.035149
  11 H :    0.035823
  12 H :    0.035823
  13 C :   -0.056973
  14 C :   -0.056973
  15 C :   -0.056973
  16 C :   -0.056974
  17 C :    0.030230
  18 C :    0.030230
  19 H :    0.025337
  20 H :    0.025337
  21 H :    0.025337
  22 H :    0.025337
  23 H :    0.033596
  24 H :    0.033596
  25 H :    0.033596
  26 H :    0.033596
  27 H :    0.024651
  28 H :    0.024651
  29 H :    0.024651
  30 H :    0.024651
  31 H :    0.019677
  32 H :    0.019677

-------------------------------
LOEWDIN REDUCED ORBITAL CHARGES
-------------------------------
  0 C s       :     2.842985  s :     2.842985
      pz      :     0.942835  p :     3.069743
      px      :     1.072567
      py      :     1.054341
      dz2     :     0.045493  d :     0.136899
      dxz     :     0.018890
      dyz     :     0.037025
      dx2y2   :     0.015591
      dxy     :     0.019900
  1 C s       :     2.842985  s :     2.842985
      pz      :     0.942835  p :     3.069743
      px      :     1.072567
      py      :     1.054341
      dz2     :     0.045493  d :     0.136899
      dxz     :     0.018890
      dyz     :     0.037025
      dx2y2   :     0.015591
      dxy     :     0.019900
  2 C s       :     3.191822  s :     3.191822
      pz      :     1.374296  p :     2.916955
      px      :     0.718370
      py      :     0.824290
      dz2     :     0.014390  d :     0.143027
      dxz     :     0.014332
      dyz     :     0.066084
      dx2y2   :     0.022118
      dxy     :     0.026103
  3 N s       :     3.064839  s :     3.064839
      pz      :     1.189507  p :     3.835106
      px      :     1.453281
      py      :     1.192317
      dz2     :     0.022478  d :     0.074323
      dxz     :     0.010485
      dyz     :     0.023695
      dx2y2   :     0.011242
      dxy     :     0.006423
  4 N s       :     3.064838  s :     3.064838
      pz      :     1.189507  p :     3.835105
      px      :     1.453281
      py      :     1.192317
      dz2     :     0.022478  d :     0.074323
      dxz     :     0.010485
      dyz     :     0.023695
      dx2y2   :     0.011242
      dxy     :     0.006423
  5 C s       :     2.822977  s :     2.822977
      pz      :     1.046135  p :     3.162547
      px      :     1.068620
      py      :     1.047792
      dz2     :     0.017804  d :     0.073928
      dxz     :     0.004013
      dyz     :     0.021387
      dx2y2   :     0.005648
      dxy     :     0.025075
  6 C s       :     2.822978  s :     2.822978
      pz      :     1.046134  p :     3.162546
      px      :     1.068620
      py      :     1.047792
      dz2     :     0.017804  d :     0.073927
      dxz     :     0.004013
      dyz     :     0.021387
      dx2y2   :     0.005648
      dxy     :     0.025075
  7 H s       :     0.899788  s :     0.899788
      pz      :     0.012377  p :     0.065063
      px      :     0.031031
      py      :     0.021655
  8 H s       :     0.899788  s :     0.899788
      pz      :     0.012377  p :     0.065063
      px      :     0.031031
      py      :     0.021655
  9 H s       :     0.899788  s :     0.899788
      pz      :     0.012377  p :     0.065064
      px      :     0.031032
      py      :     0.021655
 10 H s       :     0.899788  s :     0.899788
      pz      :     0.012377  p :     0.065063
      px      :     0.031031
      py      :     0.021655
 11 H s       :     0.898932  s :     0.898932
      pz      :     0.033191  p :     0.065245
      px      :     0.012489
      py      :     0.019566
 12 H s       :     0.898932  s :     0.898932
      pz      :     0.033191  p :     0.065245
      px      :     0.012489
      py      :     0.019566
 13 C s       :     2.840650  s :     2.840650
      pz      :     1.061787  p :     3.146190
      px      :     1.023171
      py      :     1.061233
      dz2     :     0.009911  d :     0.070133
      dxz     :     0.019822
      dyz     :     0.013700
      dx2y2   :     0.022240
      dxy     :     0.004460
 14 C s       :     2.840651  s :     2.840651
      pz      :     1.061787  p :     3.146190
      px      :     1.023171
      py      :     1.061233
      dz2     :     0.009911  d :     0.070133
      dxz     :     0.019822
      dyz     :     0.013700
      dx2y2   :     0.022240
      dxy     :     0.004460
 15 C s       :     2.840650  s :     2.840650
      pz      :     1.061787  p :     3.146191
      px      :     1.023171
      py      :     1.061232
      dz2     :     0.009911  d :     0.070133
      dxz     :     0.019822
      dyz     :     0.013700
      dx2y2   :     0.022240
      dxy     :     0.004460
 16 C s       :     2.840651  s :     2.840651
      pz      :     1.061787  p :     3.146190
      px      :     1.023171
      py      :     1.061233
      dz2     :     0.009911  d :     0.070133
      dxz     :     0.019821
      dyz     :     0.013700
      dx2y2   :     0.022240
      dxy     :     0.004460
 17 C s       :     2.832651  s :     2.832651
      pz      :     1.047220  p :     3.006620
      px      :     1.057624
      py      :     0.901776
      dz2     :     0.017293  d :     0.130499
      dxz     :     0.025458
      dyz     :     0.029657
      dx2y2   :     0.037419
      dxy     :     0.020671
 18 C s       :     2.832651  s :     2.832651
      pz      :     1.047220  p :     3.006620
      px      :     1.057624
      py      :     0.901776
      dz2     :     0.017293  d :     0.130499
      dxz     :     0.025458
      dyz     :     0.029657
      dx2y2   :     0.037419
      dxy     :     0.020671
 19 H s       :     0.910125  s :     0.910125
      pz      :     0.020338  p :     0.064538
      px      :     0.031112
      py      :     0.013088
 20 H s       :     0.910125  s :     0.910125
      pz      :     0.020338  p :     0.064538
      px      :     0.031112
      py      :     0.013088
 21 H s       :     0.910125  s :     0.910125
      pz      :     0.020338  p :     0.064538
      px      :     0.031112
      py      :     0.013088
 22 H s       :     0.910125  s :     0.910125
      pz      :     0.020338  p :     0.064538
      px      :     0.031112
      py      :     0.013088
 23 H s       :     0.899914  s :     0.899914
      pz      :     0.032308  p :     0.066490
      px      :     0.011984
      py      :     0.022198
 24 H s       :     0.899914  s :     0.899914
      pz      :     0.032308  p :     0.066490
      px      :     0.011984
      py      :     0.022198
 25 H s       :     0.899914  s :     0.899914
      pz      :     0.032308  p :     0.066490
      px      :     0.011984
      py      :     0.022198
 26 H s       :     0.899914  s :     0.899914
      pz      :     0.032308  p :     0.066490
      px      :     0.011984
      py      :     0.022198
 27 H s       :     0.910701  s :     0.910701
      pz      :     0.014978  p :     0.064648
      px      :     0.012199
      py      :     0.037471
 28 H s       :     0.910701  s :     0.910701
      pz      :     0.014978  p :     0.064648
      px      :     0.012199
      py      :     0.037471
 29 H s       :     0.910701  s :     0.910701
      pz      :     0.014978  p :     0.064648
      px      :     0.012199
      py      :     0.037471
 30 H s       :     0.910701  s :     0.910701
      pz      :     0.014978  p :     0.064648
      px      :     0.012199
      py      :     0.037471
 31 H s       :     0.915244  s :     0.915244
      pz      :     0.031786  p :     0.065079
      px      :     0.013976
      py      :     0.019318
 32 H s       :     0.915244  s :     0.915244
      pz      :     0.031786  p :     0.065079
      px      :     0.013976
      py      :     0.019318


                      *****************************
                      * MAYER POPULATION ANALYSIS *
                      *****************************

  NA   - Mulliken gross atomic population
  ZA   - Total nuclear charge
  QA   - Mulliken gross atomic charge
  VA   - Mayer's total valence
  BVA  - Mayer's bonded valence
  FA   - Mayer's free valence

  ATOM       NA         ZA         QA         VA         BVA        FA
  0 C      6.1080     6.0000    -0.1080     4.0569     4.0569     0.0000
  1 C      6.1080     6.0000    -0.1080     4.0569     4.0569     0.0000
  2 C      6.1214     6.0000    -0.1214     2.7033     2.7033     0.0000
  3 N      7.2280     7.0000    -0.2280     3.3210     3.3210     0.0000
  4 N      7.2280     7.0000    -0.2280     3.3210     3.3210     0.0000
  5 C      5.9197     6.0000     0.0803     3.9619     3.9619     0.0000
  6 C      5.9197     6.0000     0.0803     3.9619     3.9619     0.0000
  7 H      0.9559     1.0000     0.0441     0.9877     0.9877     0.0000
  8 H      0.9559     1.0000     0.0441     0.9877     0.9877     0.0000
  9 H      0.9559     1.0000     0.0441     0.9877     0.9877    -0.0000
 10 H      0.9559     1.0000     0.0441     0.9877     0.9877     0.0000
 11 H      0.9820     1.0000     0.0180     1.0028     1.0028     0.0000
 12 H      0.9820     1.0000     0.0180     1.0028     1.0028     0.0000
 13 C      5.9903     6.0000     0.0097     3.9530     3.9530     0.0000
 14 C      5.9903     6.0000     0.0097     3.9530     3.9530    -0.0000
 15 C      5.9903     6.0000     0.0097     3.9530     3.9530    -0.0000
 16 C      5.9903     6.0000     0.0097     3.9530     3.9530    -0.0000
 17 C      5.9989     6.0000     0.0011     4.1025     4.1025     0.0000
 18 C      5.9989     6.0000     0.0011     4.1025     4.1025     0.0000
 19 H      0.9765     1.0000     0.0235     0.9950     0.9950    -0.0000
 20 H      0.9765     1.0000     0.0235     0.9950     0.9950    -0.0000
 21 H      0.9765     1.0000     0.0235     0.9950     0.9950    -0.0000
 22 H      0.9765     1.0000     0.0235     0.9950     0.9950     0.0000
 23 H      0.9527     1.0000     0.0473     1.0152     1.0152     0.0000
 24 H      0.9527     1.0000     0.0473     1.0152     1.0152    -0.0000
 25 H      0.9527     1.0000     0.0473     1.0152     1.0152    -0.0000
 26 H      0.9527     1.0000     0.0473     1.0152     1.0152    -0.0000
 27 H      0.9791     1.0000     0.0209     0.9911     0.9911     0.0000
 28 H      0.9791     1.0000     0.0209     0.9911     0.9911    -0.0000
 29 H      0.9791     1.0000     0.0209     0.9911     0.9911    -0.0000
 30 H      0.9791     1.0000     0.0209     0.9911     0.9911     0.0000
 31 H      0.9937     1.0000     0.0063     0.9871     0.9871     0.0000
 32 H      0.9937     1.0000     0.0063     0.9871     0.9871    -0.0000

  Mayer bond orders larger than 0.100000
B(  0-C ,  1-C ) :   1.6605 B(  0-C ,  3-N ) :   1.1220 B(  0-C ,  5-C ) :   1.0905 
B(  1-C ,  4-N ) :   1.1220 B(  1-C ,  6-C ) :   1.0905 B(  2-C ,  3-N ) :   1.2348 
B(  2-C ,  4-N ) :   1.2348 B(  3-N , 17-C ) :   0.9105 B(  4-N , 18-C ) :   0.9104 
B(  5-C ,  7-H ) :   0.9499 B(  5-C , 10-H ) :   0.9499 B(  5-C , 11-H ) :   0.9448 
B(  6-C ,  8-H ) :   0.9499 B(  6-C ,  9-H ) :   0.9499 B(  6-C , 12-H ) :   0.9448 
B( 13-C , 17-C ) :   1.0736 B( 13-C , 19-H ) :   0.9671 B( 13-C , 23-H ) :   0.9640 
B( 13-C , 27-H ) :   0.9703 B( 14-C , 18-C ) :   1.0736 B( 14-C , 20-H ) :   0.9671 
B( 14-C , 24-H ) :   0.9640 B( 14-C , 28-H ) :   0.9703 B( 15-C , 18-C ) :   1.0736 
B( 15-C , 21-H ) :   0.9671 B( 15-C , 25-H ) :   0.9640 B( 15-C , 29-H ) :   0.9703 
B( 16-C , 17-C ) :   1.0736 B( 16-C , 22-H ) :   0.9671 B( 16-C , 26-H ) :   0.9640 
B( 16-C , 30-H ) :   0.9703 B( 17-C , 31-H ) :   0.9398 B( 18-C , 32-H ) :   0.9398 


-------
TIMINGS
-------

Total SCF time: 0 days 0 hours 9 min 46 sec 

Total time                  ....     586.500 sec
Sum of individual times     ....     585.902 sec  ( 99.9%)

Fock matrix formation       ....     577.077 sec  ( 98.4%)
  Split-RI-J                ....      24.464 sec  (  4.2% of F)
  Chain of spheres X        ....     506.421 sec  ( 87.8% of F)
  XC integration            ....      45.986 sec  (  8.0% of F)
    Basis function eval.    ....      16.731 sec  ( 36.4% of XC)
    Density eval.           ....      11.443 sec  ( 24.9% of XC)
    XC-Functional eval.     ....       5.892 sec  ( 12.8% of XC)
    XC-Potential eval.      ....      10.718 sec  ( 23.3% of XC)
Diagonalization             ....       0.177 sec  (  0.0%)
Density matrix formation    ....       0.029 sec  (  0.0%)
Population analysis         ....       0.016 sec  (  0.0%)
Initial guess               ....       1.541 sec  (  0.3%)
Orbital Transformation      ....       0.000 sec  (  0.0%)
Orbital Orthonormalization  ....       0.000 sec  (  0.0%)
DIIS solution               ....       0.068 sec  (  0.0%)
SOSCF solution              ....       0.081 sec  (  0.0%)
Grid generation             ....       6.912 sec  (  1.2%)

Maximum memory used throughout the entire SCF-calculation: 109.4 MB


-------------------------------------------------------------------------------
                          DFT DISPERSION CORRECTION                            
                                                                               
                                 DFTD4 V2.5                                    
-------------------------------------------------------------------------------
The WB97X functional is recognized
Active option DFTDOPT                   ...         5   

Starting D4
-------------------------   ----------------
Dispersion correction           -0.005728672
-------------------------   ----------------


-------------------------   --------------------
FINAL SINGLE POINT ENERGY      -540.185687262846
-------------------------   --------------------


                            ***************************************
                            *     ORCA property calculations      *
                            ***************************************

                                    ---------------------
                                    Active property flags
                                    ---------------------
   (+) Dipole Moment


------------------------------------------------------------------------------
                       ORCA ELECTRIC PROPERTIES CALCULATION
------------------------------------------------------------------------------

Dipole Moment Calculation                       ... on
Quadrupole Moment Calculation                   ... off
Polarizability Calculation                      ... off
GBWName                                         ... 6.gbw
Electron density                                ... 6.scfp
The origin for moment calculation is the CENTER OF MASS  = ( 0.000002,  0.000000  0.000291)

-------------
DIPOLE MOMENT
-------------
                                X             Y             Z
Electronic contribution:      0.00002       0.00000      -2.00123
Nuclear contribution   :     -0.00002      -0.00000       0.92918
                        -----------------------------------------
Total Dipole Moment    :     -0.00000       0.00000      -1.07205
                        -----------------------------------------
Magnitude (a.u.)       :      1.07205
Magnitude (Debye)      :      2.72493



--------------------
Rotational spectrum 
--------------------
 
Rotational constants in cm-1:     0.035701     0.019180     0.014980 
Rotational constants in MHz :  1070.298322   574.998894   449.097507 

 Dipole components along the rotational axes: 
x,y,z [a.u.] :    -0.000000     1.072047    -0.000003 
x,y,z [Debye]:    -0.000000     2.724926    -0.000008 

 

-------------------------------------------------------------------------------
                               ORCA SCF HESSIAN
-------------------------------------------------------------------------------

                   --------- SHARK INITIALIZATION DONE ---------

Hessian of the Kohn-Sham DFT energy:
Kohn-Sham wavefunction type                      ... RKS
Hartree-Fock exchange scaling                    ...    0.158
Number of operators                              ...    1
Number of atoms                                  ...   33
Basis set dimensions                             ...  282
Integral neglect threshold                       ... 2.5e-11
Integral primitive cutoff                        ... 2.5e-12

Setting up DFT Hessian calculations              ... 

HESS GRID
---------

General Integration Accuracy     IntAcc      ... 4.629
Radial Grid Type                 RadialGrid  ... OptM3 with GC (2021)
Angular Grid (max. ang.)         AngularGrid ... 5 (Lebedev-434)
Angular grid pruning method      GridPruning ... 4 (adaptive)
Weight generation scheme         WeightScheme... Becke
Basis function cutoff            BFCut       ... 1.0000e-11
Integration weight cutoff        WCut        ... 1.0000e-14
Angular grids for H and He will be reduced by one unit
Partially contracted basis set               ... off
Rotationally invariant grid construction     ... off

Total number of grid points                  ...   218392
Total number of batches                      ...     3425
Average number of points per batch           ...       63
Average number of grid points per atom       ...     6618

Building densities                               ... done   (      0.0 sec)
Calculating rho(r) on the grid                   ... done   (      2.8 sec)
Building xc-kernel on the grid                   ... done   (      2.0 sec)
                                                     done   (      9.4 sec)

Nuclear repulsion Hessian  (SHARK)               ... done   (      0.0 sec)

----------------------------------------------
Forming right-hand sides of CP-SCF equations     ...
----------------------------------------------
One electron integral derivatives  (SHARK)       ... done   (      1.2 sec)
Transforming the overlap derivative matrices     ... done   (      0.3 sec)
Making the Q(x) pseudodensities                  ... done   (      0.3 sec)
[...]
     38       0.049237   0.522830  -0.550564
     39      -0.008752  -0.002631  -0.000644
     40       0.034647   0.010047   0.002707
     41      -0.028546  -0.008526  -0.002280
     42      -0.008723   0.002630  -0.000642
     43      -0.034545   0.010047  -0.002698
     44      -0.028452   0.008524  -0.002272
     45       0.008744  -0.002635   0.000642
     46      -0.034584   0.010055  -0.002700
     47      -0.028506   0.008536  -0.002275
     48       0.008733   0.002627   0.000643
     49       0.034589   0.010035   0.002705
     50      -0.028487  -0.008514  -0.002278
     51      -0.000000  -0.000000  -0.000000
     52       0.007554   0.003630   0.001555
     53      -0.010785  -0.005137  -0.002231
     54       0.000000  -0.000000   0.000000
     55      -0.007544   0.003634  -0.001551
     56      -0.010770   0.005143  -0.002225
     57       0.117431   0.035375   0.008861
     58       0.031288   0.009353   0.002347
     59       0.077526   0.023195   0.005737
     60       0.117043  -0.035370   0.008830
     61      -0.031185   0.009351  -0.002339
     62       0.077270  -0.023192   0.005717
     63      -0.117313   0.035428  -0.008840
     64      -0.031254   0.009366  -0.002341
     65       0.077449  -0.023230   0.005724
     66      -0.117177  -0.035324  -0.008852
     67       0.031220   0.009339   0.002344
     68       0.077358   0.023161   0.005731
     69      -0.018153  -0.005647  -0.001670
     70      -0.223050  -0.066326  -0.018202
     71       0.331882   0.098847   0.027219
     72      -0.018100   0.005648  -0.001665
     73       0.222344  -0.066319   0.018142
     74       0.330835  -0.098838   0.027129
     75       0.018126  -0.005654   0.001666
     76       0.222698  -0.066394   0.018156
     77       0.331358  -0.098950   0.027149
     78       0.018123   0.005641   0.001669
     79      -0.222620  -0.066236  -0.018187
     80       0.331247   0.098715   0.027196
     81       0.001758   0.000590   0.000189
     82      -0.225429  -0.064373  -0.017094
     83      -0.065571  -0.018813  -0.004995
     84       0.001755  -0.000591   0.000188
     85       0.224799  -0.064380   0.017039
     86      -0.065387   0.018815  -0.004979
     87      -0.001753   0.000590  -0.000188
     88       0.224989  -0.064417   0.017044
     89      -0.065444   0.018826  -0.004981
     90      -0.001756  -0.000590  -0.000189
     91      -0.225098  -0.064305  -0.017083
     92      -0.065473  -0.018793  -0.004992
     93      -0.000002  -0.000000  -0.000000
     94      -0.080254  -0.039669  -0.017584
     95       0.121946   0.058413   0.025187
     96       0.000002  -0.000000   0.000000
     97       0.080148  -0.039716   0.017538
     98       0.121786  -0.058481   0.025121


-----------
IR SPECTRUM
-----------

 Mode   freq       eps      Int      T**2         TX        TY        TZ
       cm**-1   L/(mol*cm) km/mol    a.u.
----------------------------------------------------------------------------
  6:     19.53   0.000256    1.29  0.004083  (-0.063895  0.000000  0.000000)
  7:     35.75   0.000000    0.00  0.000000  (-0.000002  0.000000  0.000000)
  8:     88.26   0.000502    2.54  0.001775  (-0.042131 -0.000000  0.000000)
  9:    114.06   0.000000    0.00  0.000000  (-0.000000  0.000000  0.000000)
 10:    151.23   0.000119    0.60  0.000245  ( 0.000000 -0.000000  0.015644)
 11:    214.18   0.000000    0.00  0.000000  (-0.000001 -0.000000 -0.000000)
 12:    218.82   0.000050    0.25  0.000071  (-0.008454 -0.000001  0.000000)
 13:    231.07   0.000689    3.48  0.000930  ( 0.000000 -0.030504 -0.000000)
 14:    236.82   0.000000    0.00  0.000000  (-0.000001  0.000002  0.000000)
 15:    252.55   0.000010    0.05  0.000013  ( 0.003577 -0.000000  0.000000)
 16:    253.64   0.000000    0.00  0.000000  ( 0.000001 -0.000000  0.000000)
 17:    273.50   0.000039    0.20  0.000044  ( 0.006659 -0.000000  0.000000)
 18:    275.45   0.000176    0.89  0.000199  (-0.000000 -0.014114 -0.000000)
 19:    283.13   0.000011    0.05  0.000012  ( 0.000000  0.000000 -0.003406)
 20:    286.39   0.000049    0.25  0.000053  ( 0.000000 -0.000000 -0.007292)
 21:    321.21   0.000333    1.68  0.000323  ( 0.000000 -0.017980  0.000000)
 22:    325.50   0.000084    0.42  0.000080  ( 0.000000 -0.000000  0.008954)
 23:    398.36   0.002420   12.23  0.001896  ( 0.043539 -0.000000 -0.000000)
 24:    420.46   0.000160    0.81  0.000119  (-0.000000 -0.010912  0.000000)
 25:    480.40   0.000140    0.71  0.000091  ( 0.000000  0.000000 -0.009528)
 26:    494.09   0.000000    0.00  0.000000  (-0.000000  0.000000  0.000000)
 27:    552.31   0.000462    2.33  0.000261  ( 0.000000 -0.016152  0.000000)
 28:    615.95   0.000699    3.53  0.000354  (-0.000000  0.000000  0.018814)
 29:    637.32   0.000076    0.38  0.000037  ( 0.000000  0.006097 -0.000000)
 30:    676.93   0.000009    0.04  0.000004  ( 0.001994 -0.000000  0.000000)
 31:    695.15   0.000000    0.00  0.000000  ( 0.000000 -0.000000  0.000000)
 32:    748.84   0.001429    7.22  0.000596  (-0.000000  0.000000 -0.024404)
 33:    813.67   0.000526    2.66  0.000202  ( 0.000000  0.014202  0.000000)
 34:    917.41   0.000130    0.66  0.000044  (-0.000000  0.000000 -0.006643)
 35:    934.75   0.000701    3.54  0.000234  ( 0.000001 -0.015303  0.000000)
 36:    935.50   0.000000    0.00  0.000000  (-0.000004 -0.000004 -0.000000)
 37:    935.83   0.000399    2.02  0.000133  (-0.011532 -0.000001  0.000000)
 38:    965.48   0.000000    0.00  0.000000  (-0.000000  0.000000 -0.000000)
 39:    966.05   0.000112    0.57  0.000036  ( 0.006027  0.000000 -0.000000)
 40:    969.73   0.000517    2.61  0.000166  ( 0.000000  0.000000  0.012902)
 41:   1050.61   0.000200    1.01  0.000059  (-0.007700  0.000000 -0.000000)
 42:   1070.03   0.000000    0.00  0.000000  ( 0.000000  0.000000 -0.000000)
 43:   1074.06   0.000882    4.46  0.000256  ( 0.000000  0.016010 -0.000000)
 44:   1100.04   0.001067    5.39  0.000303  (-0.000000  0.000000 -0.017399)
 45:   1147.78   0.010301   52.06  0.002801  ( 0.000000 -0.052922  0.000003)
 46:   1149.36   0.000791    4.00  0.000215  (-0.000000 -0.000010 -0.014654)
 47:   1178.13   0.001016    5.13  0.000269  (-0.016404  0.000000  0.000000)
 48:   1178.19   0.000000    0.00  0.000000  ( 0.000027  0.000000  0.000000)
 49:   1193.86   0.000306    1.55  0.000080  ( 0.000000  0.008942 -0.000000)
 50:   1225.02   0.000112    0.57  0.000029  ( 0.000000 -0.000000  0.005344)
 51:   1231.00   0.001048    5.30  0.000266  ( 0.000000  0.016300  0.000000)
 52:   1352.29   0.000000    0.00  0.000000  (-0.000001 -0.000000 -0.000003)
 53:   1352.46   0.000010    0.05  0.000002  (-0.001520 -0.000000 -0.000006)
 54:   1352.73   0.000913    4.61  0.000211  ( 0.000001  0.000001 -0.014512)
 55:   1369.97   0.002421   12.24  0.000552  ( 0.000000  0.023485  0.000001)
 56:   1403.14   0.000152    0.77  0.000034  (-0.000001 -0.005824  0.000001)
 57:   1404.13   0.000343    1.73  0.000076  ( 0.000001  0.000000 -0.008735)
 58:   1408.67   0.000000    0.00  0.000000  ( 0.000014  0.000000  0.000033)
 59:   1408.76   0.001997   10.09  0.000442  ( 0.000012 -0.000001 -0.021035)
 60:   1409.07   0.006876   34.75  0.001523  (-0.039023  0.000000 -0.000006)
 61:   1420.28   0.015711   79.40  0.003452  (-0.000000  0.058755  0.000000)
 62:   1442.18   0.005705   28.83  0.001235  (-0.000000 -0.000008 -0.035136)
 63:   1445.72   0.009358   47.29  0.002020  ( 0.000001  0.044944 -0.000008)
 64:   1455.70   0.000000    0.00  0.000000  ( 0.000001 -0.000000 -0.000000)
 65:   1456.53   0.000629    3.18  0.000135  ( 0.011613 -0.000000  0.000000)
 66:   1459.30   0.000000    0.00  0.000000  (-0.000002  0.000000 -0.000000)
 67:   1461.63   0.003291   16.63  0.000703  ( 0.026508  0.000001  0.000000)
 68:   1462.92   0.001087    5.49  0.000232  (-0.000003  0.015229  0.000005)
 69:   1467.13   0.011224   56.72  0.002387  (-0.000000  0.000000  0.048862)
 70:   1470.65   0.000000    0.00  0.000000  (-0.000001 -0.000000  0.000003)
 71:   1471.77   0.000301    1.52  0.000064  ( 0.007986 -0.000001 -0.000000)
 72:   1475.48   0.000776    3.92  0.000164  ( 0.000000 -0.012810  0.000000)
 73:   1476.85   0.000009    0.05  0.000002  (-0.000000 -0.000002  0.001393)
 74:   1482.05   0.000227    1.15  0.000048  (-0.000000  0.000001  0.006921)
 75:   1486.81   0.005550   28.05  0.001165  (-0.000000 -0.034130  0.000000)
 76:   1497.74   0.000013    0.07  0.000003  (-0.000000 -0.001645 -0.000000)
 77:   1503.69   0.001101    5.57  0.000229  (-0.000000 -0.000000 -0.015118)
 78:   1755.25   0.000031    0.15  0.000005  (-0.000000 -0.000000  0.002331)
 79:   3061.70   0.008649   43.71  0.000882  (-0.000001 -0.029691 -0.000007)
 80:   3063.61   0.003499   17.68  0.000356  ( 0.000000 -0.000011  0.018878)
 81:   3066.13   0.000000    0.00  0.000000  (-0.000048  0.000000  0.000004)
 82:   3066.21   0.007972   40.29  0.000811  ( 0.028484  0.000005  0.000000)
 83:   3068.76   0.003609   18.24  0.000367  ( 0.000010 -0.019157  0.000007)
 84:   3068.94   0.001380    6.98  0.000140  ( 0.000000 -0.000011 -0.011848)
 85:   3127.30   0.002617   13.23  0.000261  (-0.000001  0.016160  0.000003)
 86:   3127.59   0.003176   16.05  0.000317  ( 0.000000  0.000003 -0.017801)
 87:   3146.15   0.000000    0.00  0.000000  ( 0.000023 -0.000000  0.000002)
 88:   3146.23   0.003937   19.90  0.000390  (-0.019761  0.000000  0.000000)
 89:   3167.55   0.000000    0.00  0.000000  (-0.000022 -0.000001  0.000007)
 90:   3167.74   0.003150   15.92  0.000310  ( 0.017615  0.000012  0.000001)
 91:   3170.19   0.009014   45.55  0.000887  (-0.000008  0.029788 -0.000004)
 92:   3170.41   0.005224   26.40  0.000514  ( 0.000001  0.000005  0.022676)
 93:   3175.94   0.001285    6.49  0.000126  ( 0.011237  0.000027 -0.000004)
 94:   3175.96   0.000000    0.00  0.000000  ( 0.000084 -0.000001 -0.000007)
 95:   3179.65   0.004219   21.32  0.000414  (-0.000010  0.020349  0.000014)
 96:   3180.13   0.001705    8.62  0.000167  ( 0.000000  0.000019 -0.012935)
 97:   3181.92   0.005331   26.94  0.000523  (-0.000003  0.022866 -0.000011)
 98:   3185.48   0.002346   11.86  0.000230  ( 0.000000  0.000016  0.015161)

* The epsilon (eps) is given for a Dirac delta lineshape.
** The dipole moment derivative (T) already includes vibrational overlap.

The first frequency considered to be a vibration is 6
The total number of vibrations considered is 93


--------------------------
THERMOCHEMISTRY AT 298.15K
--------------------------

Temperature         ... 298.15 K
Pressure            ... 1.00 atm
Total Mass          ... 180.29 AMU

Throughout the following assumptions are being made:
  (1) The electronic state is orbitally nondegenerate
  (2) There are no thermally accessible electronically excited states
  (3) Hindered rotations indicated by low frequency modes are not
      treated as such but are treated as vibrations and this may
      cause some error
  (4) All equations used are the standard statistical mechanics
      equations for an ideal gas
  (5) All vibrations are strictly harmonic

freq.      19.53  E(vib)   ...       0.57 
freq.      35.75  E(vib)   ...       0.54 
freq.      88.26  E(vib)   ...       0.48 
freq.     114.06  E(vib)   ...       0.44 
freq.     151.23  E(vib)   ...       0.40 
freq.     214.18  E(vib)   ...       0.34 
freq.     218.82  E(vib)   ...       0.33 
freq.     231.07  E(vib)   ...       0.32 
freq.     236.82  E(vib)   ...       0.32 
freq.     252.55  E(vib)   ...       0.30 
freq.     253.64  E(vib)   ...       0.30 
freq.     273.50  E(vib)   ...       0.29 
freq.     275.45  E(vib)   ...       0.28 
freq.     283.13  E(vib)   ...       0.28 
freq.     286.39  E(vib)   ...       0.27 
freq.     321.21  E(vib)   ...       0.25 
freq.     325.50  E(vib)   ...       0.24 
freq.     398.36  E(vib)   ...       0.20 
freq.     420.46  E(vib)   ...       0.18 
freq.     480.40  E(vib)   ...       0.15 
freq.     494.09  E(vib)   ...       0.14 
freq.     552.31  E(vib)   ...       0.12 
freq.     615.95  E(vib)   ...       0.10 
freq.     637.32  E(vib)   ...       0.09 
freq.     676.93  E(vib)   ...       0.08 
freq.     695.15  E(vib)   ...       0.07 
freq.     748.84  E(vib)   ...       0.06 
freq.     813.67  E(vib)   ...       0.05 
freq.     917.41  E(vib)   ...       0.03 
freq.     934.75  E(vib)   ...       0.03 
freq.     935.50  E(vib)   ...       0.03 
freq.     935.83  E(vib)   ...       0.03 
freq.     965.48  E(vib)   ...       0.03 
freq.     966.05  E(vib)   ...       0.03 
freq.     969.73  E(vib)   ...       0.03 
freq.    1050.61  E(vib)   ...       0.02 
freq.    1070.03  E(vib)   ...       0.02 
freq.    1074.06  E(vib)   ...       0.02 
freq.    1100.04  E(vib)   ...       0.02 
freq.    1147.78  E(vib)   ...       0.01 
freq.    1149.36  E(vib)   ...       0.01 
freq.    1178.13  E(vib)   ...       0.01 
freq.    1178.19  E(vib)   ...       0.01 
freq.    1193.86  E(vib)   ...       0.01 
freq.    1225.02  E(vib)   ...       0.01 
freq.    1231.00  E(vib)   ...       0.01 
freq.    1352.29  E(vib)   ...       0.01 
freq.    1352.46  E(vib)   ...       0.01 
freq.    1352.73  E(vib)   ...       0.01 
freq.    1369.97  E(vib)   ...       0.01 
freq.    1403.14  E(vib)   ...       0.00 
freq.    1404.13  E(vib)   ...       0.00 
freq.    1408.67  E(vib)   ...       0.00 
freq.    1408.76  E(vib)   ...       0.00 
freq.    1409.07  E(vib)   ...       0.00 
freq.    1420.28  E(vib)   ...       0.00 
freq.    1442.18  E(vib)   ...       0.00 
freq.    1445.72  E(vib)   ...       0.00 
freq.    1455.70  E(vib)   ...       0.00 
freq.    1456.53  E(vib)   ...       0.00 
freq.    1459.30  E(vib)   ...       0.00 
freq.    1461.63  E(vib)   ...       0.00 
freq.    1462.92  E(vib)   ...       0.00 
freq.    1467.13  E(vib)   ...       0.00 
freq.    1470.65  E(vib)   ...       0.00 
freq.    1471.77  E(vib)   ...       0.00 
freq.    1475.48  E(vib)   ...       0.00 
freq.    1476.85  E(vib)   ...       0.00 
freq.    1482.05  E(vib)   ...       0.00 
freq.    1486.81  E(vib)   ...       0.00 
freq.    1497.74  E(vib)   ...       0.00 
freq.    1503.69  E(vib)   ...       0.00 
freq.    1755.25  E(vib)   ...       0.00 
freq.    3061.70  E(vib)   ...       0.00 
freq.    3063.61  E(vib)   ...       0.00 
freq.    3066.13  E(vib)   ...       0.00 
freq.    3066.21  E(vib)   ...       0.00 
freq.    3068.76  E(vib)   ...       0.00 
freq.    3068.94  E(vib)   ...       0.00 
freq.    3127.30  E(vib)   ...       0.00 
freq.    3127.59  E(vib)   ...       0.00 
freq.    3146.15  E(vib)   ...       0.00 
freq.    3146.23  E(vib)   ...       0.00 
freq.    3167.55  E(vib)   ...       0.00 
freq.    3167.74  E(vib)   ...       0.00 
freq.    3170.19  E(vib)   ...       0.00 
freq.    3170.41  E(vib)   ...       0.00 
freq.    3175.94  E(vib)   ...       0.00 
freq.    3175.96  E(vib)   ...       0.00 
freq.    3179.65  E(vib)   ...       0.00 
freq.    3180.13  E(vib)   ...       0.00 
freq.    3181.92  E(vib)   ...       0.00 
freq.    3185.48  E(vib)   ...       0.00 

------------
INNER ENERGY
------------

The inner energy is: U= E(el) + E(ZPE) + E(vib) + E(rot) + E(trans)
    E(el)   - is the total energy from the electronic structure calculation
              = E(kin-el) + E(nuc-el) + E(el-el) + E(nuc-nuc)
    E(ZPE)  - the the zero temperature vibrational energy from the frequency calculation
    E(vib)  - the the finite temperature correction to E(ZPE) due to population
              of excited vibrational states
    E(rot)  - is the rotational thermal energy
    E(trans)- is the translational thermal energy

Summary of contributions to the inner energy U:
Electronic energy                ...   -540.18568726 Eh
Zero point energy                ...      0.29886795 Eh     187.54 kcal/mol
Thermal vibrational correction   ...      0.01217280 Eh       7.64 kcal/mol
Thermal rotational correction    ...      0.00141627 Eh       0.89 kcal/mol
Thermal translational correction ...      0.00141627 Eh       0.89 kcal/mol
-----------------------------------------------------------------------
Total thermal energy                   -539.87181397 Eh


Summary of corrections to the electronic energy:
(perhaps to be used in another calculation)
Total thermal correction                  0.01500535 Eh       9.42 kcal/mol
Non-thermal (ZPE) correction              0.29886795 Eh     187.54 kcal/mol
-----------------------------------------------------------------------
Total correction                          0.31387330 Eh     196.96 kcal/mol


--------
ENTHALPY
--------

The enthalpy is H = U + kB*T
                kB is Boltzmann's constant
Total free energy                 ...   -539.87181397 Eh 
Thermal Enthalpy correction       ...      0.00094421 Eh       0.59 kcal/mol
-----------------------------------------------------------------------
Total Enthalpy                    ...   -539.87086976 Eh


Note: Rotational entropy computed according to Herzberg 
Infrared and Raman Spectra, Chapter V,1, Van Nostrand Reinhold, 1945 
Point Group:  C2v, Symmetry Number:   2  
Rotational constants in cm-1:     0.035701     0.019180     0.014980 

Vibrational entropy computed according to the QRRHO of S. Grimme
Chem.Eur.J. 2012 18 9955


-------
ENTROPY
-------

The entropy contributions are T*S = T*(S(el)+S(vib)+S(rot)+S(trans))
     S(el)   - electronic entropy
     S(vib)  - vibrational entropy
     S(rot)  - rotational entropy
     S(trans)- translational entropy
The entropies will be listed as multiplied by the temperature to get
units of energy

Electronic entropy                ...      0.00000000 Eh      0.00 kcal/mol
Vibrational entropy               ...      0.02122384 Eh     13.32 kcal/mol
Rotational entropy                ...      0.01427948 Eh      8.96 kcal/mol
Translational entropy             ...      0.01970603 Eh     12.37 kcal/mol
-----------------------------------------------------------------------
Final entropy term                ...      0.05520935 Eh     34.64 kcal/mol

In case the symmetry of your molecule has not been determined correctly
or in case you have a reason to use a different symmetry number we print 
out the resulting rotational entropy values for sn=1,12 :
 --------------------------------------------------------
|  sn= 1 | S(rot)=       0.01493394 Eh      9.37 kcal/mol|
|  sn= 2 | S(rot)=       0.01427948 Eh      8.96 kcal/mol|
|  sn= 3 | S(rot)=       0.01389665 Eh      8.72 kcal/mol|
|  sn= 4 | S(rot)=       0.01362503 Eh      8.55 kcal/mol|
|  sn= 5 | S(rot)=       0.01341434 Eh      8.42 kcal/mol|
|  sn= 6 | S(rot)=       0.01324220 Eh      8.31 kcal/mol|
|  sn= 7 | S(rot)=       0.01309665 Eh      8.22 kcal/mol|
|  sn= 8 | S(rot)=       0.01297057 Eh      8.14 kcal/mol|
|  sn= 9 | S(rot)=       0.01285936 Eh      8.07 kcal/mol|
|  sn=10 | S(rot)=       0.01275988 Eh      8.01 kcal/mol|
|  sn=11 | S(rot)=       0.01266989 Eh      7.95 kcal/mol|
|  sn=12 | S(rot)=       0.01258774 Eh      7.90 kcal/mol|
 --------------------------------------------------------


-------------------
GIBBS FREE ENERGY
-------------------

The Gibbs free energy is G = H - T*S

Total enthalpy                    ...   -539.87086976 Eh 
Total entropy correction          ...     -0.05520935 Eh    -34.64 kcal/mol
-----------------------------------------------------------------------
Final Gibbs free energy         ...   -539.92607911 Eh

For completeness - the Gibbs free energy minus the electronic energy
G-E(el)                           ...      0.25960815 Eh    162.91 kcal/mol


Timings for individual modules:

Sum of individual times         ...     2992.879 sec (=  49.881 min)
GTO integral calculation        ...        0.468 sec (=   0.008 min)   0.0 %
SCF iterations                  ...      586.538 sec (=   9.776 min)  19.6 %
Analytical frequency calculation...     2405.874 sec (=  40.098 min)  80.4 %
                             ****ORCA TERMINATED NORMALLY****
TOTAL RUN TIME: 0 days 0 hours 49 minutes 53 seconds 296 msec
