
                                 *****************
                                 * O   R   C   A *
                                 *****************

                                            #,                                       
                                            ###                                      
                                            ####                                     
                                            #####                                    
                                            ######                                   
                                           ########,                                 
                                     ,,################,,,,,                         
                               ,,#################################,,                 
                          ,,##########################################,,             
                       ,#########################################, ''#####,          
                    ,#############################################,,   '####,        
                  ,##################################################,,,,####,       
                ,###########''''           ''''###############################       
              ,#####''   ,,,,##########,,,,          '''####'''          '####       
            ,##' ,,,,###########################,,,                        '##       
           ' ,,###''''                  '''############,,,                           
         ,,##''                                '''############,,,,        ,,,,,,###''
      ,#''                                            '''#######################'''  
     '                                                          ''''####''''         
             ,#######,   #######,   ,#######,      ##                                
            ,#'     '#,  ##    ##  ,#'     '#,    #''#        ######   ,####,        
            ##       ##  ##   ,#'  ##            #'  '#       #        #'  '#        
            ##       ##  #######   ##           ,######,      #####,   #    #        
            '#,     ,#'  ##    ##  '#,     ,#' ,#      #,         ##   #,  ,#        
             '#######'   ##     ##  '#######'  #'      '#     #####' # '####'        



                  #######################################################
                  #                        -***-                        #
                  #          Department of theory and spectroscopy      #
                  #    Directorship and core code : Frank Neese         #
                  #        Max Planck Institute fuer Kohlenforschung    #
                  #                Kaiser Wilhelm Platz 1               #
                  #                 D-45470 Muelheim/Ruhr               #
                  #                      Germany                        #
                  #                                                     #
                  #                  All rights reserved                #
                  #                        -***-                        #
                  #######################################################


                         Program Version 5.0.4 -  RELEASE  -


 With contributions from (in alphabetic order):
   Daniel Aravena         : Magnetic Suceptibility
   Michael Atanasov       : Ab Initio Ligand Field Theory (pilot matlab implementation)
   Alexander A. Auer      : GIAO ZORA, VPT2 properties, NMR spectrum
   Ute Becker             : Parallelization
   Giovanni Bistoni       : ED, misc. LED, open-shell LED, HFLD
   Martin Brehm           : Molecular dynamics
   Dmytro Bykov           : SCF Hessian
   Vijay G. Chilkuri      : MRCI spin determinant printing, contributions to CSF-ICE
   Dipayan Datta          : RHF DLPNO-CCSD density
   Achintya Kumar Dutta   : EOM-CC, STEOM-CC
   Dmitry Ganyushin       : Spin-Orbit,Spin-Spin,Magnetic field MRCI
   Miquel Garcia          : C-PCM and meta-GGA Hessian, CC/C-PCM, Gaussian charge scheme
   Yang Guo               : DLPNO-NEVPT2, F12-NEVPT2, CIM, IAO-localization
   Andreas Hansen         : Spin unrestricted coupled pair/coupled cluster methods
   Benjamin Helmich-Paris : MC-RPA, TRAH-SCF, COSX integrals
   Lee Huntington         : MR-EOM, pCC
   Robert Izsak           : Overlap fitted RIJCOSX, COSX-SCS-MP3, EOM
   Marcus Kettner         : VPT2
   Christian Kollmar      : KDIIS, OOCD, Brueckner-CCSD(T), CCSD density, CASPT2, CASPT2-K
   Simone Kossmann        : Meta GGA functionals, TD-DFT gradient, OOMP2, MP2 Hessian
   Martin Krupicka        : Initial AUTO-CI
   Lucas Lang             : DCDCAS
   Marvin Lechner         : AUTO-CI (C++ implementation), FIC-MRCC
   Dagmar Lenk            : GEPOL surface, SMD
   Dimitrios Liakos       : Extrapolation schemes; Compound Job, initial MDCI parallelization
   Dimitrios Manganas     : Further ROCIS development; embedding schemes
   Dimitrios Pantazis     : SARC Basis sets
   Anastasios Papadopoulos: AUTO-CI, single reference methods and gradients
   Taras Petrenko         : DFT Hessian,TD-DFT gradient, ASA, ECA, R-Raman, ABS, FL, XAS/XES, NRVS
   Peter Pinski           : DLPNO-MP2, DLPNO-MP2 Gradient
   Christoph Reimann      : Effective Core Potentials
   Marius Retegan         : Local ZFS, SOC
   Christoph Riplinger    : Optimizer, TS searches, QM/MM, DLPNO-CCSD(T), (RO)-DLPNO pert. Triples
   Tobias Risthaus        : Range-separated hybrids, TD-DFT gradient, RPA, STAB
   Michael Roemelt        : Original ROCIS implementation
   Masaaki Saitow         : Open-shell DLPNO-CCSD energy and density
   Barbara Sandhoefer     : DKH picture change effects
   Avijit Sen             : IP-ROCIS
   Kantharuban Sivalingam : CASSCF convergence, NEVPT2, FIC-MRCI
   Bernardo de Souza      : ESD, SOC TD-DFT
   Georgi Stoychev        : AutoAux, RI-MP2 NMR, DLPNO-MP2 response
   Willem Van den Heuvel  : Paramagnetic NMR
   Boris Wezisla          : Elementary symmetry handling
   Frank Wennmohs         : Technical directorship


 We gratefully acknowledge several colleagues who have allowed us to
 interface, adapt or use parts of their codes:
   Stefan Grimme, W. Hujo, H. Kruse, P. Pracht,  : VdW corrections, initial TS optimization,
                  C. Bannwarth, S. Ehlert          DFT functionals, gCP, sTDA/sTD-DF
   Ed Valeev, F. Pavosevic, A. Kumar             : LibInt (2-el integral package), F12 methods
   Garnet Chan, S. Sharma, J. Yang, R. Olivares  : DMRG
   Ulf Ekstrom                                   : XCFun DFT Library
   Mihaly Kallay                                 : mrcc  (arbitrary order and MRCC methods)
   Jiri Pittner, Ondrej Demel                    : Mk-CCSD
   Frank Weinhold                                : gennbo (NPA and NBO analysis)
   Christopher J. Cramer and Donald G. Truhlar   : smd solvation model
   Lars Goerigk                                  : TD-DFT with DH, B97 family of functionals
   V. Asgeirsson, H. Jonsson                     : NEB implementation
   FAccTs GmbH                                   : IRC, NEB, NEB-TS, DLPNO-Multilevel, CI-OPT
                                                   MM, QMMM, 2- and 3-layer-ONIOM, Crystal-QMMM,
                                                   LR-CPCM, SF, NACMEs, symmetry and pop. for TD-DFT,
                                                   nearIR, NL-DFT gradient (VV10), updates on ESD,
                                                   ML-optimized integration grids
   S Lehtola, MJT Oliveira, MAL Marques          : LibXC Library
   Liviu Ungur et al                             : ANISO software


 Your calculation uses the libint2 library for the computation of 2-el integrals
 For citations please refer to: http://libint.valeyev.net

 Your ORCA version has been built with support for libXC version: 5.1.0
 For citations please refer to: https://tddft.org/programs/libxc/

 This ORCA versions uses:
   CBLAS   interface :  Fast vector & matrix operations
   LAPACKE interface :  Fast linear algebra routines
   SCALAPACK package :  Parallel linear algebra routines
   Shared memory     :  Shared parallel matrices
   BLAS/LAPACK       :  OpenBLAS 0.3.15  USE64BITINT DYNAMIC_ARCH NO_AFFINITY SkylakeX SINGLE_THREADED
        Core in use  :  SkylakeX
   Copyright (c) 2011-2014, The OpenBLAS Project


Your calculation utilizes the atom-pairwise dispersion correction
based on tight binding partial charges (D4)
Cite in your paper:
E.Caldeweyher, C.Bannwarth, S.Grimme, J.Chem.Phys., (2017), 147, 034112.
E.Caldeweyher, S.Ehlert, A.Hansen, H.Neugebauer, S.Grimme, J.Chem.Phys., (2018), in progress.
   

XCFun DFT library Copyright 2009-2010 Ulf Ekstrom and contributors.
See http://admol.org/xcfun for more information.
This is free software; see the source code for copying conditions.
There is ABSOLUTELY NO WARRANTY; not even for MERCHANTABILITY or FITNESS FOR A PARTICULAR PURPOSE.
For details see the documentation.
Scientific users of this library should cite U. Ekstrom, L. Visscher, R. Bast, A. J. Thorvaldsen and K. Ruud;
J.Chem.Theor.Comp. 2010, DOI: 10.1021/ct100117s
XCFun Version 0.99 

================================================================================

----- Orbital basis set information -----
Your calculation utilizes the basis: def2-SVP
   F. Weigend and R. Ahlrichs, Phys. Chem. Chem. Phys. 7, 3297 (2005).

----- AuxJ basis set information -----
Your calculation utilizes the auxiliary basis: def2/J
   F. Weigend, Phys. Chem. Chem. Phys. 8, 1057 (2006).

================================================================================
                                        WARNINGS
                       Please study these warnings very carefully!
================================================================================


INFO   : the flag for use of the SHARK integral package has been found!

================================================================================
                                       INPUT FILE
================================================================================
NAME = DFT_water_outs/7+-gasSP.inp
|  1> ! SP wB97X D4 def2-SVP def2/J defgrid2 
|  2> %maxcore 3000
|  3> %PAL NPROCS 4 END
|  4> * xyz 1 1
|  5> C 0.0057 0.6791 -1.8656
|  6> C -0.0057 -0.6791 -1.8656
|  7> H 0.0037 1.3948 -2.6852
|  8> H -0.0037 -1.3948 -2.6852
|  9> C 0.0068 2.4396 -0.0739
| 10> C -0.8942 2.8183 0.919
| 11> C 0.9103 3.3461 -0.6255
| 12> C -0.8785 4.1345 1.3763
| 13> H -1.6086 2.0945 1.3207
| 14> C 0.9061 4.6619 -0.168
| 15> H 1.616 3.0221 -1.3952
| 16> C 0.017 5.0557 0.8331
| 17> H -1.5809 4.4419 2.1552
| 18> H 1.6116 5.3815 -0.5912
| 19> H 0.021 6.0884 1.1917
| 20> C -0.0068 -2.4396 -0.0739
| 21> C 0.8942 -2.8183 0.919
| 22> C -0.9103 -3.3461 -0.6255
| 23> C 0.8785 -4.1345 1.3763
| 24> H 1.6086 -2.0945 1.3207
| 25> C -0.9061 -4.6619 -0.168
| 26> H -1.616 -3.0221 -1.3952
| 27> C -0.017 -5.0557 0.8331
| 28> H 1.5809 -4.4419 2.1552
| 29> H -1.6116 -5.3815 -0.5912
| 30> H -0.021 -6.0884 1.1917
| 31> C -0.0 0.0 0.2354
| 32> H 0.0 0.0 1.3261
| 33> N 0.0074 1.0818 -0.5425
| 34> N -0.0074 -1.0818 -0.5425
| 35> **                         ****END OF INPUT****
================================================================================

                       ****************************
                       * Single Point Calculation *
                       ****************************

---------------------------------
CARTESIAN COORDINATES (ANGSTROEM)
---------------------------------
  C      0.005700    0.679100   -1.865600
  C     -0.005700   -0.679100   -1.865600
  H      0.003700    1.394800   -2.685200
  H     -0.003700   -1.394800   -2.685200
  C      0.006800    2.439600   -0.073900
  C     -0.894200    2.818300    0.919000
  C      0.910300    3.346100   -0.625500
  C     -0.878500    4.134500    1.376300
  H     -1.608600    2.094500    1.320700
  C      0.906100    4.661900   -0.168000
  H      1.616000    3.022100   -1.395200
  C      0.017000    5.055700    0.833100
  H     -1.580900    4.441900    2.155200
  H      1.611600    5.381500   -0.591200
  H      0.021000    6.088400    1.191700
  C     -0.006800   -2.439600   -0.073900
  C      0.894200   -2.818300    0.919000
  C     -0.910300   -3.346100   -0.625500
  C      0.878500   -4.134500    1.376300
  H      1.608600   -2.094500    1.320700
  C     -0.906100   -4.661900   -0.168000
  H     -1.616000   -3.022100   -1.395200
  C     -0.017000   -5.055700    0.833100
  H      1.580900   -4.441900    2.155200
  H     -1.611600   -5.381500   -0.591200
  H     -0.021000   -6.088400    1.191700
  C     -0.000000    0.000000    0.235400
  H      0.000000    0.000000    1.326100
  N      0.007400    1.081800   -0.542500
  N     -0.007400   -1.081800   -0.542500

----------------------------
CARTESIAN COORDINATES (A.U.)
----------------------------
  NO LB      ZA    FRAG     MASS         X           Y           Z
   0 C     6.0000    0    12.011    0.010771    1.283313   -3.525473
   1 C     6.0000    0    12.011   -0.010771   -1.283313   -3.525473
   2 H     1.0000    0     1.008    0.006992    2.635790   -5.074293
   3 H     1.0000    0     1.008   -0.006992   -2.635790   -5.074293
   4 C     6.0000    0    12.011    0.012850    4.610176   -0.139651
   5 C     6.0000    0    12.011   -1.689793    5.325815    1.736658
   6 C     6.0000    0    12.011    1.720218    6.323213   -1.182024
   7 C     6.0000    0    12.011   -1.660124    7.813073    2.600830
   8 H     1.0000    0     1.008   -3.039813    3.958031    2.495761
   9 C     6.0000    0    12.011    1.712281    8.809714   -0.317474
  10 H     1.0000    0     1.008    3.053797    5.710941   -2.636546
  11 C     6.0000    0    12.011    0.032125    9.553888    1.574331
  12 H     1.0000    0     1.008   -2.987468    8.393975    4.072738
  13 H     1.0000    0     1.008    3.045483   10.169561   -1.117206
  14 H     1.0000    0     1.008    0.039684   11.505409    2.251987
  15 C     6.0000    0    12.011   -0.012850   -4.610176   -0.139651
  16 C     6.0000    0    12.011    1.689793   -5.325815    1.736658
  17 C     6.0000    0    12.011   -1.720218   -6.323213   -1.182024
  18 C     6.0000    0    12.011    1.660124   -7.813073    2.600830
  19 H     1.0000    0     1.008    3.039813   -3.958031    2.495761
  20 C     6.0000    0    12.011   -1.712281   -8.809714   -0.317474
  21 H     1.0000    0     1.008   -3.053797   -5.710941   -2.636546
  22 C     6.0000    0    12.011   -0.032125   -9.553888    1.574331
  23 H     1.0000    0     1.008    2.987468   -8.393975    4.072738
  24 H     1.0000    0     1.008   -3.045483  -10.169561   -1.117206
  25 H     1.0000    0     1.008   -0.039684  -11.505409    2.251987
  26 C     6.0000    0    12.011   -0.000000    0.000000    0.444842
  27 H     1.0000    0     1.008    0.000000    0.000000    2.505966
  28 N     7.0000    0    14.007    0.013984    2.044306   -1.025176
  29 N     7.0000    0    14.007   -0.013984   -2.044306   -1.025176

--------------------------------
INTERNAL COORDINATES (ANGSTROEM)
--------------------------------
 C      0   0   0     0.000000000000     0.00000000     0.00000000
 C      1   0   0     1.358247841890     0.00000000     0.00000000
 H      1   2   0     1.088105992080   131.12544422     0.00000000
 H      2   1   3     1.088105992080   131.12544422     1.11944376
 C      1   2   3     2.511881834402   134.49507440   179.00294275
 C      5   1   2     1.393221123871   134.31167413   295.93226444
 C      5   1   2     1.393670355572   100.01145227   139.48412745
 C      6   5   1     1.393467696073   118.90349992   206.93707747
 H      6   5   1     1.093442586513   120.29208096    26.16485627
 C      7   5   1     1.393073411562   118.84390415   160.35197638
 H      7   5   1     1.093355651195   120.28574701   339.63576169
 C      8   6   5     1.394846202992   120.21470403     0.73060562
 H      8   6   5     1.092952757442   119.49156578   180.02065273
 H     10   7   5     1.093001669715   119.52131360   179.85357355
 H     12   8   6     1.093196802959   119.89995545   179.65137017
 C      2   1   3     2.511881834402   134.49507440   180.12238651
 C     16   2   1     1.393221123871   134.31167413   295.93226444
 C     16   2   1     1.393670355572   100.01145227   139.48412745
 C     17  16   2     1.393467696073   118.90349992   206.93707747
 H     17  16   2     1.093442586513   120.29208096    26.16485627
 C     18  16   2     1.393073411562   118.84390415   160.35197638
 H     18  16   2     1.093355651195   120.28574701   339.63576169
 C     19  17  16     1.394846202992   120.21470403     0.73060562
 H     19  17  16     1.092952757442   119.49156578   180.02065273
 H     21  18  16     1.093001669715   119.52131360   179.85357355
 H     23  19  17     1.093196802959   119.89995545   179.65137017
 C      1   2   3     2.208033129280    72.08717433   179.44027812
 H     27   1   2     1.090700000000   162.08717433   180.00000000
 N     27   1   2     1.332469290453    36.36870821   180.12182389
 N     27   1   2     1.332469290453    72.19431235     0.07587341

---------------------------
INTERNAL COORDINATES (A.U.)
---------------------------
 C      0   0   0     0.000000000000     0.00000000     0.00000000
 C      1   0   0     2.566716443162     0.00000000     0.00000000
 H      1   2   0     2.056222329710   131.12544422     0.00000000
 H      2   1   3     2.056222329710   131.12544422     1.11944376
 C      1   2   3     4.746768747792   134.49507440   179.00294275
 C      5   1   2     2.632806368110   134.31167413   295.93226444
 C      5   1   2     2.633655292996   100.01145227   139.48412745
 C      6   5   1     2.633272322045   118.90349992   206.93707747
 H      6   5   1     2.066307031676   120.29208096    26.16485627
 C      7   5   1     2.632527232299   118.84390415   160.35197638
 H      7   5   1     2.066142747734   120.28574701   339.63576169
 C      8   6   5     2.635877322594   120.21470403     0.73060562
 H      8   6   5     2.065381388879   119.49156578   180.02065273
 H     10   7   5     2.065473819680   119.52131360   179.85357355
 H     12   8   6     2.065842568071   119.89995545   179.65137017
 C      2   1   3     4.746768747792   134.49507440   180.12238651
 C     16   2   1     2.632806368110   134.31167413   295.93226444
 C     16   2   1     2.633655292996   100.01145227   139.48412745
 C     17  16   2     2.633272322045   118.90349992   206.93707747
 H     17  16   2     2.066307031676   120.29208096    26.16485627
 C     18  16   2     2.632527232299   118.84390415   160.35197638
 H     18  16   2     2.066142747734   120.28574701   339.63576169
 C     19  17  16     2.635877322594   120.21470403     0.73060562
 H     19  17  16     2.065381388879   119.49156578   180.02065273
 H     21  18  16     2.065473819680   119.52131360   179.85357355
 H     23  19  17     2.065842568071   119.89995545   179.65137017
 C      1   2   3     4.172577908965    72.08717433   179.44027812
 H     27   1   2     2.061124294268   162.08717433   180.00000000
 N     27   1   2     2.518002040816    36.36870821   180.12182389
 N     27   1   2     2.518002040816    72.19431235     0.07587341

---------------------
BASIS SET INFORMATION
---------------------
There are 3 groups of distinct atoms

 Group   1 Type C   : 7s4p1d contracted to 3s2p1d pattern {511/31/1}
 Group   2 Type H   : 4s1p contracted to 2s1p pattern {31/1}
 Group   3 Type N   : 7s4p1d contracted to 3s2p1d pattern {511/31/1}

Atom   0C    basis set group =>   1
Atom   1C    basis set group =>   1
Atom   2H    basis set group =>   2
Atom   3H    basis set group =>   2
Atom   4C    basis set group =>   1
Atom   5C    basis set group =>   1
Atom   6C    basis set group =>   1
Atom   7C    basis set group =>   1
Atom   8H    basis set group =>   2
Atom   9C    basis set group =>   1
Atom  10H    basis set group =>   2
Atom  11C    basis set group =>   1
Atom  12H    basis set group =>   2
Atom  13H    basis set group =>   2
Atom  14H    basis set group =>   2
Atom  15C    basis set group =>   1
Atom  16C    basis set group =>   1
Atom  17C    basis set group =>   1
Atom  18C    basis set group =>   1
Atom  19H    basis set group =>   2
Atom  20C    basis set group =>   1
Atom  21H    basis set group =>   2
Atom  22C    basis set group =>   1
Atom  23H    basis set group =>   2
Atom  24H    basis set group =>   2
Atom  25H    basis set group =>   2
Atom  26C    basis set group =>   1
Atom  27H    basis set group =>   2
Atom  28N    basis set group =>   3
Atom  29N    basis set group =>   3
---------------------------------
AUXILIARY/J BASIS SET INFORMATION
---------------------------------
There are 3 groups of distinct atoms

 Group   1 Type C   : 12s5p4d2f1g contracted to 6s4p3d1f1g pattern {711111/2111/211/2/1}
 Group   2 Type H   : 5s2p1d contracted to 3s1p1d pattern {311/2/1}
 Group   3 Type N   : 12s5p4d2f1g contracted to 6s4p3d1f1g pattern {711111/2111/211/2/1}

Atom   0C    basis set group =>   1
Atom   1C    basis set group =>   1
Atom   2H    basis set group =>   2
Atom   3H    basis set group =>   2
Atom   4C    basis set group =>   1
Atom   5C    basis set group =>   1
Atom   6C    basis set group =>   1
Atom   7C    basis set group =>   1
Atom   8H    basis set group =>   2
Atom   9C    basis set group =>   1
Atom  10H    basis set group =>   2
Atom  11C    basis set group =>   1
Atom  12H    basis set group =>   2
Atom  13H    basis set group =>   2
Atom  14H    basis set group =>   2
Atom  15C    basis set group =>   1
Atom  16C    basis set group =>   1
Atom  17C    basis set group =>   1
Atom  18C    basis set group =>   1
Atom  19H    basis set group =>   2
Atom  20C    basis set group =>   1
Atom  21H    basis set group =>   2
Atom  22C    basis set group =>   1
Atom  23H    basis set group =>   2
Atom  24H    basis set group =>   2
Atom  25H    basis set group =>   2
Atom  26C    basis set group =>   1
Atom  27H    basis set group =>   2
Atom  28N    basis set group =>   3
Atom  29N    basis set group =>   3


           ************************************************************
           *        Program running with 4 parallel MPI-processes     *
           *              working on a common directory               *
           ************************************************************
------------------------------------------------------------------------------
                           ORCA GTO INTEGRAL CALCULATION
                           -- RI-GTO INTEGRALS CHOSEN --
------------------------------------------------------------------------------
------------------------------------------------------------------------------
                   ___                                                        
                  /   \      - P O W E R E D   B Y -                         
                 /     \                                                     
                 |  |  |   _    _      __       _____    __    __             
                 |  |  |  | |  | |    /  \     |  _  \  |  |  /  |          
                  \  \/   | |  | |   /    \    | | | |  |  | /  /          
                 / \  \   | |__| |  /  /\  \   | |_| |  |  |/  /          
                |  |  |   |  __  | /  /__\  \  |    /   |      \           
                |  |  |   | |  | | |   __   |  |    \   |  |\   \          
                \     /   | |  | | |  |  |  |  | |\  \  |  | \   \       
                 \___/    |_|  |_| |__|  |__|  |_| \__\ |__|  \__/        
                                                                              
                      - O R C A' S   B I G   F R I E N D -                    
                                      &                                       
                       - I N T E G R A L  F E E D E R -                       
                                                                              
 v1 FN, 2020, v2 2021                                                         
------------------------------------------------------------------------------


Reading SHARK input file DFT_water_outs/7+-gasSP.SHARKINP.tmp ... ok
----------------------
SHARK INTEGRAL PACKAGE
----------------------

Number of atoms                             ...     30
Number of basis functions                   ...    303
Number of shells                            ...    141
Maximum angular momentum                    ...      2
Integral batch strategy                     ... SHARK/LIBINT Hybrid
RI-J (if used) integral strategy            ... SPLIT-RIJ (Revised 2003 algorithm where possible)
Printlevel                                  ...      1
Contraction scheme used                     ... SEGMENTED contraction
Coulomb Range Separation                    ... NOT USED
Exchange Range Separation                   ... Long Range
   Mu parameter                             ...  0.300000
   Scaling (regular/separated)              ...  0.157706  0.842294
Finite Nucleus Model                        ... NOT USED
Auxiliary Coulomb fitting basis             ... AVAILABLE
   # of basis functions in Aux-J            ...    976
   # of shells in Aux-J                     ...    320
   Maximum angular momentum in Aux-J        ...      4
Auxiliary J/K fitting basis                 ... NOT available
Auxiliary Correlation fitting basis         ... NOT available
Auxiliary 'external' fitting basis          ... NOT available
Integral threshold                          ...     1.000000e-10
Primitive cut-off                           ...     1.000000e-11
Primitive pair pre-selection threshold      ...     1.000000e-11

Calculating pre-screening integrals         ... done (  0.1 sec) Dimension = 141
Organizing shell pair data                  ... done (  0.1 sec)
Shell pair information
Total number of shell pairs                 ...     10011
Shell pairs after pre-screening             ...      7426
Total number of primitive shell pairs       ...     36575
Primitive shell pairs kept                  ...     17975
          la=0 lb=0:   2270 shell pairs
          la=1 lb=0:   2731 shell pairs
          la=1 lb=1:    860 shell pairs
          la=2 lb=0:    907 shell pairs
          la=2 lb=1:    563 shell pairs
          la=2 lb=2:     95 shell pairs

Calculating one electron integrals          ... done (  0.0 sec)
Calculating RI/J V-Matrix + Cholesky decomp.... done (  0.1 sec)
Calculating Nuclear repulsion               ... done (  0.0 sec) ENN=   1056.672526187391 Eh

SHARK setup successfully completed in   0.4 seconds

Maximum memory used throughout the entire GTOINT-calculation: 15.8 MB


           ************************************************************
           *        Program running with 4 parallel MPI-processes     *
           *              working on a common directory               *
           ************************************************************
-------------------------------------------------------------------------------
                                 ORCA SCF
-------------------------------------------------------------------------------

------------
SCF SETTINGS
------------
Hamiltonian:
 Density Functional     Method          .... DFT(GTOs)
 Exchange Functional    Exchange        .... WB97X
 Correlation Functional Correlation     .... WB97X
 Gradients option       PostSCFGGA      .... off
 Hybrid DFT is turned on
   Fraction HF Exchange ScalHFX         ....  0.157706
   Scaling of DF-GGA-X  ScalDFX         ....  0.000000
   Scaling of DF-GGA-C  ScalDFC         ....  1.000000
   Scaling of DF-LDA-C  ScalLDAC        ....  1.000000
   Perturbative correction              ....  0.000000
   Density functional embedding theory  .... OFF
 Long-range corrected/Screened/Range-Separated Hybrid DFT is turned on
   Amount of maximum screened exact exchange              ....  0.842294
   Range separation parameter mu (erf(mu*r12)/r12)        ....  0.300000
 RI-approximation to the Coulomb term is turned on
   Number of AuxJ basis functions       .... 976
   RIJ-COSX (HFX calculated with COS-X)).... on


General Settings:
 Integral files         IntName         .... DFT_water_outs/7+-gasSP
 Hartree-Fock type      HFTyp           .... RHF
 Total Charge           Charge          ....    1
 Multiplicity           Mult            ....    1
 Number of Electrons    NEL             ....  116
 Basis Dimension        Dim             ....  303
 Nuclear Repulsion      ENuc            ....   1056.6725261874 Eh

Convergence Acceleration:
 DIIS                   CNVDIIS         .... on
   Start iteration      DIISMaxIt       ....    12
   Startup error        DIISStart       ....  0.200000
   # of expansion vecs  DIISMaxEq       ....     5
   Bias factor          DIISBfac        ....   1.050
   Max. coefficient     DIISMaxC        ....  10.000
 Trust-Rad. Augm. Hess. CNVTRAH         .... auto
   Auto Start mean grad. ratio tolernc. ....  1.125000
   Auto Start start iteration           ....    20
   Auto Start num. interpolation iter.  ....    10
   Max. Number of Micro iterations      ....    16
   Max. Number of Macro iterations      .... Maxiter - #DIIS iter
   Number of Davidson start vectors     ....     2
   Converg. threshold I  (grad. norm)   ....   5.000e-05
   Converg. threshold II (energy diff.) ....   1.000e-06
   Grad. Scal. Fac. for Micro threshold ....   0.100
   Minimum threshold for Micro iter.    ....   0.010
   NR start threshold (gradient norm)   ....   0.001
   Initial trust radius                 ....   0.400
   Minimum AH scaling param. (alpha)    ....   1.000
   Maximum AH scaling param. (alpha)    .... 1000.000
   Orbital update algorithm             .... Taylor
   White noise on init. David. guess    .... on
   Maximum white noise                  ....   0.010
   Quad. conv. algorithm                .... NR
 SOSCF                  CNVSOSCF        .... on
   Start iteration      SOSCFMaxIt      ....   150
   Startup grad/error   SOSCFStart      ....  0.003300
 Level Shifting         CNVShift        .... on
   Level shift para.    LevelShift      ....    0.2500
   Turn off err/grad.   ShiftErr        ....    0.0010
 Zerner damping         CNVZerner       .... off
 Static damping         CNVDamp         .... on
   Fraction old density DampFac         ....    0.7000
   Max. Damping (<1)    DampMax         ....    0.9800
   Min. Damping (>=0)   DampMin         ....    0.0000
   Turn off err/grad.   DampErr         ....    0.1000
 Fernandez-Rico         CNVRico         .... off

SCF Procedure:
 Maximum # iterations   MaxIter         ....   125
 SCF integral mode      SCFMode         .... Direct
   Integral package                     .... SHARK and LIBINT hybrid scheme
 Reset frequency        DirectResetFreq ....    20
 Integral Threshold     Thresh          ....  1.000e-10 Eh
 Primitive CutOff       TCut            ....  1.000e-11 Eh

Convergence Tolerance:
 Convergence Check Mode ConvCheckMode   .... Total+1el-Energy
 Convergence forced     ConvForced      .... 0
 Energy Change          TolE            ....  1.000e-06 Eh
 1-El. energy change                    ....  1.000e-03 Eh
 Orbital Gradient       TolG            ....  5.000e-05
 Orbital Rotation angle TolX            ....  5.000e-05
 DIIS Error             TolErr          ....  1.000e-06


Diagonalization of the overlap matrix:
Smallest eigenvalue                        ... 2.804e-04
Time for diagonalization                   ...    0.022 sec
Threshold for overlap eigenvalues          ... 1.000e-08
Number of eigenvalues below threshold      ... 0
Time for construction of square roots      ...    0.010 sec
Total time needed                          ...    0.033 sec

Time for model grid setup =    0.331 sec

------------------------------
INITIAL GUESS: MODEL POTENTIAL
------------------------------
Loading Hartree-Fock densities                     ... done
Calculating cut-offs                               ... done
Initializing the effective Hamiltonian             ... done
Setting up the integral package (SHARK)            ... done
Starting the Coulomb interaction                   ... done (   0.2 sec)
Reading the grid                                   ... done
Mapping shells                                     ... done
Starting the XC term evaluation                    ... done (   0.2 sec)
  promolecular density results
     # of electrons  =    116.991945030
     EX              =    -93.695286307
     EC              =     -3.911523983
     EX+EC           =    -97.606810290
Transforming the Hamiltonian                       ... done (   0.0 sec)
Diagonalizing the Hamiltonian                      ... done (   0.0 sec)
Back transforming the eigenvectors                 ... done (   0.0 sec)
Now organizing SCF variables                       ... done
                      ------------------
                      INITIAL GUESS DONE (   0.7 sec)
                      ------------------
-------------------
DFT GRID GENERATION
-------------------

General Integration Accuracy     IntAcc      ... 4.388
Radial Grid Type                 RadialGrid  ... OptM3 with GC (2021)
Angular Grid (max. ang.)         AngularGrid ... 4 (Lebedev-302)
Angular grid pruning method      GridPruning ... 4 (adaptive)
Weight generation scheme         WeightScheme... Becke
Basis function cutoff            BFCut       ... 1.0000e-10
Integration weight cutoff        WCut        ... 1.0000e-14
Angular grids for H and He will be reduced by one unit
Partially contracted basis set               ... off
Rotationally invariant grid construction     ... off

Total number of grid points                  ...   143467
Total number of batches                      ...     2254
Average number of points per batch           ...       63
Average number of grid points per atom       ...     4782
Time for grid setup =    1.121 sec

--------------------
COSX GRID GENERATION
--------------------

GRIDX 1
-------
General Integration Accuracy     IntAcc      ... 3.816
Radial Grid Type                 RadialGrid  ... OptM3 with GC (2021)
Angular Grid (max. ang.)         AngularGrid ... 1 (Lebedev-50)
Angular grid pruning method      GridPruning ... 4 (adaptive)
Weight generation scheme         WeightScheme... Becke
Basis function cutoff            BFCut       ... 1.0000e-10
Integration weight cutoff        WCut        ... 1.0000e-14
Angular grids for H and He will be reduced by one unit
Partially contracted basis set               ... on
Rotationally invariant grid construction     ... off

Total number of grid points                  ...    18290
Total number of batches                      ...      293
Average number of points per batch           ...       62
Average number of grid points per atom       ...      610
UseSFitting                                  ... on

GRIDX 2
-------
General Integration Accuracy     IntAcc      ... 4.020
Radial Grid Type                 RadialGrid  ... OptM3 with GC (2021)
Angular Grid (max. ang.)         AngularGrid ... 2 (Lebedev-110)
Angular grid pruning method      GridPruning ... 4 (adaptive)
Weight generation scheme         WeightScheme... Becke
Basis function cutoff            BFCut       ... 1.0000e-10
Integration weight cutoff        WCut        ... 1.0000e-14
Angular grids for H and He will be reduced by one unit
Partially contracted basis set               ... on
Rotationally invariant grid construction     ... off

Total number of grid points                  ...    39925
Total number of batches                      ...      638
Average number of points per batch           ...       62
Average number of grid points per atom       ...     1331
UseSFitting                                  ... on

GRIDX 3
-------
General Integration Accuracy     IntAcc      ... 4.338
Radial Grid Type                 RadialGrid  ... OptM3 with GC (2021)
Angular Grid (max. ang.)         AngularGrid ... 3 (Lebedev-194)
Angular grid pruning method      GridPruning ... 4 (adaptive)
Weight generation scheme         WeightScheme... Becke
Basis function cutoff            BFCut       ... 1.0000e-10
Integration weight cutoff        WCut        ... 1.0000e-14
Angular grids for H and He will be reduced by one unit
Partially contracted basis set               ... on
Rotationally invariant grid construction     ... off

Total number of grid points                  ...    87364
Total number of batches                      ...     1377
Average number of points per batch           ...       63
Average number of grid points per atom       ...     2912
UseSFitting                                  ... on

Time for X-Grid setup             =    1.172 sec

--------------
SCF ITERATIONS
--------------
ITER       Energy         Delta-E        Max-DP      RMS-DP      [F,P]     Damp
               ***  Starting incremental Fock matrix formation  ***
  0   -687.7909605618   0.000000000000 0.04277417  0.00156328  0.1019979 0.7000
  1   -687.8863676455  -0.095407083632 0.02988163  0.00121167  0.0592523 0.7000
                               ***Turning on DIIS***
  2   -687.9385983850  -0.052230739538 0.06831644  0.00261913  0.0348566 0.0000
  3   -688.0270161488  -0.088417763841 0.02070227  0.00055243  0.0292972 0.0000
  4   -688.0381714539  -0.011155305009 0.00387886  0.00013463  0.0039398 0.0000
                      *** Initiating the SOSCF procedure ***
                           *** Shutting down DIIS ***
                      *** Re-Reading the Fockian *** 
                      *** Removing any level shift *** 
ITER      Energy       Delta-E        Grad      Rot      Max-DP    RMS-DP
  5   -688.03849337  -0.0003219183  0.000772  0.000772  0.001679  0.000057
               *** Restarting incremental Fock matrix formation ***
  6   -688.03859110  -0.0000977283  0.000651  0.001475  0.000793  0.000033
  7   -688.03860468  -0.0000135750  0.000257  0.001150  0.000742  0.000026
  8   -688.03860755  -0.0000028772  0.000161  0.000166  0.000221  0.000008
  9   -688.03860819  -0.0000006374  0.000040  0.000078  0.000065  0.000002
                 **** Energy Check signals convergence ****
              ***Rediagonalizing the Fockian in SOSCF/NRSCF***

               *****************************************************
               *                     SUCCESS                       *
               *           SCF CONVERGED AFTER  10 CYCLES          *
               *****************************************************

Old exchange energy                            =    -30.275345133 Eh
New exchange energy                            =    -30.275356767 Eh
Exchange energy change after final integration =     -0.000011634 Eh
Total energy after final integration           =   -688.038619935 Eh
Final COS-X integration done in                =    22.323 sec

----------------
TOTAL SCF ENERGY
----------------

Total Energy       :         -688.03861994 Eh          -18722.48268 eV

Components:
Nuclear Repulsion  :         1056.67252619 Eh           28753.52124 eV
Electronic Energy  :        -1744.71114612 Eh          -47476.00392 eV
One Electron Energy:        -3007.51886721 Eh          -81838.74898 eV
Two Electron Energy:         1262.80772109 Eh           34362.74506 eV
Max COSX asymmetry :            0.00000147 Eh               0.00004 eV

Virial components:
Potential Energy   :        -1368.25533657 Eh          -37232.12055 eV
Kinetic Energy     :          680.21671664 Eh           18509.63787 eV
Virial Ratio       :            2.01149913


DFT components:
N(Alpha)           :       58.000060960243 electrons
N(Beta)            :       58.000060960243 electrons
N(Total)           :      116.000121920486 electrons
E(XC)              :      -69.192150940053 Eh       
DFET-embed. en.    :        0.000000000000 Eh       

---------------
SCF CONVERGENCE
---------------

  Last Energy change         ...   -1.1115e-07  Tolerance :   1.0000e-06
  Last MAX-Density change    ...    4.4409e-15  Tolerance :   1.0000e-05
  Last RMS-Density change    ...    4.2334e-17  Tolerance :   1.0000e-06
  Last Orbital Gradient      ...    2.1997e-05  Tolerance :   5.0000e-05
  Last Orbital Rotation      ...    5.4573e-05  Tolerance :   5.0000e-05

             **** THE GBW FILE WAS UPDATED (DFT_water_outs/7+-gasSP.gbw) ****
             **** DENSITY DFT_water_outs/7+-gasSP.scfp WAS UPDATED ****
             **** ENERGY FILE WAS UPDATED (DFT_water_outs/7+-gasSP.en.tmp) ****
             **** THE GBW FILE WAS UPDATED (DFT_water_outs/7+-gasSP.gbw) ****
             **** DENSITY DFT_water_outs/7+-gasSP.scfp WAS UPDATED ****
----------------
ORBITAL ENERGIES
----------------

  NO   OCC          E(Eh)            E(eV) 
   0   2.0000     -14.663584      -399.0164 
   1   2.0000     -14.663574      -399.0161 
   2   2.0000     -10.534900      -286.6692 
   3   2.0000     -10.482702      -285.2488 
   4   2.0000     -10.482115      -285.2329 
   5   2.0000     -10.466013      -284.7947 
   6   2.0000     -10.465965      -284.7934 
   7   2.0000     -10.419476      -283.5284 
   8   2.0000     -10.419475      -283.5283 
   9   2.0000     -10.418384      -283.4986 
  10   2.0000     -10.418379      -283.4985 
  11   2.0000     -10.407321      -283.1976 
  12   2.0000     -10.407320      -283.1976 
  13   2.0000     -10.407009      -283.1891 
  14   2.0000     -10.407009      -283.1891 
  15   2.0000     -10.403774      -283.1011 
  16   2.0000     -10.403774      -283.1011 
  17   2.0000      -1.366626       -37.1878 
  18   2.0000      -1.248672       -33.9781 
  19   2.0000      -1.135013       -30.8853 
  20   2.0000      -1.114129       -30.3170 
  21   2.0000      -1.077550       -29.3216 
  22   2.0000      -1.040541       -28.3146 
  23   2.0000      -1.010016       -27.4839 
  24   2.0000      -1.006802       -27.3965 
  25   2.0000      -1.000849       -27.2345 
  26   2.0000      -0.931811       -25.3559 
  27   2.0000      -0.929274       -25.2868 
  28   2.0000      -0.879791       -23.9403 
  29   2.0000      -0.866927       -23.5903 
  30   2.0000      -0.858291       -23.3553 
  31   2.0000      -0.854008       -23.2387 
  32   2.0000      -0.817763       -22.2525 
  33   2.0000      -0.788235       -21.4490 
  34   2.0000      -0.770498       -20.9663 
  35   2.0000      -0.750582       -20.4244 
  36   2.0000      -0.738859       -20.1054 
  37   2.0000      -0.736565       -20.0430 
  38   2.0000      -0.721270       -19.6268 
  39   2.0000      -0.717946       -19.5363 
  40   2.0000      -0.710321       -19.3288 
  41   2.0000      -0.690204       -18.7814 
  42   2.0000      -0.675119       -18.3709 
  43   2.0000      -0.674997       -18.3676 
  44   2.0000      -0.666664       -18.1408 
  45   2.0000      -0.665524       -18.1098 
  46   2.0000      -0.643268       -17.5042 
  47   2.0000      -0.622387       -16.9360 
  48   2.0000      -0.597025       -16.2459 
  49   2.0000      -0.594740       -16.1837 
  50   2.0000      -0.592794       -16.1308 
  51   2.0000      -0.582822       -15.8594 
  52   2.0000      -0.574037       -15.6204 
  53   2.0000      -0.526029       -14.3140 
  54   2.0000      -0.485098       -13.2002 
  55   2.0000      -0.483303       -13.1513 
  56   2.0000      -0.483194       -13.1484 
  57   2.0000      -0.474707       -12.9174 
  58   0.0000      -0.107961        -2.9378 
  59   0.0000      -0.073739        -2.0065 
  60   0.0000      -0.062836        -1.7099 
  61   0.0000      -0.062293        -1.6951 
  62   0.0000      -0.043955        -1.1961 
  63   0.0000      -0.040802        -1.1103 
  64   0.0000       0.024610         0.6697 
  65   0.0000       0.034707         0.9444 
  66   0.0000       0.038423         1.0455 
  67   0.0000       0.044299         1.2054 
  68   0.0000       0.061839         1.6827 
  69   0.0000       0.080619         2.1938 
  70   0.0000       0.086528         2.3546 
  71   0.0000       0.091240         2.4828 
  72   0.0000       0.094252         2.5647 
  73   0.0000       0.098070         2.6686 
  74   0.0000       0.107947         2.9374 
  75   0.0000       0.115153         3.1335 
  76   0.0000       0.122601         3.3361 
  77   0.0000       0.126646         3.4462 
  78   0.0000       0.132504         3.6056 
  79   0.0000       0.143978         3.9178 
  80   0.0000       0.149136         4.0582 
  81   0.0000       0.164226         4.4688 
  82   0.0000       0.187518         5.1026 
  83   0.0000       0.194222         5.2851 
  84   0.0000       0.227757         6.1976 
  85   0.0000       0.233918         6.3652 
  86   0.0000       0.252150         6.8614 
  87   0.0000       0.255093         6.9414 
  88   0.0000       0.260279         7.0826 
  89   0.0000       0.267879         7.2894 
  90   0.0000       0.270152         7.3512 
  91   0.0000       0.283468         7.7136 
  92   0.0000       0.286832         7.8051 
  93   0.0000       0.304152         8.2764 
  94   0.0000       0.314327         8.5533 
  95   0.0000       0.319001         8.6805 
  96   0.0000       0.326427         8.8825 
  97   0.0000       0.348051         9.4709 
  98   0.0000       0.352932         9.6038 
  99   0.0000       0.372459        10.1351 
 100   0.0000       0.382929        10.4200 
 101   0.0000       0.383926        10.4471 
 102   0.0000       0.385927        10.5016 
 103   0.0000       0.405689        11.0394 
 104   0.0000       0.406253        11.0547 
 105   0.0000       0.417018        11.3476 
 106   0.0000       0.431274        11.7356 
 107   0.0000       0.432756        11.7759 
 108   0.0000       0.453882        12.3507 
 109   0.0000       0.460057        12.5188 
 110   0.0000       0.461134        12.5481 
 111   0.0000       0.464441        12.6381 
 112   0.0000       0.472650        12.8615 
 113   0.0000       0.474447        12.9104 
 114   0.0000       0.476567        12.9680 
 115   0.0000       0.490348        13.3431 
 116   0.0000       0.492215        13.3939 
 117   0.0000       0.512158        13.9365 
 118   0.0000       0.525491        14.2993 
 119   0.0000       0.527162        14.3448 
 120   0.0000       0.537114        14.6156 
 121   0.0000       0.548279        14.9194 
 122   0.0000       0.551348        15.0029 
 123   0.0000       0.572372        15.5750 
 124   0.0000       0.573365        15.6020 
 125   0.0000       0.593248        16.1431 
 126   0.0000       0.596496        16.2315 
 127   0.0000       0.601598        16.3703 
 128   0.0000       0.616364        16.7721 
 129   0.0000       0.619724        16.8636 
 130   0.0000       0.625235        17.0135 
 131   0.0000       0.625346        17.0165 
 132   0.0000       0.638545        17.3757 
 133   0.0000       0.639583        17.4039 
 134   0.0000       0.644171        17.5288 
 135   0.0000       0.656057        17.8522 
 136   0.0000       0.657567        17.8933 
 137   0.0000       0.661535        18.0013 
 138   0.0000       0.670200        18.2371 
 139   0.0000       0.670908        18.2563 
 140   0.0000       0.689083        18.7509 
 141   0.0000       0.696738        18.9592 
 142   0.0000       0.711136        19.3510 
 143   0.0000       0.712799        19.3962 
 144   0.0000       0.723218        19.6798 
 145   0.0000       0.724007        19.7012 
 146   0.0000       0.739356        20.1189 
 147   0.0000       0.744613        20.2619 
 148   0.0000       0.748117        20.3573 
 149   0.0000       0.766542        20.8587 
 150   0.0000       0.781486        21.2653 
 151   0.0000       0.789165        21.4743 
 152   0.0000       0.790262        21.5041 
 153   0.0000       0.806296        21.9404 
 154   0.0000       0.824867        22.4458 
 155   0.0000       0.828408        22.5421 
 156   0.0000       0.847798        23.0698 
 157   0.0000       0.857965        23.3464 
 158   0.0000       0.862200        23.4617 
 159   0.0000       0.899761        24.4837 
 160   0.0000       0.909662        24.7532 
 161   0.0000       0.909800        24.7569 
 162   0.0000       0.980896        26.6915 
 163   0.0000       1.005116        27.3506 
 164   0.0000       1.035857        28.1871 
 165   0.0000       1.039818        28.2949 
 166   0.0000       1.048809        28.5396 
 167   0.0000       1.111569        30.2473 
 168   0.0000       1.119659        30.4675 
 169   0.0000       1.138475        30.9795 
 170   0.0000       1.145736        31.1771 
 171   0.0000       1.157803        31.5054 
 172   0.0000       1.173926        31.9441 
 173   0.0000       1.179162        32.0866 
 174   0.0000       1.179318        32.0909 
 175   0.0000       1.203566        32.7507 
 176   0.0000       1.206602        32.8333 
 177   0.0000       1.212694        32.9991 
 178   0.0000       1.215527        33.0762 
 179   0.0000       1.229455        33.4552 
 180   0.0000       1.246335        33.9145 
 181   0.0000       1.246619        33.9222 
 182   0.0000       1.251913        34.0663 
 183   0.0000       1.264734        34.4152 
 184   0.0000       1.266501        34.4633 
 185   0.0000       1.279024        34.8040 
 186   0.0000       1.281194        34.8631 
 187   0.0000       1.292362        35.1670 
 188   0.0000       1.340084        36.4655 
 189   0.0000       1.449318        39.4379 
 190   0.0000       1.483572        40.3701 
 191   0.0000       1.531065        41.6624 
 192   0.0000       1.535082        41.7717 
 193   0.0000       1.555862        42.3372 
 194   0.0000       1.584481        43.1159 
 195   0.0000       1.597671        43.4748 
 196   0.0000       1.610294        43.8183 
 197   0.0000       1.617976        44.0274 
 198   0.0000       1.646219        44.7959 
 199   0.0000       1.647766        44.8380 
 200   0.0000       1.653311        44.9889 
 201   0.0000       1.681186        45.7474 
 202   0.0000       1.686255        45.8853 
 203   0.0000       1.694130        46.0996 
 204   0.0000       1.699317        46.2408 
 205   0.0000       1.721275        46.8383 
 206   0.0000       1.724725        46.9322 
 207   0.0000       1.725224        46.9457 
 208   0.0000       1.729214        47.0543 
 209   0.0000       1.739318        47.3292 
 210   0.0000       1.743908        47.4542 
 211   0.0000       1.753562        47.7169 
 212   0.0000       1.754900        47.7533 
 213   0.0000       1.757136        47.8141 
 214   0.0000       1.760573        47.9076 
 215   0.0000       1.778687        48.4005 
 216   0.0000       1.781798        48.4852 
 217   0.0000       1.794095        48.8198 
 218   0.0000       1.794825        48.8397 
 219   0.0000       1.811051        49.2812 
 220   0.0000       1.811935        49.3053 
 221   0.0000       1.827716        49.7347 
 222   0.0000       1.857619        50.5484 
 223   0.0000       1.886657        51.3386 
 224   0.0000       1.887748        51.3682 
 225   0.0000       1.917845        52.1872 
 226   0.0000       1.925722        52.4016 
 227   0.0000       1.936086        52.6836 
 228   0.0000       1.940243        52.7967 
 229   0.0000       1.943134        52.8754 
 230   0.0000       1.950245        53.0689 
 231   0.0000       1.955922        53.2233 
 232   0.0000       1.956019        53.2260 
 233   0.0000       1.967320        53.5335 
 234   0.0000       1.968547        53.5669 
 235   0.0000       1.974602        53.7316 
 236   0.0000       2.014571        54.8193 
 237   0.0000       2.047941        55.7273 
 238   0.0000       2.061584        56.0986 
 239   0.0000       2.082527        56.6684 
 240   0.0000       2.083392        56.6920 
 241   0.0000       2.119726        57.6807 
 242   0.0000       2.123058        57.7714 
 243   0.0000       2.124121        57.8003 
 244   0.0000       2.127597        57.8949 
 245   0.0000       2.147691        58.4417 
 246   0.0000       2.148427        58.4617 
 247   0.0000       2.216534        60.3149 
 248   0.0000       2.218313        60.3634 
 249   0.0000       2.243231        61.0414 
 250   0.0000       2.245290        61.0974 
 251   0.0000       2.263335        61.5885 
 252   0.0000       2.265394        61.6445 
 253   0.0000       2.274154        61.8829 
 254   0.0000       2.275145        61.9098 
 255   0.0000       2.293374        62.4059 
 256   0.0000       2.298480        62.5448 
 257   0.0000       2.309277        62.8386 
 258   0.0000       2.325150        63.2705 
 259   0.0000       2.326652        63.3114 
 260   0.0000       2.330321        63.4113 
 261   0.0000       2.336717        63.5853 
 262   0.0000       2.390713        65.0546 
 263   0.0000       2.405820        65.4657 
 264   0.0000       2.485361        67.6301 
 265   0.0000       2.486897        67.6719 
 266   0.0000       2.535207        68.9865 
 267   0.0000       2.539532        69.1042 
 268   0.0000       2.553269        69.4780 
 269   0.0000       2.573121        70.0182 
 270   0.0000       2.599287        70.7302 
 271   0.0000       2.604235        70.8648 
 272   0.0000       2.610229        71.0280 
 273   0.0000       2.615816        71.1800 
 274   0.0000       2.629100        71.5415 
 275   0.0000       2.675358        72.8002 
 276   0.0000       2.685679        73.0810 
 277   0.0000       2.700214        73.4766 
 278   0.0000       2.708014        73.6888 
 279   0.0000       2.709875        73.7395 
 280   0.0000       2.715858        73.9023 
 281   0.0000       2.716878        73.9300 
 282   0.0000       2.781068        75.6767 
 283   0.0000       2.810553        76.4790 
 284   0.0000       2.831323        77.0442 
 285   0.0000       2.839503        77.2668 
 286   0.0000       2.849138        77.5290 
 287   0.0000       2.849967        77.5515 
 288   0.0000       2.859876        77.8212 
 289   0.0000       2.860923        77.8497 
 290   0.0000       2.878029        78.3152 
 291   0.0000       3.005335        81.7793 
 292   0.0000       3.038424        82.6797 
 293   0.0000       3.044030        82.8323 
 294   0.0000       3.092330        84.1466 
 295   0.0000       3.120582        84.9154 
 296   0.0000       3.167413        86.1897 
 297   0.0000       3.257362        88.6373 
 298   0.0000       3.368678        91.6664 
 299   0.0000       3.399037        92.4925 
 300   0.0000       3.429686        93.3265 
 301   0.0000       3.640344        99.0588 
 302   0.0000       3.658888        99.5634 

                    ********************************
                    * MULLIKEN POPULATION ANALYSIS *
                    ********************************

-----------------------
MULLIKEN ATOMIC CHARGES
-----------------------
   0 C :    0.084271
   1 C :    0.084274
   2 H :    0.105677
   3 H :    0.105677
   4 C :    0.101554
   5 C :   -0.027011
   6 C :   -0.019088
   7 C :   -0.005939
   8 H :    0.030451
   9 C :   -0.007274
  10 H :    0.034414
  11 C :    0.019248
  12 H :    0.057571
  13 H :    0.058621
  14 H :    0.060049
  15 C :    0.101552
  16 C :   -0.027009
  17 C :   -0.019090
  18 C :   -0.005937
  19 H :    0.030451
  20 C :   -0.007272
  21 H :    0.034415
  22 C :    0.019245
  23 H :    0.057571
  24 H :    0.058621
  25 H :    0.060049
  26 C :    0.223003
  27 H :    0.125420
  28 N :   -0.166758
  29 N :   -0.166757
Sum of atomic charges:    1.0000000

--------------------------------
MULLIKEN REDUCED ORBITAL CHARGES
--------------------------------
  0 C s       :     3.137203  s :     3.137203
      pz      :     0.786887  p :     2.731549
      px      :     1.025144
      py      :     0.919518
      dz2     :     0.014802  d :     0.046977
      dxz     :     0.007366
      dyz     :     0.012283
      dx2y2   :     0.004967
      dxy     :     0.007560
  1 C s       :     3.137201  s :     3.137201
      pz      :     0.786887  p :     2.731548
      px      :     1.025144
      py      :     0.919518
      dz2     :     0.014802  d :     0.046977
      dxz     :     0.007366
      dyz     :     0.012283
      dx2y2   :     0.004967
      dxy     :     0.007560
  2 H s       :     0.869965  s :     0.869965
      pz      :     0.010896  p :     0.024358
      px      :     0.004661
      py      :     0.008802
  3 H s       :     0.869965  s :     0.869965
      pz      :     0.010896  p :     0.024358
      px      :     0.004661
      py      :     0.008802
  4 C s       :     2.970280  s :     2.970280
      pz      :     1.030489  p :     2.873625
      px      :     1.030809
      py      :     0.812327
      dz2     :     0.009533  d :     0.054541
      dxz     :     0.006597
      dyz     :     0.011173
      dx2y2   :     0.015868
      dxy     :     0.011370
  5 C s       :     3.208072  s :     3.208072
      pz      :     0.945887  p :     2.785095
      px      :     0.921131
      py      :     0.918077
      dz2     :     0.007026  d :     0.033843
      dxz     :     0.004922
      dyz     :     0.007071
      dx2y2   :     0.006173
      dxy     :     0.008651
  6 C s       :     3.208894  s :     3.208894
      pz      :     0.916670  p :     2.776432
      px      :     0.918078
      py      :     0.941685
      dz2     :     0.004448  d :     0.033761
      dxz     :     0.004150
      dyz     :     0.008658
      dx2y2   :     0.007174
      dxy     :     0.009331
  7 C s       :     3.154618  s :     3.154618
      pz      :     0.935088  p :     2.816749
      px      :     0.939368
      py      :     0.942293
      dz2     :     0.004855  d :     0.034572
      dxz     :     0.004846
      dyz     :     0.007999
      dx2y2   :     0.008673
      dxy     :     0.008199
  8 H s       :     0.946113  s :     0.946113
      pz      :     0.005508  p :     0.023436
      px      :     0.009566
      py      :     0.008361
  9 C s       :     3.155351  s :     3.155351
      pz      :     0.947970  p :     2.817348
      px      :     0.939242
      py      :     0.930136
      dz2     :     0.006166  d :     0.034574
      dxz     :     0.004797
      dyz     :     0.008162
      dx2y2   :     0.007220
      dxy     :     0.008230
 10 H s       :     0.942114  s :     0.942114
      pz      :     0.010153  p :     0.023472
      px      :     0.009371
      py      :     0.003948
 11 C s       :     3.152039  s :     3.152039
      pz      :     0.940410  p :     2.794206
      px      :     0.947086
      py      :     0.906710
      dz2     :     0.006389  d :     0.034508
      dxz     :     0.005767
      dyz     :     0.007076
      dx2y2   :     0.008271
      dxy     :     0.007005
 12 H s       :     0.919155  s :     0.919155
      pz      :     0.010246  p :     0.023274
      px      :     0.008913
      py      :     0.004114
 13 H s       :     0.918128  s :     0.918128
      pz      :     0.005375  p :     0.023251
      px      :     0.008936
      py      :     0.008940
 14 H s       :     0.916864  s :     0.916864
      pz      :     0.004782  p :     0.023087
      px      :     0.003279
      py      :     0.015026
 15 C s       :     2.970283  s :     2.970283
      pz      :     1.030489  p :     2.873623
      px      :     1.030809
      py      :     0.812325
      dz2     :     0.009533  d :     0.054541
      dxz     :     0.006597
      dyz     :     0.011173
      dx2y2   :     0.015868
      dxy     :     0.011370
 16 C s       :     3.208069  s :     3.208069
      pz      :     0.945887  p :     2.785096
      px      :     0.921133
      py      :     0.918077
      dz2     :     0.007026  d :     0.033843
      dxz     :     0.004922
      dyz     :     0.007071
      dx2y2   :     0.006173
      dxy     :     0.008651
 17 C s       :     3.208894  s :     3.208894
      pz      :     0.916671  p :     2.776435
      px      :     0.918079
      py      :     0.941685
      dz2     :     0.004448  d :     0.033761
      dxz     :     0.004150
      dyz     :     0.008658
      dx2y2   :     0.007174
      dxy     :     0.009331
 18 C s       :     3.154619  s :     3.154619
      pz      :     0.935088  p :     2.816747
      px      :     0.939366
      py      :     0.942293
      dz2     :     0.004855  d :     0.034572
      dxz     :     0.004846
      dyz     :     0.007999
      dx2y2   :     0.008673
      dxy     :     0.008199
 19 H s       :     0.946113  s :     0.946113
      pz      :     0.005508  p :     0.023436
      px      :     0.009566
      py      :     0.008361
 20 C s       :     3.155350  s :     3.155350
      pz      :     0.947970  p :     2.817347
      px      :     0.939241
      py      :     0.930136
      dz2     :     0.006166  d :     0.034574
      dxz     :     0.004797
      dyz     :     0.008162
      dx2y2   :     0.007220
      dxy     :     0.008230
 21 H s       :     0.942113  s :     0.942113
      pz      :     0.010153  p :     0.023472
      px      :     0.009371
      py      :     0.003948
 22 C s       :     3.152041  s :     3.152041
      pz      :     0.940411  p :     2.794206
      px      :     0.947086
      py      :     0.906710
      dz2     :     0.006389  d :     0.034508
      dxz     :     0.005767
      dyz     :     0.007076
      dx2y2   :     0.008271
      dxy     :     0.007005
 23 H s       :     0.919155  s :     0.919155
      pz      :     0.010246  p :     0.023273
      px      :     0.008913
      py      :     0.004114
 24 H s       :     0.918128  s :     0.918128
      pz      :     0.005375  p :     0.023251
      px      :     0.008936
      py      :     0.008940
 25 H s       :     0.916864  s :     0.916864
      pz      :     0.004782  p :     0.023087
      px      :     0.003279
      py      :     0.015025
 26 C s       :     3.095713  s :     3.095713
      pz      :     0.905681  p :     2.614410
      px      :     0.933717
      py      :     0.775012
      dz2     :     0.012364  d :     0.066874
      dxz     :     0.006403
      dyz     :     0.022625
      dx2y2   :     0.009187
      dxy     :     0.016295
 27 H s       :     0.850464  s :     0.850464
      pz      :     0.018421  p :     0.024117
      px      :     0.004397
      py      :     0.001299
 28 N s       :     3.374489  s :     3.374489
      pz      :     1.140777  p :     3.758987
      px      :     1.472659
      py      :     1.145551
      dz2     :     0.006280  d :     0.033282
      dxz     :     0.006524
      dyz     :     0.010654
      dx2y2   :     0.004264
      dxy     :     0.005561
 29 N s       :     3.374488  s :     3.374488
      pz      :     1.140777  p :     3.758987
      px      :     1.472659
      py      :     1.145551
      dz2     :     0.006280  d :     0.033282
      dxz     :     0.006524
      dyz     :     0.010654
      dx2y2   :     0.004264
      dxy     :     0.005561


                     *******************************
                     * LOEWDIN POPULATION ANALYSIS *
                     *******************************

----------------------
LOEWDIN ATOMIC CHARGES
----------------------
   0 C :    0.032820
   1 C :    0.032820
   2 H :    0.062183
   3 H :    0.062183
   4 C :   -0.002468
   5 C :   -0.028307
   6 C :   -0.023982
   7 C :    0.002633
   8 H :    0.041522
   9 C :    0.003583
  10 H :    0.043970
  11 C :    0.007008
  12 H :    0.050837
  13 H :    0.051182
  14 H :    0.051416
  15 C :   -0.002468
  16 C :   -0.028307
  17 C :   -0.023982
  18 C :    0.002632
  19 H :    0.041522
  20 C :    0.003583
  21 H :    0.043970
  22 C :    0.007008
  23 H :    0.050837
  24 H :    0.051182
  25 H :    0.051416
  26 C :    0.125226
  27 H :    0.063922
  28 N :    0.113029
  29 N :    0.113030

-------------------------------
LOEWDIN REDUCED ORBITAL CHARGES
-------------------------------
  0 C s       :     2.857635  s :     2.857635
      pz      :     0.919771  p :     2.994917
      px      :     1.022360
      py      :     1.052786
      dz2     :     0.038033  d :     0.114628
      dxz     :     0.014313
      dyz     :     0.033911
      dx2y2   :     0.013897
      dxy     :     0.014473
  1 C s       :     2.857635  s :     2.857635
      pz      :     0.919770  p :     2.994917
      px      :     1.022360
      py      :     1.052786
      dz2     :     0.038033  d :     0.114628
      dxz     :     0.014313
      dyz     :     0.033911
      dx2y2   :     0.013897
      dxy     :     0.014473
  2 H s       :     0.865637  s :     0.865637
      pz      :     0.032005  p :     0.072180
      px      :     0.014855
      py      :     0.025320
  3 H s       :     0.865637  s :     0.865637
      pz      :     0.032005  p :     0.072180
      px      :     0.014855
      py      :     0.025320
  4 C s       :     2.830784  s :     2.830784
      pz      :     1.060586  p :     3.037652
      px      :     1.085505
      py      :     0.891560
      dz2     :     0.021350  d :     0.134032
      dxz     :     0.017031
      dyz     :     0.028307
      dx2y2   :     0.038552
      dxy     :     0.028791
  5 C s       :     2.857807  s :     2.857807
      pz      :     1.010919  p :     3.081299
      px      :     1.007398
      py      :     1.062982
      dz2     :     0.016305  d :     0.089201
      dxz     :     0.013364
      dyz     :     0.019484
      dx2y2   :     0.017373
      dxy     :     0.022676
  6 C s       :     2.857777  s :     2.857777
      pz      :     1.011101  p :     3.077291
      px      :     1.005285
      py      :     1.060906
      dz2     :     0.010516  d :     0.088914
      dxz     :     0.010759
      dyz     :     0.022402
      dx2y2   :     0.020225
      dxy     :     0.025012
  7 C s       :     2.857963  s :     2.857963
      pz      :     0.995760  p :     3.050225
      px      :     1.003943
      py      :     1.050522
      dz2     :     0.011122  d :     0.089180
      dxz     :     0.012124
      dyz     :     0.020734
      dx2y2   :     0.023365
      dxy     :     0.021834
  8 H s       :     0.890058  s :     0.890058
      pz      :     0.017064  p :     0.068420
      px      :     0.027005
      py      :     0.024351
  9 C s       :     2.858171  s :     2.858171
      pz      :     1.001565  p :     3.049113
      px      :     1.003081
      py      :     1.044467
      dz2     :     0.014054  d :     0.089132
      dxz     :     0.012678
      dyz     :     0.021692
      dx2y2   :     0.019526
      dxy     :     0.021183
 10 H s       :     0.887530  s :     0.887530
      pz      :     0.028700  p :     0.068500
      px      :     0.026624
      py      :     0.013175
 11 C s       :     2.860684  s :     2.860684
      pz      :     0.996088  p :     3.043533
      px      :     1.000600
      py      :     1.046844
      dz2     :     0.014525  d :     0.088776
      dxz     :     0.016110
      dyz     :     0.018231
      dx2y2   :     0.021299
      dxy     :     0.018611
 12 H s       :     0.881659  s :     0.881659
      pz      :     0.028811  p :     0.067504
      px      :     0.025513
      py      :     0.013180
 13 H s       :     0.881316  s :     0.881316
      pz      :     0.016538  p :     0.067501
      px      :     0.025622
      py      :     0.025341
 14 H s       :     0.881057  s :     0.881057
      pz      :     0.015033  p :     0.067527
      px      :     0.011267
      py      :     0.041228
 15 C s       :     2.830784  s :     2.830784
      pz      :     1.060586  p :     3.037652
      px      :     1.085505
      py      :     0.891560
      dz2     :     0.021350  d :     0.134032
      dxz     :     0.017031
      dyz     :     0.028307
      dx2y2   :     0.038552
      dxy     :     0.028791
 16 C s       :     2.857807  s :     2.857807
      pz      :     1.010919  p :     3.081299
      px      :     1.007398
      py      :     1.062982
      dz2     :     0.016305  d :     0.089201
      dxz     :     0.013364
      dyz     :     0.019484
      dx2y2   :     0.017373
      dxy     :     0.022676
 17 C s       :     2.857777  s :     2.857777
      pz      :     1.011101  p :     3.077292
      px      :     1.005285
      py      :     1.060906
      dz2     :     0.010516  d :     0.088914
      dxz     :     0.010759
      dyz     :     0.022402
      dx2y2   :     0.020225
      dxy     :     0.025012
 18 C s       :     2.857963  s :     2.857963
      pz      :     0.995760  p :     3.050225
      px      :     1.003943
      py      :     1.050522
      dz2     :     0.011122  d :     0.089180
      dxz     :     0.012124
      dyz     :     0.020734
      dx2y2   :     0.023365
      dxy     :     0.021834
 19 H s       :     0.890058  s :     0.890058
      pz      :     0.017064  p :     0.068420
      px      :     0.027005
      py      :     0.024351
 20 C s       :     2.858171  s :     2.858171
      pz      :     1.001565  p :     3.049113
      px      :     1.003081
      py      :     1.044467
      dz2     :     0.014054  d :     0.089132
      dxz     :     0.012678
      dyz     :     0.021692
      dx2y2   :     0.019526
      dxy     :     0.021183
 21 H s       :     0.887530  s :     0.887530
      pz      :     0.028700  p :     0.068500
      px      :     0.026625
      py      :     0.013175
 22 C s       :     2.860684  s :     2.860684
      pz      :     0.996089  p :     3.043533
      px      :     1.000600
      py      :     1.046844
      dz2     :     0.014525  d :     0.088776
      dxz     :     0.016110
      dyz     :     0.018231
      dx2y2   :     0.021299
      dxy     :     0.018611
 23 H s       :     0.881659  s :     0.881659
      pz      :     0.028811  p :     0.067504
      px      :     0.025513
      py      :     0.013180
 24 H s       :     0.881316  s :     0.881316
      pz      :     0.016538  p :     0.067501
      px      :     0.025623
      py      :     0.025341
 25 H s       :     0.881057  s :     0.881057
      pz      :     0.015033  p :     0.067527
      px      :     0.011267
      py      :     0.041228
 26 C s       :     2.839088  s :     2.839088
      pz      :     1.023668  p :     2.880298
      px      :     0.959878
      py      :     0.896752
      dz2     :     0.028719  d :     0.155388
      dxz     :     0.010207
      dyz     :     0.059786
      dx2y2   :     0.023001
      dxy     :     0.033675
 27 H s       :     0.862597  s :     0.862597
      pz      :     0.052627  p :     0.073482
      px      :     0.013985
      py      :     0.006870
 28 N s       :     3.041518  s :     3.041518
      pz      :     1.197082  p :     3.768193
      px      :     1.383896
      py      :     1.187215
      dz2     :     0.017159  d :     0.077259
      dxz     :     0.012370
      dyz     :     0.028017
      dx2y2   :     0.009837
      dxy     :     0.009876
 29 N s       :     3.041518  s :     3.041518
      pz      :     1.197082  p :     3.768193
      px      :     1.383896
      py      :     1.187215
      dz2     :     0.017159  d :     0.077259
      dxz     :     0.012370
      dyz     :     0.028017
      dx2y2   :     0.009837
      dxy     :     0.009876


                      *****************************
                      * MAYER POPULATION ANALYSIS *
                      *****************************

  NA   - Mulliken gross atomic population
  ZA   - Total nuclear charge
  QA   - Mulliken gross atomic charge
  VA   - Mayer's total valence
  BVA  - Mayer's bonded valence
  FA   - Mayer's free valence

  ATOM       NA         ZA         QA         VA         BVA        FA
  0 C      5.9157     6.0000     0.0843     3.8519     3.8519    -0.0000
  1 C      5.9157     6.0000     0.0843     3.8519     3.8519    -0.0000
  2 H      0.8943     1.0000     0.1057     0.9967     0.9967    -0.0000
  3 H      0.8943     1.0000     0.1057     0.9967     0.9967    -0.0000
  4 C      5.8984     6.0000     0.1016     3.7780     3.7780    -0.0000
  5 C      6.0270     6.0000    -0.0270     3.9134     3.9134     0.0000
  6 C      6.0191     6.0000    -0.0191     3.9119     3.9119    -0.0000
  7 C      6.0059     6.0000    -0.0059     3.9075     3.9075     0.0000
  8 H      0.9695     1.0000     0.0305     0.9941     0.9941     0.0000
  9 C      6.0073     6.0000    -0.0073     3.9073     3.9073     0.0000
 10 H      0.9656     1.0000     0.0344     0.9946     0.9946     0.0000
 11 C      5.9808     6.0000     0.0192     3.8667     3.8667    -0.0000
 12 H      0.9424     1.0000     0.0576     0.9858     0.9858     0.0000
 13 H      0.9414     1.0000     0.0586     0.9857     0.9857     0.0000
 14 H      0.9400     1.0000     0.0600     0.9853     0.9853    -0.0000
 15 C      5.8984     6.0000     0.1016     3.7780     3.7780    -0.0000
 16 C      6.0270     6.0000    -0.0270     3.9134     3.9134    -0.0000
 17 C      6.0191     6.0000    -0.0191     3.9119     3.9119    -0.0000
 18 C      6.0059     6.0000    -0.0059     3.9075     3.9075    -0.0000
 19 H      0.9695     1.0000     0.0305     0.9941     0.9941    -0.0000
 20 C      6.0073     6.0000    -0.0073     3.9073     3.9073     0.0000
 21 H      0.9656     1.0000     0.0344     0.9946     0.9946     0.0000
 22 C      5.9808     6.0000     0.0192     3.8667     3.8667    -0.0000
 23 H      0.9424     1.0000     0.0576     0.9858     0.9858     0.0000
 24 H      0.9414     1.0000     0.0586     0.9857     0.9857     0.0000
 25 H      0.9400     1.0000     0.0600     0.9853     0.9853    -0.0000
 26 C      5.7770     6.0000     0.2230     3.8505     3.8505    -0.0000
 27 H      0.8746     1.0000     0.1254     1.0009     1.0009    -0.0000
 28 N      7.1668     7.0000    -0.1668     3.4302     3.4302    -0.0000
 29 N      7.1668     7.0000    -0.1668     3.4302     3.4302    -0.0000

  Mayer bond orders larger than 0.100000
B(  0-C ,  1-C ) :   1.6122 B(  0-C ,  2-H ) :   0.9815 B(  0-C , 28-N ) :   1.1606 
B(  1-C ,  3-H ) :   0.9815 B(  1-C , 29-N ) :   1.1606 B(  4-C ,  5-C ) :   1.3970 
B(  4-C ,  6-C ) :   1.3970 B(  4-C , 28-N ) :   0.8526 B(  5-C ,  7-C ) :   1.3997 
B(  5-C ,  8-H ) :   0.9917 B(  6-C ,  9-C ) :   1.4037 B(  6-C , 10-H ) :   0.9927 
B(  7-C , 11-C ) :   1.4050 B(  7-C , 12-H ) :   0.9826 B(  9-C , 11-C ) :   1.4007 
B(  9-C , 13-H ) :   0.9827 B( 11-C , 14-H ) :   0.9893 B( 15-C , 16-C ) :   1.3970 
B( 15-C , 17-C ) :   1.3970 B( 15-C , 29-N ) :   0.8526 B( 16-C , 18-C ) :   1.3997 
B( 16-C , 19-H ) :   0.9917 B( 17-C , 20-C ) :   1.4037 B( 17-C , 21-H ) :   0.9927 
B( 18-C , 22-C ) :   1.4050 B( 18-C , 23-H ) :   0.9826 B( 20-C , 22-C ) :   1.4007 
B( 20-C , 24-H ) :   0.9827 B( 22-C , 25-H ) :   0.9893 B( 26-C , 27-H ) :   0.9694 
B( 26-C , 28-N ) :   1.3430 B( 26-C , 29-N ) :   1.3430 

-------
TIMINGS
-------

Total SCF time: 0 days 0 hours 1 min 56 sec 

Total time                  ....     116.846 sec
Sum of individual times     ....     116.215 sec  ( 99.5%)

Fock matrix formation       ....     112.840 sec  ( 96.6%)
  Split-RI-J                ....       5.160 sec  (  4.6% of F)
  Chain of spheres X        ....      99.771 sec  ( 88.4% of F)
  XC integration            ....       7.668 sec  (  6.8% of F)
    Basis function eval.    ....       2.364 sec  ( 30.8% of XC)
    Density eval.           ....       1.605 sec  ( 20.9% of XC)
    XC-Functional eval.     ....       0.864 sec  ( 11.3% of XC)
    XC-Potential eval.      ....       1.627 sec  ( 21.2% of XC)
Diagonalization             ....       0.134 sec  (  0.1%)
Density matrix formation    ....       0.016 sec  (  0.0%)
Population analysis         ....       0.020 sec  (  0.0%)
Initial guess               ....       0.394 sec  (  0.3%)
Orbital Transformation      ....       0.000 sec  (  0.0%)
Orbital Orthonormalization  ....       0.000 sec  (  0.0%)
DIIS solution               ....       0.074 sec  (  0.1%)
SOSCF solution              ....       0.112 sec  (  0.1%)
Grid generation             ....       2.624 sec  (  2.2%)

Maximum memory used throughout the entire SCF-calculation: 70.2 MB


-------------------------------------------------------------------------------
                          DFT DISPERSION CORRECTION                            
                                                                               
                                 DFTD4 V2.5                                    
-------------------------------------------------------------------------------
The WB97X functional is recognized
Active option DFTDOPT                   ...         5   

Starting D4
-------------------------   ----------------
Dispersion correction           -0.005735302
-------------------------   ----------------


-------------------------   --------------------
FINAL SINGLE POINT ENERGY      -688.044355236909
-------------------------   --------------------


                            ***************************************
                            *     ORCA property calculations      *
                            ***************************************

                                    ---------------------
                                    Active property flags
                                    ---------------------
   (+) Dipole Moment


------------------------------------------------------------------------------
                       ORCA ELECTRIC PROPERTIES CALCULATION
------------------------------------------------------------------------------

Dipole Moment Calculation                       ... on
Quadrupole Moment Calculation                   ... off
Polarizability Calculation                      ... off
GBWName                                         ... DFT_water_outs/7+-gasSP.gbw
Electron density                                ... DFT_water_outs/7+-gasSP.scfp
The origin for moment calculation is the CENTER OF MASS  = (-0.000000,  0.000000 -0.013179)

-------------
DIPOLE MOMENT
-------------
                                X             Y             Z
Electronic contribution:     -0.00000       0.00000      -1.66357
Nuclear contribution   :      0.00000      -0.00000       1.31577
                        -----------------------------------------
Total Dipole Moment    :     -0.00000       0.00000      -0.34780
                        -----------------------------------------
Magnitude (a.u.)       :      0.34780
Magnitude (Debye)      :      0.88404



--------------------
Rotational spectrum 
--------------------
 
Rotational constants in cm-1:     0.052774     0.006755     0.006435 
Rotational constants in MHz :  1582.132824   202.514358   192.906677 

 Dipole components along the rotational axes: 
x,y,z [a.u.] :     0.000000    -0.347800     0.000000 
x,y,z [Debye]:     0.000000    -0.884038     0.000001 

 

Timings for individual modules:

Sum of individual times         ...      118.220 sec (=   1.970 min)
GTO integral calculation        ...        0.825 sec (=   0.014 min)   0.7 %
SCF iterations                  ...      117.396 sec (=   1.957 min)  99.3 %
                             ****ORCA TERMINATED NORMALLY****
TOTAL RUN TIME: 0 days 0 hours 1 minutes 58 seconds 945 msec
