
                                 *****************
                                 * O   R   C   A *
                                 *****************

                                            #,                                       
                                            ###                                      
                                            ####                                     
                                            #####                                    
                                            ######                                   
                                           ########,                                 
                                     ,,################,,,,,                         
                               ,,#################################,,                 
                          ,,##########################################,,             
                       ,#########################################, ''#####,          
                    ,#############################################,,   '####,        
                  ,##################################################,,,,####,       
                ,###########''''           ''''###############################       
              ,#####''   ,,,,##########,,,,          '''####'''          '####       
            ,##' ,,,,###########################,,,                        '##       
           ' ,,###''''                  '''############,,,                           
         ,,##''                                '''############,,,,        ,,,,,,###''
      ,#''                                            '''#######################'''  
     '                                                          ''''####''''         
             ,#######,   #######,   ,#######,      ##                                
            ,#'     '#,  ##    ##  ,#'     '#,    #''#        ######   ,####,        
            ##       ##  ##   ,#'  ##            #'  '#       #        #'  '#        
            ##       ##  #######   ##           ,######,      #####,   #    #        
            '#,     ,#'  ##    ##  '#,     ,#' ,#      #,         ##   #,  ,#        
             '#######'   ##     ##  '#######'  #'      '#     #####' # '####'        



                  #######################################################
                  #                        -***-                        #
                  #          Department of theory and spectroscopy      #
                  #    Directorship and core code : Frank Neese         #
                  #        Max Planck Institute fuer Kohlenforschung    #
                  #                Kaiser Wilhelm Platz 1               #
                  #                 D-45470 Muelheim/Ruhr               #
                  #                      Germany                        #
                  #                                                     #
                  #                  All rights reserved                #
                  #                        -***-                        #
                  #######################################################


                         Program Version 5.0.4 -  RELEASE  -


 With contributions from (in alphabetic order):
   Daniel Aravena         : Magnetic Suceptibility
   Michael Atanasov       : Ab Initio Ligand Field Theory (pilot matlab implementation)
   Alexander A. Auer      : GIAO ZORA, VPT2 properties, NMR spectrum
   Ute Becker             : Parallelization
   Giovanni Bistoni       : ED, misc. LED, open-shell LED, HFLD
   Martin Brehm           : Molecular dynamics
   Dmytro Bykov           : SCF Hessian
   Vijay G. Chilkuri      : MRCI spin determinant printing, contributions to CSF-ICE
   Dipayan Datta          : RHF DLPNO-CCSD density
   Achintya Kumar Dutta   : EOM-CC, STEOM-CC
   Dmitry Ganyushin       : Spin-Orbit,Spin-Spin,Magnetic field MRCI
   Miquel Garcia          : C-PCM and meta-GGA Hessian, CC/C-PCM, Gaussian charge scheme
   Yang Guo               : DLPNO-NEVPT2, F12-NEVPT2, CIM, IAO-localization
   Andreas Hansen         : Spin unrestricted coupled pair/coupled cluster methods
   Benjamin Helmich-Paris : MC-RPA, TRAH-SCF, COSX integrals
   Lee Huntington         : MR-EOM, pCC
   Robert Izsak           : Overlap fitted RIJCOSX, COSX-SCS-MP3, EOM
   Marcus Kettner         : VPT2
   Christian Kollmar      : KDIIS, OOCD, Brueckner-CCSD(T), CCSD density, CASPT2, CASPT2-K
   Simone Kossmann        : Meta GGA functionals, TD-DFT gradient, OOMP2, MP2 Hessian
   Martin Krupicka        : Initial AUTO-CI
   Lucas Lang             : DCDCAS
   Marvin Lechner         : AUTO-CI (C++ implementation), FIC-MRCC
   Dagmar Lenk            : GEPOL surface, SMD
   Dimitrios Liakos       : Extrapolation schemes; Compound Job, initial MDCI parallelization
   Dimitrios Manganas     : Further ROCIS development; embedding schemes
   Dimitrios Pantazis     : SARC Basis sets
   Anastasios Papadopoulos: AUTO-CI, single reference methods and gradients
   Taras Petrenko         : DFT Hessian,TD-DFT gradient, ASA, ECA, R-Raman, ABS, FL, XAS/XES, NRVS
   Peter Pinski           : DLPNO-MP2, DLPNO-MP2 Gradient
   Christoph Reimann      : Effective Core Potentials
   Marius Retegan         : Local ZFS, SOC
   Christoph Riplinger    : Optimizer, TS searches, QM/MM, DLPNO-CCSD(T), (RO)-DLPNO pert. Triples
   Tobias Risthaus        : Range-separated hybrids, TD-DFT gradient, RPA, STAB
   Michael Roemelt        : Original ROCIS implementation
   Masaaki Saitow         : Open-shell DLPNO-CCSD energy and density
   Barbara Sandhoefer     : DKH picture change effects
   Avijit Sen             : IP-ROCIS
   Kantharuban Sivalingam : CASSCF convergence, NEVPT2, FIC-MRCI
   Bernardo de Souza      : ESD, SOC TD-DFT
   Georgi Stoychev        : AutoAux, RI-MP2 NMR, DLPNO-MP2 response
   Willem Van den Heuvel  : Paramagnetic NMR
   Boris Wezisla          : Elementary symmetry handling
   Frank Wennmohs         : Technical directorship


 We gratefully acknowledge several colleagues who have allowed us to
 interface, adapt or use parts of their codes:
   Stefan Grimme, W. Hujo, H. Kruse, P. Pracht,  : VdW corrections, initial TS optimization,
                  C. Bannwarth, S. Ehlert          DFT functionals, gCP, sTDA/sTD-DF
   Ed Valeev, F. Pavosevic, A. Kumar             : LibInt (2-el integral package), F12 methods
   Garnet Chan, S. Sharma, J. Yang, R. Olivares  : DMRG
   Ulf Ekstrom                                   : XCFun DFT Library
   Mihaly Kallay                                 : mrcc  (arbitrary order and MRCC methods)
   Jiri Pittner, Ondrej Demel                    : Mk-CCSD
   Frank Weinhold                                : gennbo (NPA and NBO analysis)
   Christopher J. Cramer and Donald G. Truhlar   : smd solvation model
   Lars Goerigk                                  : TD-DFT with DH, B97 family of functionals
   V. Asgeirsson, H. Jonsson                     : NEB implementation
   FAccTs GmbH                                   : IRC, NEB, NEB-TS, DLPNO-Multilevel, CI-OPT
                                                   MM, QMMM, 2- and 3-layer-ONIOM, Crystal-QMMM,
                                                   LR-CPCM, SF, NACMEs, symmetry and pop. for TD-DFT,
                                                   nearIR, NL-DFT gradient (VV10), updates on ESD,
                                                   ML-optimized integration grids
   S Lehtola, MJT Oliveira, MAL Marques          : LibXC Library
   Liviu Ungur et al                             : ANISO software


 Your calculation uses the libint2 library for the computation of 2-el integrals
 For citations please refer to: http://libint.valeyev.net

 Your ORCA version has been built with support for libXC version: 5.1.0
 For citations please refer to: https://tddft.org/programs/libxc/

 This ORCA versions uses:
   CBLAS   interface :  Fast vector & matrix operations
   LAPACKE interface :  Fast linear algebra routines
   SCALAPACK package :  Parallel linear algebra routines
   Shared memory     :  Shared parallel matrices
   BLAS/LAPACK       :  OpenBLAS 0.3.15  USE64BITINT DYNAMIC_ARCH NO_AFFINITY SkylakeX SINGLE_THREADED
        Core in use  :  SkylakeX
   Copyright (c) 2011-2014, The OpenBLAS Project




***************************************
The coordinates will be read from file: 7+.xyz
***************************************


Your calculation utilizes the atom-pairwise dispersion correction
based on tight binding partial charges (D4)
Cite in your paper:
E.Caldeweyher, C.Bannwarth, S.Grimme, J.Chem.Phys., (2017), 147, 034112.
E.Caldeweyher, S.Ehlert, A.Hansen, H.Neugebauer, S.Grimme, J.Chem.Phys., (2018), in progress.
   

XCFun DFT library Copyright 2009-2010 Ulf Ekstrom and contributors.
See http://admol.org/xcfun for more information.
This is free software; see the source code for copying conditions.
There is ABSOLUTELY NO WARRANTY; not even for MERCHANTABILITY or FITNESS FOR A PARTICULAR PURPOSE.
For details see the documentation.
Scientific users of this library should cite U. Ekstrom, L. Visscher, R. Bast, A. J. Thorvaldsen and K. Ruud;
J.Chem.Theor.Comp. 2010, DOI: 10.1021/ct100117s
XCFun Version 0.99 

================================================================================

----- Orbital basis set information -----
Your calculation utilizes the basis: def2-SVP
   F. Weigend and R. Ahlrichs, Phys. Chem. Chem. Phys. 7, 3297 (2005).

----- AuxJ basis set information -----
Your calculation utilizes the auxiliary basis: def2/J
   F. Weigend, Phys. Chem. Chem. Phys. 8, 1057 (2006).

================================================================================
                                        WARNINGS
                       Please study these warnings very carefully!
================================================================================


INFO   : the flag for use of the SHARK integral package has been found!

================================================================================
                                       INPUT FILE
================================================================================
NAME = 7+.inp
|  1> # ORCA 5.0.4 - 7+.inp # write input file
|  2> # Basic Mode
|  3> #
|  4> ! Freq wB97X Def2-SVP D4 SlowConv TightSCF DEFGRID2 Def2/J RIJCOSX 
|  5> 
|  6> 
|  7> 
|  8> %maxcore 4500
|  9> 
| 10> %geom
| 11> Maxiter 150
| 12> END
| 13> 
| 14> * xyzfile 1 1 7+.xyz
| 15> 
| 16>                          ****END OF INPUT****
================================================================================

                       ****************************
                       * Single Point Calculation *
                       ****************************

---------------------------------
CARTESIAN COORDINATES (ANGSTROEM)
---------------------------------
  C      0.005705    0.679070   -1.865586
  C     -0.005711   -0.679070   -1.865586
  H      0.003694    1.394770   -2.685202
  H     -0.003702   -1.394770   -2.685202
  C      0.006825    2.439614   -0.073877
  C     -0.894250    2.818275    0.919046
  C      0.910267    3.346084   -0.625498
  C     -0.878546    4.134505    1.376255
  H     -1.608558    2.094479    1.320717
  C      0.906085    4.661921   -0.167953
  H      1.615970    3.022105   -1.395195
  C      0.017005    5.055680    0.833055
  H     -1.580889    4.441888    2.155199
  H      1.611615    5.381529   -0.591242
  H      0.021030    6.088413    1.191721
  C     -0.006827   -2.439614   -0.073876
  C      0.894247   -2.818273    0.919049
  C     -0.910265   -3.346086   -0.625499
  C      0.878547   -4.134503    1.376257
  H      1.608553   -2.094476    1.320721
  C     -0.906081   -4.661923   -0.167955
  H     -1.615968   -3.022108   -1.395197
  C     -0.017001   -5.055680    0.833054
  H      1.580889   -4.441884    2.155203
  H     -1.611607   -5.381533   -0.591246
  H     -0.021023   -6.088414    1.191719
  C     -0.000000    0.000000    0.235440
  H      0.000001    0.000001    1.326143
  N      0.007357    1.081772   -0.542492
  N     -0.007361   -1.081771   -0.542492

----------------------------
CARTESIAN COORDINATES (A.U.)
----------------------------
  NO LB      ZA    FRAG     MASS         X           Y           Z
   0 C     6.0000    0    12.011    0.010781    1.283256   -3.525447
   1 C     6.0000    0    12.011   -0.010792   -1.283256   -3.525447
   2 H     1.0000    0     1.008    0.006981    2.635733   -5.074296
   3 H     1.0000    0     1.008   -0.006996   -2.635733   -5.074296
   4 C     6.0000    0    12.011    0.012897    4.610202   -0.139607
   5 C     6.0000    0    12.011   -1.689888    5.325768    1.736745
   6 C     6.0000    0    12.011    1.720155    6.323182   -1.182020
   7 C     6.0000    0    12.011   -1.660211    7.813082    2.600745
   8 H     1.0000    0     1.008   -3.039734    3.957992    2.495793
   9 C     6.0000    0    12.011    1.712253    8.809754   -0.317385
  10 H     1.0000    0     1.008    3.053741    5.710951   -2.636536
  11 C     6.0000    0    12.011    0.032135    9.553851    1.574246
  12 H     1.0000    0     1.008   -2.987447    8.393952    4.072736
  13 H     1.0000    0     1.008    3.045511   10.169616   -1.117285
  14 H     1.0000    0     1.008    0.039741   11.505433    2.252026
  15 C     6.0000    0    12.011   -0.012901   -4.610202   -0.139605
  16 C     6.0000    0    12.011    1.689882   -5.325764    1.736751
  17 C     6.0000    0    12.011   -1.720152   -6.323186   -1.182022
  18 C     6.0000    0    12.011    1.660213   -7.813078    2.600749
  19 H     1.0000    0     1.008    3.039725   -3.957986    2.495801
  20 C     6.0000    0    12.011   -1.712245   -8.809758   -0.317389
  21 H     1.0000    0     1.008   -3.053737   -5.710956   -2.636540
  22 C     6.0000    0    12.011   -0.032127   -9.553851    1.574244
  23 H     1.0000    0     1.008    2.987447   -8.393944    4.072743
  24 H     1.0000    0     1.008   -3.045496  -10.169624   -1.117293
  25 H     1.0000    0     1.008   -0.039728  -11.505435    2.252023
  26 C     6.0000    0    12.011   -0.000000    0.000000    0.444917
  27 H     1.0000    0     1.008    0.000002    0.000002    2.506047
  28 N     7.0000    0    14.007    0.013903    2.044253   -1.025161
  29 N     7.0000    0    14.007   -0.013910   -2.044251   -1.025161

--------------------------------
INTERNAL COORDINATES (ANGSTROEM)
--------------------------------
 C      0   0   0     0.000000000000     0.00000000     0.00000000
 C      1   0   0     1.358187978395     0.00000000     0.00000000
 H      1   2   0     1.088118064172   131.12487594     0.00000000
 H      2   1   3     1.088118060477   131.12487728     1.12203549
 C      1   2   3     2.511919101209   134.49564622   179.00152286
 C      5   1   2     1.393275418744   134.30820805   295.93355629
 C      5   1   2     1.393621554047   100.01103287   139.48629487
 C      6   5   1     1.393466217099   118.89810084   206.93899715
 H      6   5   1     1.093369178604   120.29219037    26.16705164
 C      7   5   1     1.393123083836   118.84308015   160.35440401
 H      7   5   1     1.093349252736   120.28733427   339.63443952
 C      8   6   5     1.394862435592   120.21600710     0.72661774
 H      8   6   5     1.092942703656   119.48905300   180.02622773
 H     10   7   5     1.093060763217   119.51796874   179.85409598
 H     12   8   6     1.093249719630   119.89760129   179.65792694
 C      2   1   3     2.511919812711   134.49562920   180.12357049
 C     16   2   1     1.393275653768   134.30828940   295.93384120
 C     16   2   1     1.393621053499   100.01096330   139.48657751
 C     17  16   2     1.393465843917   118.89813462   206.93905974
 H     17  16   2     1.093368901345   120.29220841    26.16697423
 C     18  16   2     1.393122761411   118.84311489   160.35443526
 H     18  16   2     1.093349660400   120.28731321   339.63441116
 C     19  17  16     1.394862998592   120.21594030     0.72655800
 H     19  17  16     1.092942923963   119.48906933   180.02626370
 H     21  18  16     1.093060272564   119.51802304   179.85415531
 H     23  19  17     1.093250325161   119.89755914   179.65790797
 C      1   2   3     2.208048655397    72.08812149   179.43899417
 H     27   1   2     1.090703000001   162.08806852   180.00009663
 N     27   1   2     1.332465002188    36.36782977   180.12580053
 N     27   1   2     1.332464212422    72.19151232     0.07826906

---------------------------
INTERNAL COORDINATES (A.U.)
---------------------------
 C      0   0   0     0.000000000000     0.00000000     0.00000000
 C      1   0   0     2.566603317550     0.00000000     0.00000000
 H      1   2   0     2.056245142657   131.12487594     0.00000000
 H      2   1   3     2.056245135676   131.12487728     1.12203549
 C      1   2   3     4.746839171850   134.49564622   179.00152286
 C      5   1   2     2.632908970550   134.30820805   295.93355629
 C      5   1   2     2.633563071479   100.01103287   139.48629487
 C      6   5   1     2.633269527189   118.89810084   206.93899715
 H      6   5   1     2.066168310832   120.29219037    26.16705164
 C      7   5   1     2.632621099295   118.84308015   160.35440401
 H      7   5   1     2.066130656399   120.28733427   339.63443952
 C      8   6   5     2.635907997763   120.21600710     0.72661774
 H      8   6   5     2.065362389977   119.48905300   180.02622773
 H     10   7   5     2.065585490215   119.51796874   179.85409598
 H     12   8   6     2.065942566086   119.89760129   179.65792694
 C      2   1   3     4.746840516395   134.49562920   180.12357049
 C     16   2   1     2.632909414681   134.30828940   295.93384120
 C     16   2   1     2.633562125581   100.01096330   139.48657751
 C     17  16   2     2.633268821977   118.89813462   206.93905974
 H     17  16   2     2.066167786889   120.29220841    26.16697423
 C     18  16   2     2.632620489999   118.84311489   160.35443526
 H     18  16   2     2.066131426772   120.28731321   339.63441116
 C     19  17  16     2.635909061680   120.21594030     0.72655800
 H     19  17  16     2.065362806297   119.48906933   180.02626370
 H     21  18  16     2.065584563015   119.51802304   179.85415531
 H     23  19  17     2.065943710375   119.89755914   179.65790797
 C      1   2   3     4.172607249074    72.08812149   179.43899417
 H     27   1   2     2.061129963448   162.08806852   180.00009663
 N     27   1   2     2.517993937171    36.36782977   180.12580053
 N     27   1   2     2.517992444729    72.19151232     0.07826906

---------------------
BASIS SET INFORMATION
---------------------
There are 3 groups of distinct atoms

 Group   1 Type C   : 7s4p1d contracted to 3s2p1d pattern {511/31/1}
 Group   2 Type H   : 4s1p contracted to 2s1p pattern {31/1}
 Group   3 Type N   : 7s4p1d contracted to 3s2p1d pattern {511/31/1}

Atom   0C    basis set group =>   1
Atom   1C    basis set group =>   1
Atom   2H    basis set group =>   2
Atom   3H    basis set group =>   2
Atom   4C    basis set group =>   1
Atom   5C    basis set group =>   1
Atom   6C    basis set group =>   1
Atom   7C    basis set group =>   1
Atom   8H    basis set group =>   2
Atom   9C    basis set group =>   1
Atom  10H    basis set group =>   2
Atom  11C    basis set group =>   1
Atom  12H    basis set group =>   2
Atom  13H    basis set group =>   2
Atom  14H    basis set group =>   2
Atom  15C    basis set group =>   1
Atom  16C    basis set group =>   1
Atom  17C    basis set group =>   1
Atom  18C    basis set group =>   1
Atom  19H    basis set group =>   2
Atom  20C    basis set group =>   1
Atom  21H    basis set group =>   2
Atom  22C    basis set group =>   1
Atom  23H    basis set group =>   2
Atom  24H    basis set group =>   2
Atom  25H    basis set group =>   2
Atom  26C    basis set group =>   1
Atom  27H    basis set group =>   2
Atom  28N    basis set group =>   3
Atom  29N    basis set group =>   3
---------------------------------
AUXILIARY/J BASIS SET INFORMATION
---------------------------------
There are 3 groups of distinct atoms

 Group   1 Type C   : 12s5p4d2f1g contracted to 6s4p3d1f1g pattern {711111/2111/211/2/1}
 Group   2 Type H   : 5s2p1d contracted to 3s1p1d pattern {311/2/1}
 Group   3 Type N   : 12s5p4d2f1g contracted to 6s4p3d1f1g pattern {711111/2111/211/2/1}

Atom   0C    basis set group =>   1
Atom   1C    basis set group =>   1
Atom   2H    basis set group =>   2
Atom   3H    basis set group =>   2
Atom   4C    basis set group =>   1
Atom   5C    basis set group =>   1
Atom   6C    basis set group =>   1
Atom   7C    basis set group =>   1
Atom   8H    basis set group =>   2
Atom   9C    basis set group =>   1
Atom  10H    basis set group =>   2
Atom  11C    basis set group =>   1
Atom  12H    basis set group =>   2
Atom  13H    basis set group =>   2
Atom  14H    basis set group =>   2
Atom  15C    basis set group =>   1
Atom  16C    basis set group =>   1
Atom  17C    basis set group =>   1
Atom  18C    basis set group =>   1
Atom  19H    basis set group =>   2
Atom  20C    basis set group =>   1
Atom  21H    basis set group =>   2
Atom  22C    basis set group =>   1
Atom  23H    basis set group =>   2
Atom  24H    basis set group =>   2
Atom  25H    basis set group =>   2
Atom  26C    basis set group =>   1
Atom  27H    basis set group =>   2
Atom  28N    basis set group =>   3
Atom  29N    basis set group =>   3
------------------------------------------------------------------------------
                           ORCA GTO INTEGRAL CALCULATION
                           -- RI-GTO INTEGRALS CHOSEN --
------------------------------------------------------------------------------
------------------------------------------------------------------------------
                   ___                                                        
                  /   \      - P O W E R E D   B Y -                         
                 /     \                                                     
                 |  |  |   _    _      __       _____    __    __             
                 |  |  |  | |  | |    /  \     |  _  \  |  |  /  |          
                  \  \/   | |  | |   /    \    | | | |  |  | /  /          
                 / \  \   | |__| |  /  /\  \   | |_| |  |  |/  /          
                |  |  |   |  __  | /  /__\  \  |    /   |      \           
                |  |  |   | |  | | |   __   |  |    \   |  |\   \          
                \     /   | |  | | |  |  |  |  | |\  \  |  | \   \       
                 \___/    |_|  |_| |__|  |__|  |_| \__\ |__|  \__/        
                                                                              
                      - O R C A' S   B I G   F R I E N D -                    
                                      &                                       
                       - I N T E G R A L  F E E D E R -                       
                                                                              
 v1 FN, 2020, v2 2021                                                         
------------------------------------------------------------------------------


Reading SHARK input file 7+.SHARKINP.tmp ... ok
----------------------
SHARK INTEGRAL PACKAGE
----------------------

Number of atoms                             ...     30
Number of basis functions                   ...    303
Number of shells                            ...    141
Maximum angular momentum                    ...      2
Integral batch strategy                     ... SHARK/LIBINT Hybrid
RI-J (if used) integral strategy            ... SPLIT-RIJ (Revised 2003 algorithm where possible)
Printlevel                                  ...      1
Contraction scheme used                     ... SEGMENTED contraction
Coulomb Range Separation                    ... NOT USED
Exchange Range Separation                   ... Long Range
   Mu parameter                             ...  0.300000
   Scaling (regular/separated)              ...  0.157706  0.842294
Finite Nucleus Model                        ... NOT USED
Auxiliary Coulomb fitting basis             ... AVAILABLE
   # of basis functions in Aux-J            ...    976
   # of shells in Aux-J                     ...    320
   Maximum angular momentum in Aux-J        ...      4
Auxiliary J/K fitting basis                 ... NOT available
Auxiliary Correlation fitting basis         ... NOT available
Auxiliary 'external' fitting basis          ... NOT available
Integral threshold                          ...     2.500000e-11
Primitive cut-off                           ...     2.500000e-12
Primitive pair pre-selection threshold      ...     2.500000e-12

Calculating pre-screening integrals         ... done (  0.1 sec) Dimension = 141
Organizing shell pair data                  ... done (  0.1 sec)
Shell pair information
Total number of shell pairs                 ...     10011
Shell pairs after pre-screening             ...      7568
Total number of primitive shell pairs       ...     36575
Primitive shell pairs kept                  ...     18330
          la=0 lb=0:   2312 shell pairs
          la=1 lb=0:   2789 shell pairs
          la=1 lb=1:    878 shell pairs
          la=2 lb=0:    919 shell pairs
          la=2 lb=1:    569 shell pairs
          la=2 lb=2:    101 shell pairs

Calculating one electron integrals          ... done (  0.1 sec)
Calculating RI/J V-Matrix + Cholesky decomp.... done (  0.1 sec)
Calculating Nuclear repulsion               ... done (  0.0 sec) ENN=   1056.673439275032 Eh

SHARK setup successfully completed in   0.4 seconds

Maximum memory used throughout the entire GTOINT-calculation: 51.7 MB
-------------------------------------------------------------------------------
                                 ORCA SCF
-------------------------------------------------------------------------------

------------
SCF SETTINGS
------------
Hamiltonian:
 Density Functional     Method          .... DFT(GTOs)
 Exchange Functional    Exchange        .... WB97X
 Correlation Functional Correlation     .... WB97X
 Gradients option       PostSCFGGA      .... off
 Hybrid DFT is turned on
   Fraction HF Exchange ScalHFX         ....  0.157706
   Scaling of DF-GGA-X  ScalDFX         ....  0.000000
   Scaling of DF-GGA-C  ScalDFC         ....  1.000000
   Scaling of DF-LDA-C  ScalLDAC        ....  1.000000
   Perturbative correction              ....  0.000000
   Density functional embedding theory  .... OFF
 Long-range corrected/Screened/Range-Separated Hybrid DFT is turned on
   Amount of maximum screened exact exchange              ....  0.842294
   Range separation parameter mu (erf(mu*r12)/r12)        ....  0.300000
 RI-approximation to the Coulomb term is turned on
   Number of AuxJ basis functions       .... 976
   RIJ-COSX (HFX calculated with COS-X)).... on


General Settings:
 Integral files         IntName         .... 7+
 Hartree-Fock type      HFTyp           .... RHF
 Total Charge           Charge          ....    1
 Multiplicity           Mult            ....    1
 Number of Electrons    NEL             ....  116
 Basis Dimension        Dim             ....  303
 Nuclear Repulsion      ENuc            ....   1056.6734392750 Eh

Convergence Acceleration:
 DIIS                   CNVDIIS         .... on
   Start iteration      DIISMaxIt       ....     0
   Startup error        DIISStart       ....  0.200000
   # of expansion vecs  DIISMaxEq       ....     5
   Bias factor          DIISBfac        ....   1.050
   Max. coefficient     DIISMaxC        ....  10.000
 Trust-Rad. Augm. Hess. CNVTRAH         .... auto
   Auto Start mean grad. ratio tolernc. ....  1.125000
   Auto Start start iteration           ....    20
   Auto Start num. interpolation iter.  ....    10
   Max. Number of Micro iterations      ....    16
   Max. Number of Macro iterations      .... Maxiter - #DIIS iter
   Number of Davidson start vectors     ....     2
   Converg. threshold I  (grad. norm)   ....   1.000e-05
   Converg. threshold II (energy diff.) ....   1.000e-08
   Grad. Scal. Fac. for Micro threshold ....   0.100
   Minimum threshold for Micro iter.    ....   0.010
   NR start threshold (gradient norm)   ....   0.001
   Initial trust radius                 ....   0.400
   Minimum AH scaling param. (alpha)    ....   1.000
   Maximum AH scaling param. (alpha)    .... 1000.000
   Orbital update algorithm             .... Taylor
   White noise on init. David. guess    .... on
   Maximum white noise                  ....   0.010
   Quad. conv. algorithm                .... NR
 SOSCF                  CNVSOSCF        .... on
   Start iteration      SOSCFMaxIt      ....   150
   Startup grad/error   SOSCFStart      ....  0.001000
 Level Shifting         CNVShift        .... on
   Level shift para.    LevelShift      ....    0.2500
   Turn off err/grad.   ShiftErr        ....    0.0000
 Zerner damping         CNVZerner       .... off
 Static damping         CNVDamp         .... on
   Fraction old density DampFac         ....    0.8500
   Max. Damping (<1)    DampMax         ....    0.9800
   Min. Damping (>=0)   DampMin         ....    0.0000
   Turn off err/grad.   DampErr         ....    0.0300
 Fernandez-Rico         CNVRico         .... off

SCF Procedure:
 Maximum # iterations   MaxIter         ....   125
 SCF integral mode      SCFMode         .... Direct
   Integral package                     .... SHARK and LIBINT hybrid scheme
 Reset frequency        DirectResetFreq ....    20
 Integral Threshold     Thresh          ....  2.500e-11 Eh
 Primitive CutOff       TCut            ....  2.500e-12 Eh

Convergence Tolerance:
 Convergence Check Mode ConvCheckMode   .... Total+1el-Energy
 Convergence forced     ConvForced      .... 0
 Energy Change          TolE            ....  1.000e-08 Eh
 1-El. energy change                    ....  1.000e-05 Eh
 Orbital Gradient       TolG            ....  1.000e-05
 Orbital Rotation angle TolX            ....  1.000e-05
 DIIS Error             TolErr          ....  5.000e-07


Diagonalization of the overlap matrix:
Smallest eigenvalue                        ... 2.804e-04
Time for diagonalization                   ...    0.017 sec
Threshold for overlap eigenvalues          ... 1.000e-08
Number of eigenvalues below threshold      ... 0
Time for construction of square roots      ...    0.006 sec
Total time needed                          ...    0.024 sec

Time for model grid setup =    0.702 sec

------------------------------
INITIAL GUESS: MODEL POTENTIAL
------------------------------
Loading Hartree-Fock densities                     ... done
Calculating cut-offs                               ... done
Initializing the effective Hamiltonian             ... done
Setting up the integral package (SHARK)            ... done
Starting the Coulomb interaction                   ... done (   0.7 sec)
Reading the grid                                   ... done
Mapping shells                                     ... done
Starting the XC term evaluation                    ... done (   0.7 sec)
  promolecular density results
     # of electrons  =    116.991944706
     EX              =    -93.695288223
     EC              =     -3.911524183
     EX+EC           =    -97.606812406
Transforming the Hamiltonian                       ... done (   0.0 sec)
Diagonalizing the Hamiltonian                      ... done (   0.0 sec)
Back transforming the eigenvectors                 ... done (   0.0 sec)
Now organizing SCF variables                       ... done
                      ------------------
                      INITIAL GUESS DONE (   2.2 sec)
                      ------------------
-------------------
DFT GRID GENERATION
-------------------

General Integration Accuracy     IntAcc      ... 4.388
Radial Grid Type                 RadialGrid  ... OptM3 with GC (2021)
Angular Grid (max. ang.)         AngularGrid ... 4 (Lebedev-302)
Angular grid pruning method      GridPruning ... 4 (adaptive)
Weight generation scheme         WeightScheme... Becke
Basis function cutoff            BFCut       ... 1.0000e-11
Integration weight cutoff        WCut        ... 1.0000e-14
Angular grids for H and He will be reduced by one unit
Partially contracted basis set               ... off
Rotationally invariant grid construction     ... off

Total number of grid points                  ...   143467
Total number of batches                      ...     2254
Average number of points per batch           ...       63
Average number of grid points per atom       ...     4782
Time for grid setup =    2.474 sec

--------------------
COSX GRID GENERATION
--------------------

GRIDX 1
-------
General Integration Accuracy     IntAcc      ... 3.816
Radial Grid Type                 RadialGrid  ... OptM3 with GC (2021)
Angular Grid (max. ang.)         AngularGrid ... 1 (Lebedev-50)
Angular grid pruning method      GridPruning ... 4 (adaptive)
Weight generation scheme         WeightScheme... Becke
Basis function cutoff            BFCut       ... 1.0000e-11
Integration weight cutoff        WCut        ... 1.0000e-14
Angular grids for H and He will be reduced by one unit
Partially contracted basis set               ... on
Rotationally invariant grid construction     ... off

Total number of grid points                  ...    18290
Total number of batches                      ...      293
Average number of points per batch           ...       62
Average number of grid points per atom       ...      610
UseSFitting                                  ... on

GRIDX 2
-------
General Integration Accuracy     IntAcc      ... 4.020
Radial Grid Type                 RadialGrid  ... OptM3 with GC (2021)
Angular Grid (max. ang.)         AngularGrid ... 2 (Lebedev-110)
Angular grid pruning method      GridPruning ... 4 (adaptive)
Weight generation scheme         WeightScheme... Becke
Basis function cutoff            BFCut       ... 1.0000e-11
Integration weight cutoff        WCut        ... 1.0000e-14
Angular grids for H and He will be reduced by one unit
Partially contracted basis set               ... on
Rotationally invariant grid construction     ... off

Total number of grid points                  ...    39925
Total number of batches                      ...      638
Average number of points per batch           ...       62
Average number of grid points per atom       ...     1331
UseSFitting                                  ... on

GRIDX 3
-------
General Integration Accuracy     IntAcc      ... 4.338
Radial Grid Type                 RadialGrid  ... OptM3 with GC (2021)
Angular Grid (max. ang.)         AngularGrid ... 3 (Lebedev-194)
Angular grid pruning method      GridPruning ... 4 (adaptive)
Weight generation scheme         WeightScheme... Becke
Basis function cutoff            BFCut       ... 1.0000e-11
Integration weight cutoff        WCut        ... 1.0000e-14
Angular grids for H and He will be reduced by one unit
Partially contracted basis set               ... on
Rotationally invariant grid construction     ... off

Total number of grid points                  ...    87364
Total number of batches                      ...     1377
Average number of points per batch           ...       63
Average number of grid points per atom       ...     2912
UseSFitting                                  ... on

Time for X-Grid setup             =    3.364 sec

--------------
SCF ITERATIONS
--------------
ITER       Energy         Delta-E        Max-DP      RMS-DP      [F,P]     Damp
               ***  Starting incremental Fock matrix formation  ***
  0   -687.7909515232   0.000000000000 0.02138857  0.00078166  0.1020130 0.8500
  1   -687.8418544247  -0.050902901482 0.01966853  0.00075048  0.0798167 0.8500
                               ***Turning on DIIS***
  2   -687.8806535610  -0.038799136315 0.01541362  0.00062352  0.0596034 0.8500
  3   -687.9093371042  -0.028683543150 0.01236573  0.00047380  0.0469264 0.8500
  4   -687.9314807479  -0.022143643756 0.01018473  0.00037590  0.0381068 0.8500
  5   -687.9489609532  -0.017480205234 0.00849314  0.00031132  0.0316812 0.8500
  6   -687.9632041728  -0.014243219687 0.04834592  0.00175448  0.0266644 0.0000
  7   -688.0384785152  -0.075274342394 0.00205948  0.00005854  0.0011455 0.0000
                      *** Initiating the SOSCF procedure ***
                           *** Shutting down DIIS ***
                      *** Re-Reading the Fockian *** 
                      *** Removing any level shift *** 
ITER      Energy       Delta-E        Grad      Rot      Max-DP    RMS-DP
  8   -688.03854022  -0.0000617057  0.000515  0.000515  0.000950  0.000028
               *** Restarting incremental Fock matrix formation ***
  9   -688.03859992  -0.0000596964  0.000502  0.001177  0.000567  0.000020
 10   -688.03860594  -0.0000060266  0.000166  0.000754  0.000605  0.000020
 11   -688.03860748  -0.0000015399  0.000074  0.000122  0.000165  0.000007
 12   -688.03860783  -0.0000003496  0.000018  0.000044  0.000044  0.000001
 13   -688.03860785  -0.0000000198  0.000006  0.000029  0.000026  0.000001
 14   -688.03860786  -0.0000000108  0.000003  0.000004  0.000005  0.000000
                  ***Gradient check signals convergence***
              ***Rediagonalizing the Fockian in SOSCF/NRSCF***

               *****************************************************
               *                     SUCCESS                       *
               *           SCF CONVERGED AFTER  15 CYCLES          *
               *****************************************************

Old exchange energy                            =    -30.275329449 Eh
New exchange energy                            =    -30.275341004 Eh
Exchange energy change after final integration =     -0.000011555 Eh
Total energy after final integration           =   -688.038619402 Eh
Final COS-X integration done in                =    93.638 sec

----------------
TOTAL SCF ENERGY
----------------

Total Energy       :         -688.03861940 Eh          -18722.48267 eV

Components:
Nuclear Repulsion  :         1056.67343928 Eh           28753.54608 eV
Electronic Energy  :        -1744.71205868 Eh          -47476.02875 eV
One Electron Energy:        -3007.51973034 Eh          -81838.77247 eV
Two Electron Energy:         1262.80767167 Eh           34362.74371 eV
Max COSX asymmetry :            0.00000147 Eh               0.00004 eV

Virial components:
Potential Energy   :        -1368.25472454 Eh          -37232.10390 eV
Kinetic Energy     :          680.21610514 Eh           18509.62123 eV
Virial Ratio       :            2.01150004


DFT components:
N(Alpha)           :       58.000060912637 electrons
N(Beta)            :       58.000060912637 electrons
N(Total)           :      116.000121825273 electrons
E(XC)              :      -69.192078088862 Eh       
DFET-embed. en.    :        0.000000000000 Eh       

---------------
SCF CONVERGENCE
---------------

  Last Energy change         ...    1.6221e-08  Tolerance :   1.0000e-08
  Last MAX-Density change    ...    2.8898e-15  Tolerance :   1.0000e-07
  Last RMS-Density change    ...    3.4985e-17  Tolerance :   5.0000e-09
  Last Orbital Gradient      ...    4.1473e-07  Tolerance :   1.0000e-05
  Last Orbital Rotation      ...    9.7160e-07  Tolerance :   1.0000e-05

             **** THE GBW FILE WAS UPDATED (7+.gbw) ****
             **** DENSITY 7+.scfp WAS UPDATED ****
             **** ENERGY FILE WAS UPDATED (7+.en.tmp) ****
             **** THE GBW FILE WAS UPDATED (7+.gbw) ****
             **** DENSITY 7+.scfp WAS UPDATED ****
----------------
ORBITAL ENERGIES
----------------

  NO   OCC          E(Eh)            E(eV) 
   0   2.0000     -14.663587      -399.0165 
   1   2.0000     -14.663578      -399.0162 
   2   2.0000     -10.534847      -286.6678 
   3   2.0000     -10.482657      -285.2476 
   4   2.0000     -10.482070      -285.2316 
   5   2.0000     -10.466007      -284.7945 
   6   2.0000     -10.465959      -284.7932 
   7   2.0000     -10.419501      -283.5290 
   8   2.0000     -10.419500      -283.5290 
   9   2.0000     -10.418404      -283.4992 
  10   2.0000     -10.418400      -283.4991 
  11   2.0000     -10.407367      -283.1988 
  12   2.0000     -10.407365      -283.1988 
  13   2.0000     -10.407063      -283.1906 
  14   2.0000     -10.407063      -283.1906 
  15   2.0000     -10.403827      -283.1025 
  16   2.0000     -10.403827      -283.1025 
  17   2.0000      -1.366611       -37.1874 
  18   2.0000      -1.248648       -33.9774 
  19   2.0000      -1.135025       -30.8856 
  20   2.0000      -1.114152       -30.3176 
  21   2.0000      -1.077544       -29.3215 
  22   2.0000      -1.040546       -28.3147 
  23   2.0000      -1.010033       -27.4844 
  24   2.0000      -1.006820       -27.3970 
  25   2.0000      -1.000864       -27.2349 
  26   2.0000      -0.931812       -25.3559 
  27   2.0000      -0.929261       -25.2865 
  28   2.0000      -0.879787       -23.9402 
  29   2.0000      -0.866931       -23.5904 
  30   2.0000      -0.858301       -23.3556 
  31   2.0000      -0.854013       -23.2389 
  32   2.0000      -0.817769       -22.2526 
  33   2.0000      -0.788234       -21.4489 
  34   2.0000      -0.770491       -20.9661 
  35   2.0000      -0.750582       -20.4244 
  36   2.0000      -0.738860       -20.1054 
  37   2.0000      -0.736553       -20.0426 
  38   2.0000      -0.721266       -19.6266 
  39   2.0000      -0.717940       -19.5361 
  40   2.0000      -0.710328       -19.3290 
  41   2.0000      -0.690220       -18.7819 
  42   2.0000      -0.675134       -18.3713 
  43   2.0000      -0.675010       -18.3680 
  44   2.0000      -0.666681       -18.1413 
  45   2.0000      -0.665542       -18.1103 
  46   2.0000      -0.643274       -17.5044 
  47   2.0000      -0.622403       -16.9364 
  48   2.0000      -0.597040       -16.2463 
  49   2.0000      -0.594748       -16.1839 
  50   2.0000      -0.592799       -16.1309 
  51   2.0000      -0.582848       -15.8601 
  52   2.0000      -0.574052       -15.6207 
  53   2.0000      -0.526019       -14.3137 
  54   2.0000      -0.485116       -13.2007 
  55   2.0000      -0.483317       -13.1517 
  56   2.0000      -0.483208       -13.1488 
  57   2.0000      -0.474726       -12.9180 
  58   0.0000      -0.107947        -2.9374 
  59   0.0000      -0.073733        -2.0064 
  60   0.0000      -0.062858        -1.7104 
  61   0.0000      -0.062313        -1.6956 
  62   0.0000      -0.043958        -1.1962 
  63   0.0000      -0.040785        -1.1098 
  64   0.0000       0.024615         0.6698 
  65   0.0000       0.034706         0.9444 
  66   0.0000       0.038418         1.0454 
  67   0.0000       0.044299         1.2054 
  68   0.0000       0.061844         1.6829 
  69   0.0000       0.080621         2.1938 
  70   0.0000       0.086526         2.3545 
  71   0.0000       0.091239         2.4827 
  72   0.0000       0.094253         2.5648 
  73   0.0000       0.098065         2.6685 
  74   0.0000       0.107948         2.9374 
  75   0.0000       0.115151         3.1334 
  76   0.0000       0.122591         3.3359 
  77   0.0000       0.126641         3.4461 
  78   0.0000       0.132503         3.6056 
  79   0.0000       0.143968         3.9176 
  80   0.0000       0.149127         4.0580 
  81   0.0000       0.164225         4.4688 
  82   0.0000       0.187516         5.1026 
  83   0.0000       0.194219         5.2850 
  84   0.0000       0.227761         6.1977 
  85   0.0000       0.233920         6.3653 
  86   0.0000       0.252132         6.8609 
  87   0.0000       0.255080         6.9411 
  88   0.0000       0.260277         7.0825 
  89   0.0000       0.267876         7.2893 
  90   0.0000       0.270134         7.3507 
  91   0.0000       0.283461         7.7134 
  92   0.0000       0.286837         7.8052 
  93   0.0000       0.304145         8.2762 
  94   0.0000       0.314319         8.5530 
  95   0.0000       0.319008         8.6806 
  96   0.0000       0.326423         8.8824 
  97   0.0000       0.348045         9.4708 
  98   0.0000       0.352943         9.6041 
  99   0.0000       0.372449        10.1349 
 100   0.0000       0.382923        10.4199 
 101   0.0000       0.383919        10.4470 
 102   0.0000       0.385921        10.5015 
 103   0.0000       0.405682        11.0392 
 104   0.0000       0.406239        11.0543 
 105   0.0000       0.417012        11.3475 
 106   0.0000       0.431280        11.7357 
 107   0.0000       0.432759        11.7760 
 108   0.0000       0.453870        12.3504 
 109   0.0000       0.460055        12.5187 
 110   0.0000       0.461132        12.5480 
 111   0.0000       0.464429        12.6378 
 112   0.0000       0.472638        12.8611 
 113   0.0000       0.474435        12.9100 
 114   0.0000       0.476542        12.9674 
 115   0.0000       0.490346        13.3430 
 116   0.0000       0.492218        13.3939 
 117   0.0000       0.512152        13.9364 
 118   0.0000       0.525483        14.2991 
 119   0.0000       0.527153        14.3446 
 120   0.0000       0.537123        14.6159 
 121   0.0000       0.548269        14.9192 
 122   0.0000       0.551343        15.0028 
 123   0.0000       0.572365        15.5748 
 124   0.0000       0.573366        15.6021 
 125   0.0000       0.593242        16.1429 
 126   0.0000       0.596495        16.2314 
 127   0.0000       0.601591        16.3701 
 128   0.0000       0.616362        16.7721 
 129   0.0000       0.619729        16.8637 
 130   0.0000       0.625229        17.0133 
 131   0.0000       0.625350        17.0166 
 132   0.0000       0.638540        17.3756 
 133   0.0000       0.639581        17.4039 
 134   0.0000       0.644160        17.5285 
 135   0.0000       0.656037        17.8517 
 136   0.0000       0.657546        17.8927 
 137   0.0000       0.661535        18.0013 
 138   0.0000       0.670192        18.2369 
 139   0.0000       0.670894        18.2560 
 140   0.0000       0.689072        18.7506 
 141   0.0000       0.696719        18.9587 
 142   0.0000       0.711138        19.3510 
 143   0.0000       0.712780        19.3957 
 144   0.0000       0.723197        19.6792 
 145   0.0000       0.723988        19.7007 
 146   0.0000       0.739368        20.1192 
 147   0.0000       0.744610        20.2619 
 148   0.0000       0.748088        20.3565 
 149   0.0000       0.766521        20.8581 
 150   0.0000       0.781511        21.2660 
 151   0.0000       0.789154        21.4740 
 152   0.0000       0.790271        21.5044 
 153   0.0000       0.806287        21.9402 
 154   0.0000       0.824863        22.4457 
 155   0.0000       0.828395        22.5418 
 156   0.0000       0.847816        23.0702 
 157   0.0000       0.857978        23.3468 
 158   0.0000       0.862193        23.4615 
 159   0.0000       0.899752        24.4835 
 160   0.0000       0.909671        24.7534 
 161   0.0000       0.909794        24.7568 
 162   0.0000       0.980893        26.6914 
 163   0.0000       1.005136        27.3511 
 164   0.0000       1.035845        28.1868 
 165   0.0000       1.039803        28.2945 
 166   0.0000       1.048830        28.5401 
 167   0.0000       1.111565        30.2472 
 168   0.0000       1.119673        30.4679 
 169   0.0000       1.138472        30.9794 
 170   0.0000       1.145729        31.1769 
 171   0.0000       1.157789        31.5051 
 172   0.0000       1.173962        31.9451 
 173   0.0000       1.179160        32.0866 
 174   0.0000       1.179318        32.0909 
 175   0.0000       1.203566        32.7507 
 176   0.0000       1.206596        32.8332 
 177   0.0000       1.212673        32.9985 
 178   0.0000       1.215511        33.0757 
 179   0.0000       1.229445        33.4549 
 180   0.0000       1.246320        33.9141 
 181   0.0000       1.246595        33.9216 
 182   0.0000       1.251895        34.0658 
 183   0.0000       1.264709        34.4145 
 184   0.0000       1.266495        34.4631 
 185   0.0000       1.279014        34.8037 
 186   0.0000       1.281182        34.8627 
 187   0.0000       1.292372        35.1672 
 188   0.0000       1.340096        36.4659 
 189   0.0000       1.449299        39.4374 
 190   0.0000       1.483549        40.3694 
 191   0.0000       1.531039        41.6617 
 192   0.0000       1.535093        41.7720 
 193   0.0000       1.555860        42.3371 
 194   0.0000       1.584512        43.1168 
 195   0.0000       1.597677        43.4750 
 196   0.0000       1.610287        43.8181 
 197   0.0000       1.617993        44.0278 
 198   0.0000       1.646244        44.7966 
 199   0.0000       1.647763        44.8379 
 200   0.0000       1.653298        44.9885 
 201   0.0000       1.681180        45.7472 
 202   0.0000       1.686236        45.8848 
 203   0.0000       1.694123        46.0994 
 204   0.0000       1.699302        46.2404 
 205   0.0000       1.721270        46.8381 
 206   0.0000       1.724715        46.9319 
 207   0.0000       1.725219        46.9456 
 208   0.0000       1.729208        47.0542 
 209   0.0000       1.739296        47.3287 
 210   0.0000       1.743884        47.4535 
 211   0.0000       1.753552        47.7166 
 212   0.0000       1.754878        47.7527 
 213   0.0000       1.757116        47.8135 
 214   0.0000       1.760567        47.9075 
 215   0.0000       1.778690        48.4006 
 216   0.0000       1.781802        48.4853 
 217   0.0000       1.794082        48.8194 
 218   0.0000       1.794834        48.8399 
 219   0.0000       1.811055        49.2813 
 220   0.0000       1.811945        49.3055 
 221   0.0000       1.827717        49.7347 
 222   0.0000       1.857625        50.5486 
 223   0.0000       1.886665        51.3388 
 224   0.0000       1.887746        51.3682 
 225   0.0000       1.917846        52.1872 
 226   0.0000       1.925716        52.4014 
 227   0.0000       1.936104        52.6841 
 228   0.0000       1.940245        52.7967 
 229   0.0000       1.943101        52.8745 
 230   0.0000       1.950230        53.0685 
 231   0.0000       1.955916        53.2232 
 232   0.0000       1.956009        53.2257 
 233   0.0000       1.967280        53.5324 
 234   0.0000       1.968503        53.5657 
 235   0.0000       1.974594        53.7314 
 236   0.0000       2.014552        54.8187 
 237   0.0000       2.047946        55.7275 
 238   0.0000       2.061593        56.0988 
 239   0.0000       2.082524        56.6684 
 240   0.0000       2.083383        56.6917 
 241   0.0000       2.119714        57.6804 
 242   0.0000       2.123042        57.7709 
 243   0.0000       2.124117        57.8002 
 244   0.0000       2.127591        57.8947 
 245   0.0000       2.147675        58.4412 
 246   0.0000       2.148414        58.4613 
 247   0.0000       2.216551        60.3154 
 248   0.0000       2.218303        60.3631 
 249   0.0000       2.243241        61.0417 
 250   0.0000       2.245324        61.0984 
 251   0.0000       2.263347        61.5888 
 252   0.0000       2.265410        61.6449 
 253   0.0000       2.274123        61.8820 
 254   0.0000       2.275102        61.9087 
 255   0.0000       2.293351        62.4052 
 256   0.0000       2.298454        62.5441 
 257   0.0000       2.309247        62.8378 
 258   0.0000       2.325136        63.2702 
 259   0.0000       2.326650        63.3114 
 260   0.0000       2.330348        63.4120 
 261   0.0000       2.336722        63.5855 
 262   0.0000       2.390758        65.0558 
 263   0.0000       2.405829        65.4659 
 264   0.0000       2.485364        67.6302 
 265   0.0000       2.486892        67.6718 
 266   0.0000       2.535202        68.9864 
 267   0.0000       2.539544        69.1045 
 268   0.0000       2.553254        69.4776 
 269   0.0000       2.573129        70.0184 
 270   0.0000       2.599282        70.7301 
 271   0.0000       2.604212        70.8642 
 272   0.0000       2.610204        71.0273 
 273   0.0000       2.615821        71.1801 
 274   0.0000       2.629103        71.5415 
 275   0.0000       2.675373        72.8006 
 276   0.0000       2.685699        73.0816 
 277   0.0000       2.700213        73.4765 
 278   0.0000       2.708010        73.6887 
 279   0.0000       2.709884        73.7397 
 280   0.0000       2.715760        73.8996 
 281   0.0000       2.716799        73.9279 
 282   0.0000       2.781062        75.6765 
 283   0.0000       2.810585        76.4799 
 284   0.0000       2.831315        77.0440 
 285   0.0000       2.839555        77.2682 
 286   0.0000       2.849132        77.5288 
 287   0.0000       2.849952        77.5511 
 288   0.0000       2.859870        77.8210 
 289   0.0000       2.860904        77.8491 
 290   0.0000       2.878004        78.3145 
 291   0.0000       3.005314        81.7787 
 292   0.0000       3.038427        82.6798 
 293   0.0000       3.044008        82.8317 
 294   0.0000       3.092322        84.1464 
 295   0.0000       3.120545        84.9144 
 296   0.0000       3.167378        86.1887 
 297   0.0000       3.257351        88.6370 
 298   0.0000       3.368650        91.6656 
 299   0.0000       3.399037        92.4925 
 300   0.0000       3.429739        93.3279 
 301   0.0000       3.640334        99.0585 
 302   0.0000       3.658870        99.5629 

                    ********************************
                    * MULLIKEN POPULATION ANALYSIS *
                    ********************************

-----------------------
MULLIKEN ATOMIC CHARGES
-----------------------
   0 C :    0.084233
   1 C :    0.084232
   2 H :    0.105685
   3 H :    0.105685
   4 C :    0.101526
   5 C :   -0.026917
   6 C :   -0.019117
   7 C :   -0.005916
   8 H :    0.030411
   9 C :   -0.007258
  10 H :    0.034410
  11 C :    0.019291
  12 H :    0.057538
  13 H :    0.058619
  14 H :    0.060060
  15 C :    0.101527
  16 C :   -0.026919
  17 C :   -0.019119
  18 C :   -0.005914
  19 H :    0.030411
  20 C :   -0.007256
  21 H :    0.034410
  22 C :    0.019290
  23 H :    0.057538
  24 H :    0.058619
  25 H :    0.060060
  26 C :    0.222921
  27 H :    0.125422
  28 N :   -0.166736
  29 N :   -0.166735
Sum of atomic charges:    1.0000000

--------------------------------
MULLIKEN REDUCED ORBITAL CHARGES
--------------------------------
  0 C s       :     3.137197  s :     3.137197
      pz      :     0.786911  p :     2.731589
      px      :     1.025150
      py      :     0.919528
      dz2     :     0.014802  d :     0.046981
      dxz     :     0.007366
      dyz     :     0.012283
      dx2y2   :     0.004967
      dxy     :     0.007562
  1 C s       :     3.137198  s :     3.137198
      pz      :     0.786911  p :     2.731589
      px      :     1.025150
      py      :     0.919527
      dz2     :     0.014802  d :     0.046981
      dxz     :     0.007366
      dyz     :     0.012283
      dx2y2   :     0.004967
      dxy     :     0.007562
  2 H s       :     0.869957  s :     0.869957
      pz      :     0.010896  p :     0.024358
      px      :     0.004661
      py      :     0.008802
  3 H s       :     0.869957  s :     0.869957
      pz      :     0.010896  p :     0.024358
      px      :     0.004661
      py      :     0.008802
  4 C s       :     2.970292  s :     2.970292
      pz      :     1.030515  p :     2.873645
      px      :     1.030842
      py      :     0.812287
      dz2     :     0.009532  d :     0.054538
      dxz     :     0.006597
      dyz     :     0.011172
      dx2y2   :     0.015868
      dxy     :     0.011368
  5 C s       :     3.208062  s :     3.208062
      pz      :     0.945865  p :     2.785013
      px      :     0.921083
      py      :     0.918065
      dz2     :     0.007026  d :     0.033842
      dxz     :     0.004921
      dyz     :     0.007071
      dx2y2   :     0.006172
      dxy     :     0.008652
  6 C s       :     3.208932  s :     3.208932
      pz      :     0.916638  p :     2.776424
      px      :     0.918056
      py      :     0.941730
      dz2     :     0.004448  d :     0.033761
      dxz     :     0.004150
      dyz     :     0.008658
      dx2y2   :     0.007174
      dxy     :     0.009330
  7 C s       :     3.154602  s :     3.154602
      pz      :     0.935093  p :     2.816744
      px      :     0.939386
      py      :     0.942266
      dz2     :     0.004855  d :     0.034569
      dxz     :     0.004846
      dyz     :     0.007998
      dx2y2   :     0.008673
      dxy     :     0.008198
  8 H s       :     0.946150  s :     0.946150
      pz      :     0.005509  p :     0.023439
      px      :     0.009567
      py      :     0.008363
  9 C s       :     3.155330  s :     3.155330
      pz      :     0.947984  p :     2.817355
      px      :     0.939255
      py      :     0.930115
      dz2     :     0.006166  d :     0.034573
      dxz     :     0.004797
      dyz     :     0.008161
      dx2y2   :     0.007220
      dxy     :     0.008228
 10 H s       :     0.942117  s :     0.942117
      pz      :     0.010153  p :     0.023473
      px      :     0.009371
      py      :     0.003948
 11 C s       :     3.152033  s :     3.152033
      pz      :     0.940394  p :     2.794167
      px      :     0.947063
      py      :     0.906710
      dz2     :     0.006390  d :     0.034509
      dxz     :     0.005767
      dyz     :     0.007076
      dx2y2   :     0.008272
      dxy     :     0.007005
 12 H s       :     0.919188  s :     0.919188
      pz      :     0.010247  p :     0.023274
      px      :     0.008912
      py      :     0.004115
 13 H s       :     0.918132  s :     0.918132
      pz      :     0.005375  p :     0.023249
      px      :     0.008935
      py      :     0.008939
 14 H s       :     0.916855  s :     0.916855
      pz      :     0.004782  p :     0.023085
      px      :     0.003279
      py      :     0.015024
 15 C s       :     2.970290  s :     2.970290
      pz      :     1.030515  p :     2.873645
      px      :     1.030844
      py      :     0.812286
      dz2     :     0.009532  d :     0.054538
      dxz     :     0.006597
      dyz     :     0.011172
      dx2y2   :     0.015868
      dxy     :     0.011368
 16 C s       :     3.208066  s :     3.208066
      pz      :     0.945864  p :     2.785011
      px      :     0.921083
      py      :     0.918064
      dz2     :     0.007025  d :     0.033842
      dxz     :     0.004921
      dyz     :     0.007071
      dx2y2   :     0.006172
      dxy     :     0.008652
 17 C s       :     3.208934  s :     3.208934
      pz      :     0.916638  p :     2.776424
      px      :     0.918057
      py      :     0.941729
      dz2     :     0.004448  d :     0.033761
      dxz     :     0.004150
      dyz     :     0.008658
      dx2y2   :     0.007174
      dxy     :     0.009330
 18 C s       :     3.154601  s :     3.154601
      pz      :     0.935092  p :     2.816744
      px      :     0.939386
      py      :     0.942266
      dz2     :     0.004855  d :     0.034569
      dxz     :     0.004846
      dyz     :     0.007998
      dx2y2   :     0.008673
      dxy     :     0.008198
 19 H s       :     0.946150  s :     0.946150
      pz      :     0.005509  p :     0.023439
      px      :     0.009567
      py      :     0.008363
 20 C s       :     3.155329  s :     3.155329
      pz      :     0.947984  p :     2.817354
      px      :     0.939256
      py      :     0.930114
      dz2     :     0.006166  d :     0.034573
      dxz     :     0.004797
      dyz     :     0.008161
      dx2y2   :     0.007220
      dxy     :     0.008228
 21 H s       :     0.942117  s :     0.942117
      pz      :     0.010153  p :     0.023473
      px      :     0.009371
      py      :     0.003948
 22 C s       :     3.152033  s :     3.152033
      pz      :     0.940394  p :     2.794168
      px      :     0.947063
      py      :     0.906711
      dz2     :     0.006390  d :     0.034509
      dxz     :     0.005767
      dyz     :     0.007076
      dx2y2   :     0.008272
      dxy     :     0.007005
 23 H s       :     0.919188  s :     0.919188
      pz      :     0.010247  p :     0.023274
      px      :     0.008912
      py      :     0.004115
 24 H s       :     0.918132  s :     0.918132
      pz      :     0.005375  p :     0.023249
      px      :     0.008935
      py      :     0.008939
 25 H s       :     0.916855  s :     0.916855
      pz      :     0.004782  p :     0.023085
      px      :     0.003279
      py      :     0.015024
 26 C s       :     3.095729  s :     3.095729
      pz      :     0.905675  p :     2.614475
      px      :     0.933785
      py      :     0.775015
      dz2     :     0.012364  d :     0.066875
      dxz     :     0.006404
      dyz     :     0.022626
      dx2y2   :     0.009187
      dxy     :     0.016294
 27 H s       :     0.850460  s :     0.850460
      pz      :     0.018421  p :     0.024117
      px      :     0.004398
      py      :     0.001299
 28 N s       :     3.374502  s :     3.374502
      pz      :     1.140749  p :     3.758951
      px      :     1.472625
      py      :     1.145578
      dz2     :     0.006280  d :     0.033282
      dxz     :     0.006524
      dyz     :     0.010654
      dx2y2   :     0.004264
      dxy     :     0.005561
 29 N s       :     3.374501  s :     3.374501
      pz      :     1.140749  p :     3.758951
      px      :     1.472624
      py      :     1.145578
      dz2     :     0.006280  d :     0.033282
      dxz     :     0.006524
      dyz     :     0.010654
      dx2y2   :     0.004264
      dxy     :     0.005561


                     *******************************
                     * LOEWDIN POPULATION ANALYSIS *
                     *******************************

----------------------
LOEWDIN ATOMIC CHARGES
----------------------
   0 C :    0.032781
   1 C :    0.032781
   2 H :    0.062192
   3 H :    0.062192
   4 C :   -0.002500
   5 C :   -0.028258
   6 C :   -0.023954
   7 C :    0.002642
   8 H :    0.041498
   9 C :    0.003578
  10 H :    0.043965
  11 C :    0.007044
  12 H :    0.050817
  13 H :    0.051181
  14 H :    0.051421
  15 C :   -0.002500
  16 C :   -0.028258
  17 C :   -0.023954
  18 C :    0.002641
  19 H :    0.041498
  20 C :    0.003578
  21 H :    0.043965
  22 C :    0.007044
  23 H :    0.050817
  24 H :    0.051181
  25 H :    0.051421
  26 C :    0.125148
  27 H :    0.063926
  28 N :    0.113058
  29 N :    0.113058

-------------------------------
LOEWDIN REDUCED ORBITAL CHARGES
-------------------------------
  0 C s       :     2.857627  s :     2.857627
      pz      :     0.919785  p :     2.994954
      px      :     1.022364
      py      :     1.052805
      dz2     :     0.038034  d :     0.114637
      dxz     :     0.014313
      dyz     :     0.033914
      dx2y2   :     0.013899
      dxy     :     0.014477
  1 C s       :     2.857627  s :     2.857627
      pz      :     0.919785  p :     2.994955
      px      :     1.022365
      py      :     1.052805
      dz2     :     0.038034  d :     0.114637
      dxz     :     0.014313
      dyz     :     0.033914
      dx2y2   :     0.013899
      dxy     :     0.014477
  2 H s       :     0.865630  s :     0.865630
      pz      :     0.032005  p :     0.072178
      px      :     0.014854
      py      :     0.025319
  3 H s       :     0.865630  s :     0.865630
      pz      :     0.032005  p :     0.072178
      px      :     0.014854
      py      :     0.025319
  4 C s       :     2.830793  s :     2.830793
      pz      :     1.060608  p :     3.037684
      px      :     1.085536
      py      :     0.891539
      dz2     :     0.021348  d :     0.134023
      dxz     :     0.017032
      dyz     :     0.028305
      dx2y2   :     0.038552
      dxy     :     0.028786
  5 C s       :     2.857804  s :     2.857804
      pz      :     1.010891  p :     3.081257
      px      :     1.007372
      py      :     1.062993
      dz2     :     0.016303  d :     0.089197
      dxz     :     0.013362
      dyz     :     0.019482
      dx2y2   :     0.017372
      dxy     :     0.022677
  6 C s       :     2.857781  s :     2.857781
      pz      :     1.011075  p :     3.077260
      px      :     1.005269
      py      :     1.060916
      dz2     :     0.010515  d :     0.088913
      dxz     :     0.010759
      dyz     :     0.022403
      dx2y2   :     0.020225
      dxy     :     0.025011
  7 C s       :     2.857952  s :     2.857952
      pz      :     0.995768  p :     3.050231
      px      :     1.003950
      py      :     1.050512
      dz2     :     0.011123  d :     0.089176
      dxz     :     0.012124
      dyz     :     0.020731
      dx2y2   :     0.023365
      dxy     :     0.021833
  8 H s       :     0.890069  s :     0.890069
      pz      :     0.017068  p :     0.068433
      px      :     0.027008
      py      :     0.024357
  9 C s       :     2.858162  s :     2.858162
      pz      :     1.001592  p :     3.049127
      px      :     1.003102
      py      :     1.044433
      dz2     :     0.014052  d :     0.089133
      dxz     :     0.012680
      dyz     :     0.021693
      dx2y2   :     0.019527
      dxy     :     0.021180
 10 H s       :     0.887535  s :     0.887535
      pz      :     0.028700  p :     0.068501
      px      :     0.026625
      py      :     0.013176
 11 C s       :     2.860680  s :     2.860680
      pz      :     0.996078  p :     3.043495
      px      :     1.000593
      py      :     1.046825
      dz2     :     0.014526  d :     0.088781
      dxz     :     0.016111
      dyz     :     0.018232
      dx2y2   :     0.021300
      dxy     :     0.018611
 12 H s       :     0.881679  s :     0.881679
      pz      :     0.028813  p :     0.067505
      px      :     0.025511
      py      :     0.013181
 13 H s       :     0.881329  s :     0.881329
      pz      :     0.016537  p :     0.067490
      px      :     0.025618
      py      :     0.025335
 14 H s       :     0.881063  s :     0.881063
      pz      :     0.015030  p :     0.067517
      px      :     0.011264
      py      :     0.041222
 15 C s       :     2.830793  s :     2.830793
      pz      :     1.060608  p :     3.037684
      px      :     1.085537
      py      :     0.891539
      dz2     :     0.021348  d :     0.134023
      dxz     :     0.017032
      dyz     :     0.028305
      dx2y2   :     0.038552
      dxy     :     0.028786
 16 C s       :     2.857804  s :     2.857804
      pz      :     1.010891  p :     3.081257
      px      :     1.007372
      py      :     1.062994
      dz2     :     0.016303  d :     0.089197
      dxz     :     0.013362
      dyz     :     0.019482
      dx2y2   :     0.017372
      dxy     :     0.022677
 17 C s       :     2.857781  s :     2.857781
      pz      :     1.011075  p :     3.077260
      px      :     1.005269
      py      :     1.060916
      dz2     :     0.010515  d :     0.088913
      dxz     :     0.010759
      dyz     :     0.022403
      dx2y2   :     0.020225
      dxy     :     0.025011
 18 C s       :     2.857952  s :     2.857952
      pz      :     0.995769  p :     3.050231
      px      :     1.003950
      py      :     1.050513
      dz2     :     0.011123  d :     0.089176
      dxz     :     0.012124
      dyz     :     0.020732
      dx2y2   :     0.023365
      dxy     :     0.021833
 19 H s       :     0.890069  s :     0.890069
      pz      :     0.017068  p :     0.068433
      px      :     0.027008
      py      :     0.024357
 20 C s       :     2.858162  s :     2.858162
      pz      :     1.001592  p :     3.049127
      px      :     1.003102
      py      :     1.044433
      dz2     :     0.014052  d :     0.089133
      dxz     :     0.012680
      dyz     :     0.021693
      dx2y2   :     0.019527
      dxy     :     0.021180
 21 H s       :     0.887535  s :     0.887535
      pz      :     0.028700  p :     0.068501
      px      :     0.026625
      py      :     0.013176
 22 C s       :     2.860680  s :     2.860680
      pz      :     0.996078  p :     3.043495
      px      :     1.000592
      py      :     1.046825
      dz2     :     0.014526  d :     0.088781
      dxz     :     0.016111
      dyz     :     0.018232
      dx2y2   :     0.021300
      dxy     :     0.018611
 23 H s       :     0.881678  s :     0.881678
      pz      :     0.028813  p :     0.067505
      px      :     0.025511
      py      :     0.013180
 24 H s       :     0.881329  s :     0.881329
      pz      :     0.016537  p :     0.067490
      px      :     0.025618
      py      :     0.025336
 25 H s       :     0.881063  s :     0.881063
      pz      :     0.015030  p :     0.067516
      px      :     0.011264
      py      :     0.041222
 26 C s       :     2.839093  s :     2.839093
      pz      :     1.023671  p :     2.880370
      px      :     0.959936
      py      :     0.896762
      dz2     :     0.028718  d :     0.155389
      dxz     :     0.010208
      dyz     :     0.059789
      dx2y2   :     0.023000
      dxy     :     0.033674
 27 H s       :     0.862591  s :     0.862591
      pz      :     0.052627  p :     0.073483
      px      :     0.013986
      py      :     0.006870
 28 N s       :     3.041525  s :     3.041525
      pz      :     1.197066  p :     3.768158
      px      :     1.383871
      py      :     1.187221
      dz2     :     0.017159  d :     0.077259
      dxz     :     0.012370
      dyz     :     0.028017
      dx2y2   :     0.009837
      dxy     :     0.009876
 29 N s       :     3.041525  s :     3.041525
      pz      :     1.197066  p :     3.768158
      px      :     1.383871
      py      :     1.187221
      dz2     :     0.017159  d :     0.077259
      dxz     :     0.012370
      dyz     :     0.028017
      dx2y2   :     0.009837
      dxy     :     0.009876


                      *****************************
                      * MAYER POPULATION ANALYSIS *
                      *****************************

  NA   - Mulliken gross atomic population
  ZA   - Total nuclear charge
  QA   - Mulliken gross atomic charge
  VA   - Mayer's total valence
  BVA  - Mayer's bonded valence
  FA   - Mayer's free valence

  ATOM       NA         ZA         QA         VA         BVA        FA
  0 C      5.9158     6.0000     0.0842     3.8520     3.8520     0.0000
  1 C      5.9158     6.0000     0.0842     3.8520     3.8520     0.0000
  2 H      0.8943     1.0000     0.1057     0.9967     0.9967    -0.0000
  3 H      0.8943     1.0000     0.1057     0.9967     0.9967     0.0000
  4 C      5.8985     6.0000     0.1015     3.7779     3.7779    -0.0000
  5 C      6.0269     6.0000    -0.0269     3.9134     3.9134     0.0000
  6 C      6.0191     6.0000    -0.0191     3.9119     3.9119    -0.0000
  7 C      6.0059     6.0000    -0.0059     3.9075     3.9075     0.0000
  8 H      0.9696     1.0000     0.0304     0.9941     0.9941     0.0000
  9 C      6.0073     6.0000    -0.0073     3.9073     3.9073     0.0000
 10 H      0.9656     1.0000     0.0344     0.9946     0.9946    -0.0000
 11 C      5.9807     6.0000     0.0193     3.8667     3.8667     0.0000
 12 H      0.9425     1.0000     0.0575     0.9858     0.9858    -0.0000
 13 H      0.9414     1.0000     0.0586     0.9857     0.9857     0.0000
 14 H      0.9399     1.0000     0.0601     0.9853     0.9853     0.0000
 15 C      5.8985     6.0000     0.1015     3.7779     3.7779     0.0000
 16 C      6.0269     6.0000    -0.0269     3.9134     3.9134     0.0000
 17 C      6.0191     6.0000    -0.0191     3.9119     3.9119    -0.0000
 18 C      6.0059     6.0000    -0.0059     3.9075     3.9075    -0.0000
 19 H      0.9696     1.0000     0.0304     0.9941     0.9941     0.0000
 20 C      6.0073     6.0000    -0.0073     3.9073     3.9073     0.0000
 21 H      0.9656     1.0000     0.0344     0.9946     0.9946     0.0000
 22 C      5.9807     6.0000     0.0193     3.8667     3.8667    -0.0000
 23 H      0.9425     1.0000     0.0575     0.9858     0.9858    -0.0000
 24 H      0.9414     1.0000     0.0586     0.9857     0.9857    -0.0000
 25 H      0.9399     1.0000     0.0601     0.9853     0.9853    -0.0000
 26 C      5.7771     6.0000     0.2229     3.8505     3.8505     0.0000
 27 H      0.8746     1.0000     0.1254     1.0009     1.0009    -0.0000
 28 N      7.1667     7.0000    -0.1667     3.4303     3.4303     0.0000
 29 N      7.1667     7.0000    -0.1667     3.4303     3.4303    -0.0000

  Mayer bond orders larger than 0.100000
B(  0-C ,  1-C ) :   1.6121 B(  0-C ,  2-H ) :   0.9815 B(  0-C , 28-N ) :   1.1607 
B(  1-C ,  3-H ) :   0.9815 B(  1-C , 29-N ) :   1.1607 B(  4-C ,  5-C ) :   1.3969 
B(  4-C ,  6-C ) :   1.3971 B(  4-C , 28-N ) :   0.8525 B(  5-C ,  7-C ) :   1.3998 
B(  5-C ,  8-H ) :   0.9917 B(  6-C ,  9-C ) :   1.4036 B(  6-C , 10-H ) :   0.9927 
B(  7-C , 11-C ) :   1.4049 B(  7-C , 12-H ) :   0.9826 B(  9-C , 11-C ) :   1.4008 
B(  9-C , 13-H ) :   0.9827 B( 11-C , 14-H ) :   0.9893 B( 15-C , 16-C ) :   1.3969 
B( 15-C , 17-C ) :   1.3971 B( 15-C , 29-N ) :   0.8525 B( 16-C , 18-C ) :   1.3998 
B( 16-C , 19-H ) :   0.9917 B( 17-C , 20-C ) :   1.4036 B( 17-C , 21-H ) :   0.9927 
B( 18-C , 22-C ) :   1.4049 B( 18-C , 23-H ) :   0.9826 B( 20-C , 22-C ) :   1.4008 
B( 20-C , 24-H ) :   0.9827 B( 22-C , 25-H ) :   0.9893 B( 26-C , 27-H ) :   0.9694 
B( 26-C , 28-N ) :   1.3430 B( 26-C , 29-N ) :   1.3430 

-------
TIMINGS
-------

Total SCF time: 0 days 0 hours 9 min 48 sec 

Total time                  ....     588.403 sec
Sum of individual times     ....     587.963 sec  ( 99.9%)

Fock matrix formation       ....     579.524 sec  ( 98.5%)
  Split-RI-J                ....      24.451 sec  (  4.2% of F)
  Chain of spheres X        ....     514.683 sec  ( 88.8% of F)
  XC integration            ....      40.162 sec  (  6.9% of F)
    Basis function eval.    ....      14.208 sec  ( 35.4% of XC)
    Density eval.           ....       9.957 sec  ( 24.8% of XC)
    XC-Functional eval.     ....       5.450 sec  ( 13.6% of XC)
    XC-Potential eval.      ....       9.526 sec  ( 23.7% of XC)
Diagonalization             ....       0.171 sec  (  0.0%)
Density matrix formation    ....       0.033 sec  (  0.0%)
Population analysis         ....       0.017 sec  (  0.0%)
Initial guess               ....       1.508 sec  (  0.3%)
Orbital Transformation      ....       0.000 sec  (  0.0%)
Orbital Orthonormalization  ....       0.000 sec  (  0.0%)
DIIS solution               ....       0.059 sec  (  0.0%)
SOSCF solution              ....       0.112 sec  (  0.0%)
Grid generation             ....       6.540 sec  (  1.1%)

Maximum memory used throughout the entire SCF-calculation: 116.0 MB


-------------------------------------------------------------------------------
                          DFT DISPERSION CORRECTION                            
                                                                               
                                 DFTD4 V2.5                                    
-------------------------------------------------------------------------------
The WB97X functional is recognized
Active option DFTDOPT                   ...         5   

Starting D4
-------------------------   ----------------
Dispersion correction           -0.005735308
-------------------------   ----------------


-------------------------   --------------------
FINAL SINGLE POINT ENERGY      -688.044354710821
-------------------------   --------------------


                            ***************************************
                            *     ORCA property calculations      *
                            ***************************************

                                    ---------------------
                                    Active property flags
                                    ---------------------
   (+) Dipole Moment


------------------------------------------------------------------------------
                       ORCA ELECTRIC PROPERTIES CALCULATION
------------------------------------------------------------------------------

Dipole Moment Calculation                       ... on
Quadrupole Moment Calculation                   ... off
Polarizability Calculation                      ... off
GBWName                                         ... 7+.gbw
Electron density                                ... 7+.scfp
The origin for moment calculation is the CENTER OF MASS  = (-0.000000,  0.000000 -0.013164)

-------------
DIPOLE MOMENT
-------------
                                X             Y             Z
Electronic contribution:     -0.00001      -0.00000      -1.66337
Nuclear contribution   :      0.00001      -0.00000       1.31571
                        -----------------------------------------
Total Dipole Moment    :      0.00000      -0.00000      -0.34766
                        -----------------------------------------
Magnitude (a.u.)       :      0.34766
Magnitude (Debye)      :      0.88367



--------------------
Rotational spectrum 
--------------------
 
Rotational constants in cm-1:     0.052775     0.006755     0.006435 
Rotational constants in MHz :  1582.144221   202.514710   192.907409 

 Dipole components along the rotational axes: 
x,y,z [a.u.] :     0.000001     0.347657     0.000001 
x,y,z [Debye]:     0.000003     0.883674     0.000003 

 

-------------------------------------------------------------------------------
                               ORCA SCF HESSIAN
-------------------------------------------------------------------------------

                   --------- SHARK INITIALIZATION DONE ---------

Hessian of the Kohn-Sham DFT energy:
Kohn-Sham wavefunction type                      ... RKS
Hartree-Fock exchange scaling                    ...    0.158
Number of operators                              ...    1
Number of atoms                                  ...   30
Basis set dimensions                             ...  303
Integral neglect threshold                       ... 2.5e-11
Integral primitive cutoff                        ... 2.5e-12

Setting up DFT Hessian calculations              ... 

HESS GRID
---------

General Integration Accuracy     IntAcc      ... 4.629
Radial Grid Type                 RadialGrid  ... OptM3 with GC (2021)
Angular Grid (max. ang.)         AngularGrid ... 5 (Lebedev-434)
Angular grid pruning method      GridPruning ... 4 (adaptive)
Weight generation scheme         WeightScheme... Becke
Basis function cutoff            BFCut       ... 1.0000e-11
Integration weight cutoff        WCut        ... 1.0000e-14
Angular grids for H and He will be reduced by one unit
Partially contracted basis set               ... off
Rotationally invariant grid construction     ... off

Total number of grid points                  ...   222671
Total number of batches                      ...     3493
Average number of points per batch           ...       63
Average number of grid points per atom       ...     7422

Building densities                               ... done   (      0.0 sec)
Calculating rho(r) on the grid                   ... done   (      2.6 sec)
Building xc-kernel on the grid                   ... done   (      2.0 sec)
                                                     done   (      9.0 sec)

Nuclear repulsion Hessian  (SHARK)               ... done   (      0.0 sec)

----------------------------------------------
Forming right-hand sides of CP-SCF equations     ...
----------------------------------------------
One electron integral derivatives  (SHARK)       ... done   (      1.1 sec)
Transforming the overlap derivative matrices     ... done   (      0.4 sec)
Making the Q(x) pseudodensities                  ... done   (      0.3 sec)
Adding the E*S(x)*S(y) terms to the Hessian      ... done   (      0.3 sec)
[...]
     41       0.166098   0.122036   0.158612  -0.000161  -0.000006  -0.000089
     42       0.002519  -0.001423  -0.001853  -0.000050   0.000021  -0.000040
     43       0.000566  -0.357439  -0.464527  -0.000275  -0.000159   0.000218
     44      -0.002270  -0.124050  -0.161216  -0.000097  -0.000074   0.000061
     45       0.001618   0.000011  -0.000004  -0.000064  -0.000029  -0.000029
     46       0.000504   0.001109  -0.000858  -0.000119  -0.000218  -0.000004
     47       0.001399  -0.000372   0.000294  -0.000431  -0.000223  -0.000240
     48      -0.011701   0.008084  -0.006244  -0.000577  -0.000000   0.000125
     49      -0.013863   0.009973  -0.007688  -0.000524   0.000131   0.000203
     50      -0.005863   0.003909  -0.003017  -0.000253  -0.000032   0.000026
     51      -0.012601  -0.008165   0.006298   0.000066  -0.000394  -0.000315
     52       0.007841   0.005530  -0.004254  -0.000220   0.000161   0.000127
     53      -0.014454  -0.009521   0.007339   0.000122  -0.000353  -0.000287
     54      -0.027211   0.025347  -0.019500   0.000024   0.000005  -0.000030
     55       0.013034  -0.009411   0.007244   0.000021  -0.000053  -0.000048
     56      -0.030621   0.027590  -0.021219   0.000029   0.000034  -0.000000
     57       0.132384  -0.090334   0.069751   0.006660  -0.000025  -0.001303
     58       0.135532  -0.092901   0.071730   0.006407  -0.000143  -0.001307
     59       0.073826  -0.050304   0.038858   0.003953   0.000045  -0.000817
     60      -0.027560  -0.024861   0.019121  -0.000017   0.000012   0.000027
     61      -0.029336  -0.023754   0.018276   0.000088  -0.000006   0.000016
     62      -0.016123  -0.015527   0.011939  -0.000031   0.000016   0.000023
     63       0.142505   0.091435  -0.070531  -0.000684   0.004355   0.003587
     64      -0.066763  -0.043225   0.033338   0.000385  -0.001675  -0.001303
     65       0.155851   0.100236  -0.077328  -0.000738   0.004733   0.003818
     66       0.002983  -0.000216   0.000164   0.000032   0.000018   0.000020
     67       0.000884  -0.043000   0.033076  -0.000011   0.000012   0.000014
     68       0.002601   0.014884  -0.011448   0.000023   0.000006   0.000003
     69       0.306555  -0.269249   0.207088  -0.000312  -0.000331  -0.000021
     70      -0.135672   0.116562  -0.089646   0.000156   0.000212   0.000059
     71       0.340417  -0.298086   0.229278  -0.000219  -0.000406  -0.000068
     72       0.310335   0.263954  -0.203007  -0.000343  -0.000102  -0.000291
     73       0.317930   0.267796  -0.205956  -0.000429  -0.000030  -0.000245
     74       0.185499   0.158717  -0.122077  -0.000161   0.000006  -0.000089
     75      -0.002813   0.001848  -0.001424   0.000050   0.000021   0.000040
     76      -0.000810   0.464501  -0.357239   0.000275  -0.000159  -0.000218
     77      -0.002474  -0.161207   0.123981  -0.000097   0.000074   0.000061
     78      -0.000001  -0.000001   0.000007  -0.000000   0.000014   0.000000
     79      -0.000001   0.000004  -0.000031  -0.000000   0.001923   0.000000
     80       0.000242  -0.000205  -0.000027  -0.093273   0.000000   0.008459
     81      -0.000004  -0.000003   0.000020   0.000001  -0.000055  -0.000000
     82       0.000009  -0.000005   0.000040   0.000001   0.000471  -0.000000
     83      -0.002341   0.002773   0.000361   0.992575  -0.000000  -0.074301
     84       0.000096  -0.000001   0.000008  -0.000075   0.000028  -0.000027
     85       0.000061   0.000086   0.000177  -0.003349   0.000030   0.000672
     86      -0.000138   0.000051   0.000026   0.003074  -0.000888   0.002689
     87      -0.000107  -0.000001   0.000008   0.000075   0.000028   0.000027
     88      -0.000065  -0.000128   0.000150   0.003349   0.000030  -0.000672
     89      -0.000155   0.000056  -0.000012   0.003074   0.000888   0.002689


-----------
IR SPECTRUM
-----------

 Mode   freq       eps      Int      T**2         TX        TY        TZ
       cm**-1   L/(mol*cm) km/mol    a.u.
----------------------------------------------------------------------------
  6:     35.10   0.000005    0.03  0.000049  (-0.000001  0.000000  0.006985)
  7:     46.20   0.000015    0.07  0.000099  ( 0.009929 -0.000281  0.000000)
  8:     67.54   0.000020    0.10  0.000091  (-0.000000 -0.000000 -0.009551)
  9:     96.14   0.000080    0.40  0.000258  ( 0.012407 -0.010223  0.000000)
 10:    129.10   0.000079    0.40  0.000191  ( 0.000000 -0.000000  0.013807)
 11:    146.44   0.000105    0.53  0.000223  ( 0.014938 -0.000311  0.000000)
 12:    252.68   0.000044    0.22  0.000054  ( 0.000000 -0.000000  0.007350)
 13:    307.78   0.000195    0.98  0.000198  (-0.000000 -0.000000 -0.014054)
 14:    314.41   0.000027    0.14  0.000027  (-0.004945 -0.001663  0.000000)
 15:    409.81   0.000177    0.90  0.000135  (-0.005510  0.010234  0.000000)
 16:    425.65   0.000023    0.11  0.000017  (-0.000003  0.000003  0.004076)
 17:    425.76   0.000052    0.26  0.000038  (-0.004917  0.003742 -0.000003)
 18:    430.50   0.000006    0.03  0.000004  ( 0.000000  0.000000 -0.002056)
 19:    447.16   0.000389    1.97  0.000272  ( 0.013777  0.009039  0.000000)
 20:    534.18   0.002217   11.21  0.001295  ( 0.000000  0.000000 -0.035992)
 21:    567.91   0.001661    8.40  0.000913  (-0.026959  0.013640 -0.000000)
 22:    626.41   0.000160    0.81  0.000080  (-0.008584 -0.002488  0.000000)
 23:    626.63   0.000002    0.01  0.000001  ( 0.000001  0.000000  0.000892)
 24:    678.76   0.000686    3.47  0.000316  (-0.000000 -0.000000  0.017764)
 25:    683.21   0.002930   14.80  0.001338  (-0.036088 -0.005983 -0.000000)
 26:    694.71   0.000072    0.36  0.000032  ( 0.000000  0.000000 -0.005690)
 27:    721.82   0.001862    9.41  0.000805  ( 0.004929  0.027944 -0.000001)
 28:    723.21   0.005580   28.20  0.002408  ( 0.000052 -0.000014  0.049070)
 29:    723.50   0.007050   35.63  0.003041  ( 0.053067 -0.014986 -0.000048)
 30:    777.99   0.007049   35.62  0.002827  (-0.053115  0.002470  0.000000)
 31:    800.86   0.006011   30.38  0.002342  ( 0.000011 -0.000004  0.048396)
 32:    801.99   0.008461   42.76  0.003292  ( 0.053292 -0.021266 -0.000010)
 33:    871.46   0.000131    0.66  0.000047  ( 0.004192  0.005425  0.000001)
 34:    871.90   0.000034    0.17  0.000012  ( 0.000001  0.000002 -0.003469)
 35:    892.64   0.002382   12.04  0.000833  ( 0.028853 -0.000518  0.000000)
 36:    919.29   0.000000    0.00  0.000000  (-0.000000 -0.000000 -0.000402)
 37:    969.51   0.000238    1.20  0.000077  (-0.000003  0.000005 -0.008761)
 38:    970.32   0.000451    2.28  0.000145  (-0.006301  0.010271  0.000004)
 39:    980.44   0.000530    2.68  0.000169  (-0.002698 -0.012705  0.000000)
 40:    988.83   0.000001    0.00  0.000000  ( 0.000000 -0.000000  0.000404)
 41:   1025.77   0.002199   11.11  0.000669  ( 0.000517 -0.025859  0.000000)
 42:   1026.84   0.000133    0.67  0.000041  ( 0.000000 -0.000001 -0.006366)
 43:   1029.05   0.000062    0.31  0.000019  (-0.002392 -0.003605  0.000001)
 44:   1029.64   0.000083    0.42  0.000025  (-0.000001 -0.000000 -0.005001)
 45:   1062.19   0.000125    0.63  0.000037  ( 0.000000  0.000002 -0.006061)
 46:   1063.18   0.000127    0.64  0.000037  (-0.000288 -0.006110 -0.000001)
 47:   1063.82   0.000006    0.03  0.000002  (-0.000002 -0.000013 -0.001289)
 48:   1063.91   0.000105    0.53  0.000031  (-0.000906 -0.005468  0.000002)
 49:   1087.32   0.014022   70.86  0.004024  (-0.003770 -0.063325  0.000000)
 50:   1109.07   0.001340    6.77  0.000377  (-0.000000  0.000000 -0.019418)
 51:   1115.70   0.001738    8.78  0.000486  ( 0.022048 -0.000130 -0.000007)
 52:   1116.70   0.003256   16.45  0.000910  ( 0.000005  0.000000  0.030164)
 53:   1145.77   0.000481    2.43  0.000131  (-0.000000  0.000000  0.011450)
 54:   1178.99   0.000020    0.10  0.000005  (-0.000001 -0.000000 -0.002313)
 55:   1179.11   0.000040    0.20  0.000010  (-0.003216 -0.000335  0.000000)
 56:   1195.31   0.000024    0.12  0.000006  (-0.000741  0.002406  0.000000)
 57:   1196.25   0.000017    0.08  0.000004  ( 0.000000 -0.000000  0.002090)
 58:   1255.17   0.002731   13.80  0.000679  (-0.004170 -0.025720 -0.000000)
 59:   1290.07   0.005710   28.86  0.001381  ( 0.001386 -0.037139  0.000000)
 60:   1327.61   0.000110    0.55  0.000026  (-0.000000  0.000000 -0.005076)
 61:   1337.03   0.000084    0.43  0.000020  ( 0.002983 -0.003285  0.000000)
 62:   1359.41   0.000387    1.96  0.000089  (-0.000005 -0.000002  0.009429)
 63:   1360.27   0.001121    5.67  0.000257  (-0.014646 -0.006537 -0.000003)
 64:   1404.47   0.000951    4.81  0.000211  (-0.000000 -0.000000  0.014537)
 65:   1429.20   0.002061   10.41  0.000450  (-0.006945 -0.020043 -0.000000)
 66:   1470.95   0.000293    1.48  0.000062  ( 0.000000  0.000000  0.007884)
 67:   1513.68   0.001767    8.93  0.000364  (-0.018631 -0.004139  0.000002)
 68:   1517.07   0.001211    6.12  0.000249  ( 0.000002  0.000000  0.015784)
 69:   1546.96   0.008509   43.00  0.001717  (-0.000089 -0.041431  0.000001)
 70:   1562.33   0.002163   10.93  0.000432  (-0.000000 -0.000001 -0.020784)
 71:   1651.76   0.000412    2.08  0.000078  ( 0.000000 -0.000019  0.008827)
 72:   1652.80   0.045646  230.68  0.008618  ( 0.001150 -0.092828 -0.000002)
 73:   1702.00   0.001728    8.73  0.000317  ( 0.014384  0.010482  0.000000)
 74:   1703.64   0.002684   13.56  0.000492  (-0.000274  0.022171 -0.000001)
 75:   1704.66   0.000577    2.92  0.000106  ( 0.000001  0.000002 -0.010281)
 76:   1705.69   0.000678    3.43  0.000124  ( 0.000000  0.000003  0.011137)
 77:   3221.08   0.000778    3.93  0.000075  ( 0.000540  0.008663 -0.000002)
 78:   3221.12   0.000037    0.19  0.000004  ( 0.000000  0.000009  0.001906)
 79:   3223.78   0.000016    0.08  0.000002  (-0.001199 -0.000280 -0.000006)
 80:   3223.82   0.000008    0.04  0.000001  (-0.000008 -0.000003  0.000872)
 81:   3230.74   0.000262    1.33  0.000025  ( 0.000597  0.004990 -0.000287)
 82:   3230.75   0.000030    0.15  0.000003  ( 0.000149  0.001247  0.001146)
 83:   3238.91   0.000002    0.01  0.000000  (-0.000254  0.000294 -0.000004)
 84:   3238.92   0.000000    0.00  0.000000  ( 0.000014 -0.000017 -0.000061)
 85:   3245.69   0.000001    0.01  0.000000  ( 0.000044  0.000139 -0.000320)
 86:   3245.69   0.000013    0.07  0.000001  (-0.000336 -0.001062 -0.000042)
 87:   3295.35   0.006654   33.63  0.000630  ( 0.000000 -0.000000  0.025102)
 88:   3304.06   0.004335   21.90  0.000409  (-0.000520  0.020227 -0.000000)
 89:   3322.42   0.004002   20.22  0.000376  ( 0.000000  0.000000  0.019387)

* The epsilon (eps) is given for a Dirac delta lineshape.
** The dipole moment derivative (T) already includes vibrational overlap.

The first frequency considered to be a vibration is 6
The total number of vibrations considered is 84


--------------------------
THERMOCHEMISTRY AT 298.15K
--------------------------

Temperature         ... 298.15 K
Pressure            ... 1.00 atm
Total Mass          ... 221.28 AMU

Throughout the following assumptions are being made:
  (1) The electronic state is orbitally nondegenerate
  (2) There are no thermally accessible electronically excited states
  (3) Hindered rotations indicated by low frequency modes are not
      treated as such but are treated as vibrations and this may
      cause some error
  (4) All equations used are the standard statistical mechanics
      equations for an ideal gas
  (5) All vibrations are strictly harmonic

freq.      35.10  E(vib)   ...       0.54 
freq.      46.20  E(vib)   ...       0.53 
freq.      67.54  E(vib)   ...       0.50 
freq.      96.14  E(vib)   ...       0.47 
freq.     129.10  E(vib)   ...       0.43 
freq.     146.44  E(vib)   ...       0.41 
freq.     252.68  E(vib)   ...       0.30 
freq.     307.78  E(vib)   ...       0.26 
freq.     314.41  E(vib)   ...       0.25 
freq.     409.81  E(vib)   ...       0.19 
freq.     425.65  E(vib)   ...       0.18 
freq.     425.76  E(vib)   ...       0.18 
freq.     430.50  E(vib)   ...       0.18 
freq.     447.16  E(vib)   ...       0.17 
freq.     534.18  E(vib)   ...       0.13 
freq.     567.91  E(vib)   ...       0.11 
freq.     626.41  E(vib)   ...       0.09 
freq.     626.63  E(vib)   ...       0.09 
freq.     678.76  E(vib)   ...       0.08 
freq.     683.21  E(vib)   ...       0.08 
freq.     694.71  E(vib)   ...       0.07 
freq.     721.82  E(vib)   ...       0.07 
freq.     723.21  E(vib)   ...       0.07 
freq.     723.50  E(vib)   ...       0.06 
freq.     777.99  E(vib)   ...       0.05 
freq.     800.86  E(vib)   ...       0.05 
freq.     801.99  E(vib)   ...       0.05 
freq.     871.46  E(vib)   ...       0.04 
freq.     871.90  E(vib)   ...       0.04 
freq.     892.64  E(vib)   ...       0.03 
freq.     919.29  E(vib)   ...       0.03 
freq.     969.51  E(vib)   ...       0.03 
freq.     970.32  E(vib)   ...       0.03 
freq.     980.44  E(vib)   ...       0.02 
freq.     988.83  E(vib)   ...       0.02 
freq.    1025.77  E(vib)   ...       0.02 
freq.    1026.84  E(vib)   ...       0.02 
freq.    1029.05  E(vib)   ...       0.02 
freq.    1029.64  E(vib)   ...       0.02 
freq.    1062.19  E(vib)   ...       0.02 
freq.    1063.18  E(vib)   ...       0.02 
freq.    1063.82  E(vib)   ...       0.02 
freq.    1063.91  E(vib)   ...       0.02 
freq.    1087.32  E(vib)   ...       0.02 
freq.    1109.07  E(vib)   ...       0.02 
freq.    1115.70  E(vib)   ...       0.01 
freq.    1116.70  E(vib)   ...       0.01 
freq.    1145.77  E(vib)   ...       0.01 
freq.    1178.99  E(vib)   ...       0.01 
freq.    1179.11  E(vib)   ...       0.01 
freq.    1195.31  E(vib)   ...       0.01 
freq.    1196.25  E(vib)   ...       0.01 
freq.    1255.17  E(vib)   ...       0.01 
freq.    1290.07  E(vib)   ...       0.01 
freq.    1327.61  E(vib)   ...       0.01 
freq.    1337.03  E(vib)   ...       0.01 
freq.    1359.41  E(vib)   ...       0.01 
freq.    1360.27  E(vib)   ...       0.01 
freq.    1404.47  E(vib)   ...       0.00 
freq.    1429.20  E(vib)   ...       0.00 
freq.    1470.95  E(vib)   ...       0.00 
freq.    1513.68  E(vib)   ...       0.00 
freq.    1517.07  E(vib)   ...       0.00 
freq.    1546.96  E(vib)   ...       0.00 
freq.    1562.33  E(vib)   ...       0.00 
freq.    1651.76  E(vib)   ...       0.00 
freq.    1652.80  E(vib)   ...       0.00 
freq.    1702.00  E(vib)   ...       0.00 
freq.    1703.64  E(vib)   ...       0.00 
freq.    1704.66  E(vib)   ...       0.00 
freq.    1705.69  E(vib)   ...       0.00 
freq.    3221.08  E(vib)   ...       0.00 
freq.    3221.12  E(vib)   ...       0.00 
freq.    3223.78  E(vib)   ...       0.00 
freq.    3223.82  E(vib)   ...       0.00 
freq.    3230.74  E(vib)   ...       0.00 
freq.    3230.75  E(vib)   ...       0.00 
freq.    3238.91  E(vib)   ...       0.00 
freq.    3238.92  E(vib)   ...       0.00 
freq.    3245.69  E(vib)   ...       0.00 
freq.    3245.69  E(vib)   ...       0.00 
freq.    3295.35  E(vib)   ...       0.00 
freq.    3304.06  E(vib)   ...       0.00 
freq.    3322.42  E(vib)   ...       0.00 

------------
INNER ENERGY
------------

The inner energy is: U= E(el) + E(ZPE) + E(vib) + E(rot) + E(trans)
    E(el)   - is the total energy from the electronic structure calculation
              = E(kin-el) + E(nuc-el) + E(el-el) + E(nuc-nuc)
    E(ZPE)  - the the zero temperature vibrational energy from the frequency calculation
    E(vib)  - the the finite temperature correction to E(ZPE) due to population
              of excited vibrational states
    E(rot)  - is the rotational thermal energy
    E(trans)- is the translational thermal energy

Summary of contributions to the inner energy U:
Electronic energy                ...   -688.04435471 Eh
Zero point energy                ...      0.24919878 Eh     156.37 kcal/mol
Thermal vibrational correction   ...      0.00980723 Eh       6.15 kcal/mol
Thermal rotational correction    ...      0.00141627 Eh       0.89 kcal/mol
Thermal translational correction ...      0.00141627 Eh       0.89 kcal/mol
-----------------------------------------------------------------------
Total thermal energy                   -687.78251616 Eh


Summary of corrections to the electronic energy:
(perhaps to be used in another calculation)
Total thermal correction                  0.01263977 Eh       7.93 kcal/mol
Non-thermal (ZPE) correction              0.24919878 Eh     156.37 kcal/mol
-----------------------------------------------------------------------
Total correction                          0.26183855 Eh     164.31 kcal/mol


--------
ENTHALPY
--------

The enthalpy is H = U + kB*T
                kB is Boltzmann's constant
Total free energy                 ...   -687.78251616 Eh 
Thermal Enthalpy correction       ...      0.00094421 Eh       0.59 kcal/mol
-----------------------------------------------------------------------
Total Enthalpy                    ...   -687.78157195 Eh


Note: Rotational entropy computed according to Herzberg 
Infrared and Raman Spectra, Chapter V,1, Van Nostrand Reinhold, 1945 
Point Group:  C2, Symmetry Number:   2  
Rotational constants in cm-1:     0.052775     0.006755     0.006435 

Vibrational entropy computed according to the QRRHO of S. Grimme
Chem.Eur.J. 2012 18 9955


-------
ENTROPY
-------

The entropy contributions are T*S = T*(S(el)+S(vib)+S(rot)+S(trans))
     S(el)   - electronic entropy
     S(vib)  - vibrational entropy
     S(rot)  - rotational entropy
     S(trans)- translational entropy
The entropies will be listed as multiplied by the temperature to get
units of energy

Electronic entropy                ...      0.00000000 Eh      0.00 kcal/mol
Vibrational entropy               ...      0.01674212 Eh     10.51 kcal/mol
Rotational entropy                ...      0.01498655 Eh      9.40 kcal/mol
Translational entropy             ...      0.01999615 Eh     12.55 kcal/mol
-----------------------------------------------------------------------
Final entropy term                ...      0.05172482 Eh     32.46 kcal/mol

In case the symmetry of your molecule has not been determined correctly
or in case you have a reason to use a different symmetry number we print 
out the resulting rotational entropy values for sn=1,12 :
 --------------------------------------------------------
|  sn= 1 | S(rot)=       0.01564101 Eh      9.81 kcal/mol|
|  sn= 2 | S(rot)=       0.01498655 Eh      9.40 kcal/mol|
|  sn= 3 | S(rot)=       0.01460372 Eh      9.16 kcal/mol|
|  sn= 4 | S(rot)=       0.01433210 Eh      8.99 kcal/mol|
|  sn= 5 | S(rot)=       0.01412141 Eh      8.86 kcal/mol|
|  sn= 6 | S(rot)=       0.01394927 Eh      8.75 kcal/mol|
|  sn= 7 | S(rot)=       0.01380372 Eh      8.66 kcal/mol|
|  sn= 8 | S(rot)=       0.01367764 Eh      8.58 kcal/mol|
|  sn= 9 | S(rot)=       0.01356643 Eh      8.51 kcal/mol|
|  sn=10 | S(rot)=       0.01346695 Eh      8.45 kcal/mol|
|  sn=11 | S(rot)=       0.01337696 Eh      8.39 kcal/mol|
|  sn=12 | S(rot)=       0.01329481 Eh      8.34 kcal/mol|
 --------------------------------------------------------


-------------------
GIBBS FREE ENERGY
-------------------

The Gibbs free energy is G = H - T*S

Total enthalpy                    ...   -687.78157195 Eh 
Total entropy correction          ...     -0.05172482 Eh    -32.46 kcal/mol
-----------------------------------------------------------------------
Final Gibbs free energy         ...   -687.83329678 Eh

For completeness - the Gibbs free energy minus the electronic energy
G-E(el)                           ...      0.21105793 Eh    132.44 kcal/mol


Timings for individual modules:

Sum of individual times         ...     2930.538 sec (=  48.842 min)
GTO integral calculation        ...        0.448 sec (=   0.007 min)   0.0 %
SCF iterations                  ...      588.438 sec (=   9.807 min)  20.1 %
Analytical frequency calculation...     2341.652 sec (=  39.028 min)  79.9 %
                             ****ORCA TERMINATED NORMALLY****
TOTAL RUN TIME: 0 days 0 hours 48 minutes 51 seconds 11 msec
