
                                 *****************
                                 * O   R   C   A *
                                 *****************

                                            #,                                       
                                            ###                                      
                                            ####                                     
                                            #####                                    
                                            ######                                   
                                           ########,                                 
                                     ,,################,,,,,                         
                               ,,#################################,,                 
                          ,,##########################################,,             
                       ,#########################################, ''#####,          
                    ,#############################################,,   '####,        
                  ,##################################################,,,,####,       
                ,###########''''           ''''###############################       
              ,#####''   ,,,,##########,,,,          '''####'''          '####       
            ,##' ,,,,###########################,,,                        '##       
           ' ,,###''''                  '''############,,,                           
         ,,##''                                '''############,,,,        ,,,,,,###''
      ,#''                                            '''#######################'''  
     '                                                          ''''####''''         
             ,#######,   #######,   ,#######,      ##                                
            ,#'     '#,  ##    ##  ,#'     '#,    #''#        ######   ,####,        
            ##       ##  ##   ,#'  ##            #'  '#       #        #'  '#        
            ##       ##  #######   ##           ,######,      #####,   #    #        
            '#,     ,#'  ##    ##  '#,     ,#' ,#      #,         ##   #,  ,#        
             '#######'   ##     ##  '#######'  #'      '#     #####' # '####'        



                  #######################################################
                  #                        -***-                        #
                  #          Department of theory and spectroscopy      #
                  #    Directorship and core code : Frank Neese         #
                  #        Max Planck Institute fuer Kohlenforschung    #
                  #                Kaiser Wilhelm Platz 1               #
                  #                 D-45470 Muelheim/Ruhr               #
                  #                      Germany                        #
                  #                                                     #
                  #                  All rights reserved                #
                  #                        -***-                        #
                  #######################################################


                         Program Version 5.0.4 -  RELEASE  -


 With contributions from (in alphabetic order):
   Daniel Aravena         : Magnetic Suceptibility
   Michael Atanasov       : Ab Initio Ligand Field Theory (pilot matlab implementation)
   Alexander A. Auer      : GIAO ZORA, VPT2 properties, NMR spectrum
   Ute Becker             : Parallelization
   Giovanni Bistoni       : ED, misc. LED, open-shell LED, HFLD
   Martin Brehm           : Molecular dynamics
   Dmytro Bykov           : SCF Hessian
   Vijay G. Chilkuri      : MRCI spin determinant printing, contributions to CSF-ICE
   Dipayan Datta          : RHF DLPNO-CCSD density
   Achintya Kumar Dutta   : EOM-CC, STEOM-CC
   Dmitry Ganyushin       : Spin-Orbit,Spin-Spin,Magnetic field MRCI
   Miquel Garcia          : C-PCM and meta-GGA Hessian, CC/C-PCM, Gaussian charge scheme
   Yang Guo               : DLPNO-NEVPT2, F12-NEVPT2, CIM, IAO-localization
   Andreas Hansen         : Spin unrestricted coupled pair/coupled cluster methods
   Benjamin Helmich-Paris : MC-RPA, TRAH-SCF, COSX integrals
   Lee Huntington         : MR-EOM, pCC
   Robert Izsak           : Overlap fitted RIJCOSX, COSX-SCS-MP3, EOM
   Marcus Kettner         : VPT2
   Christian Kollmar      : KDIIS, OOCD, Brueckner-CCSD(T), CCSD density, CASPT2, CASPT2-K
   Simone Kossmann        : Meta GGA functionals, TD-DFT gradient, OOMP2, MP2 Hessian
   Martin Krupicka        : Initial AUTO-CI
   Lucas Lang             : DCDCAS
   Marvin Lechner         : AUTO-CI (C++ implementation), FIC-MRCC
   Dagmar Lenk            : GEPOL surface, SMD
   Dimitrios Liakos       : Extrapolation schemes; Compound Job, initial MDCI parallelization
   Dimitrios Manganas     : Further ROCIS development; embedding schemes
   Dimitrios Pantazis     : SARC Basis sets
   Anastasios Papadopoulos: AUTO-CI, single reference methods and gradients
   Taras Petrenko         : DFT Hessian,TD-DFT gradient, ASA, ECA, R-Raman, ABS, FL, XAS/XES, NRVS
   Peter Pinski           : DLPNO-MP2, DLPNO-MP2 Gradient
   Christoph Reimann      : Effective Core Potentials
   Marius Retegan         : Local ZFS, SOC
   Christoph Riplinger    : Optimizer, TS searches, QM/MM, DLPNO-CCSD(T), (RO)-DLPNO pert. Triples
   Tobias Risthaus        : Range-separated hybrids, TD-DFT gradient, RPA, STAB
   Michael Roemelt        : Original ROCIS implementation
   Masaaki Saitow         : Open-shell DLPNO-CCSD energy and density
   Barbara Sandhoefer     : DKH picture change effects
   Avijit Sen             : IP-ROCIS
   Kantharuban Sivalingam : CASSCF convergence, NEVPT2, FIC-MRCI
   Bernardo de Souza      : ESD, SOC TD-DFT
   Georgi Stoychev        : AutoAux, RI-MP2 NMR, DLPNO-MP2 response
   Willem Van den Heuvel  : Paramagnetic NMR
   Boris Wezisla          : Elementary symmetry handling
   Frank Wennmohs         : Technical directorship


 We gratefully acknowledge several colleagues who have allowed us to
 interface, adapt or use parts of their codes:
   Stefan Grimme, W. Hujo, H. Kruse, P. Pracht,  : VdW corrections, initial TS optimization,
                  C. Bannwarth, S. Ehlert          DFT functionals, gCP, sTDA/sTD-DF
   Ed Valeev, F. Pavosevic, A. Kumar             : LibInt (2-el integral package), F12 methods
   Garnet Chan, S. Sharma, J. Yang, R. Olivares  : DMRG
   Ulf Ekstrom                                   : XCFun DFT Library
   Mihaly Kallay                                 : mrcc  (arbitrary order and MRCC methods)
   Jiri Pittner, Ondrej Demel                    : Mk-CCSD
   Frank Weinhold                                : gennbo (NPA and NBO analysis)
   Christopher J. Cramer and Donald G. Truhlar   : smd solvation model
   Lars Goerigk                                  : TD-DFT with DH, B97 family of functionals
   V. Asgeirsson, H. Jonsson                     : NEB implementation
   FAccTs GmbH                                   : IRC, NEB, NEB-TS, DLPNO-Multilevel, CI-OPT
                                                   MM, QMMM, 2- and 3-layer-ONIOM, Crystal-QMMM,
                                                   LR-CPCM, SF, NACMEs, symmetry and pop. for TD-DFT,
                                                   nearIR, NL-DFT gradient (VV10), updates on ESD,
                                                   ML-optimized integration grids
   S Lehtola, MJT Oliveira, MAL Marques          : LibXC Library
   Liviu Ungur et al                             : ANISO software


 Your calculation uses the libint2 library for the computation of 2-el integrals
 For citations please refer to: http://libint.valeyev.net

 Your ORCA version has been built with support for libXC version: 5.1.0
 For citations please refer to: https://tddft.org/programs/libxc/

 This ORCA versions uses:
   CBLAS   interface :  Fast vector & matrix operations
   LAPACKE interface :  Fast linear algebra routines
   SCALAPACK package :  Parallel linear algebra routines
   Shared memory     :  Shared parallel matrices
   BLAS/LAPACK       :  OpenBLAS 0.3.15  USE64BITINT DYNAMIC_ARCH NO_AFFINITY SkylakeX SINGLE_THREADED
        Core in use  :  SkylakeX
   Copyright (c) 2011-2014, The OpenBLAS Project




***************************************
The coordinates will be read from file: 7.xyz
***************************************


Your calculation utilizes the atom-pairwise dispersion correction
based on tight binding partial charges (D4)
Cite in your paper:
E.Caldeweyher, C.Bannwarth, S.Grimme, J.Chem.Phys., (2017), 147, 034112.
E.Caldeweyher, S.Ehlert, A.Hansen, H.Neugebauer, S.Grimme, J.Chem.Phys., (2018), in progress.
   

XCFun DFT library Copyright 2009-2010 Ulf Ekstrom and contributors.
See http://admol.org/xcfun for more information.
This is free software; see the source code for copying conditions.
There is ABSOLUTELY NO WARRANTY; not even for MERCHANTABILITY or FITNESS FOR A PARTICULAR PURPOSE.
For details see the documentation.
Scientific users of this library should cite U. Ekstrom, L. Visscher, R. Bast, A. J. Thorvaldsen and K. Ruud;
J.Chem.Theor.Comp. 2010, DOI: 10.1021/ct100117s
XCFun Version 0.99 

================================================================================

----- Orbital basis set information -----
Your calculation utilizes the basis: def2-SVP
   F. Weigend and R. Ahlrichs, Phys. Chem. Chem. Phys. 7, 3297 (2005).

----- AuxJ basis set information -----
Your calculation utilizes the auxiliary basis: def2/J
   F. Weigend, Phys. Chem. Chem. Phys. 8, 1057 (2006).

================================================================================
                                        WARNINGS
                       Please study these warnings very carefully!
================================================================================


INFO   : the flag for use of the SHARK integral package has been found!

================================================================================
                                       INPUT FILE
================================================================================
NAME = 7.inp
|  1> # ORCA 5.0.4 - 7.inp # write input file
|  2> # Basic Mode
|  3> #
|  4> ! Freq wB97X Def2-SVP D4 SlowConv TightSCF DEFGRID2 Def2/J RIJCOSX 
|  5> 
|  6> 
|  7> 
|  8> %maxcore 4500
|  9> 
| 10> %geom
| 11> Maxiter 150
| 12> END
| 13> 
| 14> * xyzfile 0 1 7.xyz
| 15> 
| 16>                          ****END OF INPUT****
================================================================================

                       ****************************
                       * Single Point Calculation *
                       ****************************

---------------------------------
CARTESIAN COORDINATES (ANGSTROEM)
---------------------------------
  C     -0.002310    0.674970   -1.836966
  C      0.002313   -0.674970   -1.836966
  H     -0.017629    1.379468   -2.665582
  H      0.017633   -1.379468   -2.665582
  C     -0.011104    2.420257   -0.058431
  C     -0.598092    2.750479    1.165891
  C      0.569761    3.416221   -0.846627
  C     -0.594812    4.073733    1.600022
  H     -1.051655    1.961340    1.768526
  C      0.557449    4.740451   -0.408736
  H      1.047004    3.162124   -1.796406
  C     -0.021045    5.074996    0.814695
  H     -1.055078    4.324778    2.559863
  H      1.015206    5.514694   -1.030674
  H     -0.025670    6.113714    1.156011
  C      0.011104   -2.420257   -0.058430
  C      0.598093   -2.750480    1.165891
  C     -0.569763   -3.416220   -0.846627
  C      0.594812   -4.073733    1.600021
  H      1.051657   -1.961341    1.768526
  C     -0.557452   -4.740451   -0.408735
  H     -1.047005   -3.162123   -1.796405
  C      0.021044   -5.074996    0.814695
  H      1.055079   -4.324779    2.559862
  H     -1.015209   -5.514694   -1.030673
  H      0.025669   -6.113714    1.156011
  C     -0.000000    0.000000    0.351299
  N     -0.006538    1.063095   -0.498798
  N      0.006540   -1.063095   -0.498798

----------------------------
CARTESIAN COORDINATES (A.U.)
----------------------------
  NO LB      ZA    FRAG     MASS         X           Y           Z
   0 C     6.0000    0    12.011   -0.004365    1.275508   -3.471363
   1 C     6.0000    0    12.011    0.004371   -1.275508   -3.471363
   2 H     1.0000    0     1.008   -0.033314    2.606817   -5.037220
   3 H     1.0000    0     1.008    0.033322   -2.606817   -5.037220
   4 C     6.0000    0    12.011   -0.020984    4.573623   -0.110419
   5 C     6.0000    0    12.011   -1.130230    5.197652    2.203215
   6 C     6.0000    0    12.011    1.076692    6.455722   -1.599893
   7 C     6.0000    0    12.011   -1.124032    7.698240    3.023603
   8 H     1.0000    0     1.008   -1.987340    3.706395    3.342030
   9 C     6.0000    0    12.011    1.053426    8.958154   -0.772399
  10 H     1.0000    0     1.008    1.978551    5.975548   -3.394715
  11 C     6.0000    0    12.011   -0.039769    9.590353    1.539550
  12 H     1.0000    0     1.008   -1.993808    8.172646    4.837440
  13 H     1.0000    0     1.008    1.918461   10.421261   -1.947692
  14 H     1.0000    0     1.008   -0.048509   11.553245    2.184544
  15 C     6.0000    0    12.011    0.020984   -4.573623   -0.110417
  16 C     6.0000    0    12.011    1.130232   -5.197654    2.203215
  17 C     6.0000    0    12.011   -1.076696   -6.455720   -1.599893
  18 C     6.0000    0    12.011    1.124032   -7.698240    3.023601
  19 H     1.0000    0     1.008    1.987344   -3.706397    3.342030
  20 C     6.0000    0    12.011   -1.053432   -8.958154   -0.772397
  21 H     1.0000    0     1.008   -1.978553   -5.975546   -3.394713
  22 C     6.0000    0    12.011    0.039767   -9.590353    1.539550
  23 H     1.0000    0     1.008    1.993810   -8.172648    4.837438
  24 H     1.0000    0     1.008   -1.918467  -10.421261   -1.947690
  25 H     1.0000    0     1.008    0.048507  -11.553245    2.184544
  26 C     6.0000    0    12.011   -0.000000    0.000000    0.663859
  27 N     7.0000    0    14.007   -0.012355    2.008958   -0.942592
  28 N     7.0000    0    14.007    0.012359   -2.008958   -0.942592

--------------------------------
INTERNAL COORDINATES (ANGSTROEM)
--------------------------------
 C      0   0   0     0.000000000000     0.00000000     0.00000000
 C      1   0   0     1.349947915932     0.00000000     0.00000000
 H      1   2   0     1.087730012099   130.37004707     0.00000000
 H      2   1   3     1.087730026183   130.37004668     1.78477251
 C      1   2   3     2.491844857336   134.45970869   179.01689573
 C      5   1   2     1.397342420852   142.40734703   316.76508638
 C      5   1   2     1.396639313473    95.46258098   155.20633882
 C      6   5   1     1.392652732047   119.78102639   200.96453029
 H      6   5   1     1.091617469407   119.16992630    21.07895700
 C      7   5   1     1.394806512074   119.74794933   166.91446025
 H      7   5   1     1.092888976657   120.41561116   345.97231574
 C     10   7   5     1.394044144503   120.46572798     0.51079393
 H      8   6   5     1.093692428456   119.38580790   180.06801841
 H     10   7   5     1.093526666315   119.33723656   179.92950031
 H     12  10   7     1.093367772529   120.24548514   179.79123868
 C      2   1   3     2.491845560492   134.45969250   180.80169581
 C     16   2   1     1.397342201070   142.40732260   316.76482489
 C     16   2   1     1.396639996516    95.46253396   155.20620282
 C     17  16   2     1.392651472505   119.78101860   200.96465947
 H     17  16   2     1.091617884904   119.16990405    21.07912941
 C     18  16   2     1.394807766592   119.74787006   166.91442044
 H     18  16   2     1.092887670924   120.41566925   345.97231104
 C     21  18  16     1.394044096842   120.46571817     0.51069929
 H     19  17  16     1.093693078832   119.38580273   180.06802710
 H     21  18  16     1.093526666315   119.33723388   179.92956754
 H     23  21  18     1.093367772529   120.24547183   179.79129598
 C      1   2   3     2.289998591097    72.85753512   179.10760903
 N     27   1   2     1.361204846406    34.21079984   180.21695094
 N     27   1   2     1.361204856013    68.49558986     0.13114217

---------------------------
INTERNAL COORDINATES (A.U.)
---------------------------
 C      0   0   0     0.000000000000     0.00000000     0.00000000
 C      1   0   0     2.551031856169     0.00000000     0.00000000
 H      1   2   0     2.055511830514   130.37004707     0.00000000
 H      2   1   3     2.055511857129   130.37004668     1.78477251
 C      1   2   3     4.708904348584   134.45970869   179.01689573
 C      5   1   2     2.640594490720   142.40734703   316.76508638
 C      5   1   2     2.639265810331    95.46258098   155.20633882
 C      6   5   1     2.631732263225   119.78102639   200.96453029
 H      6   5   1     2.062858060184   119.16992630    21.07895700
 C      7   5   1     2.635802317630   119.74794933   166.91446025
 H      7   5   1     2.065260860664   120.41561116   345.97231574
 C     10   7   5     2.634361651706   120.46572798     0.51079393
 H      8   6   5     2.066779164525   119.38580790   180.06801841
 H     10   7   5     2.066465919475   119.33723656   179.92950031
 H     12  10   7     2.066165653735   120.24548514   179.79123868
 C      2   1   3     4.708905677358   134.45969250   180.80169581
 C     16   2   1     2.640594075393   142.40732260   316.76482489
 C     16   2   1     2.639267101095    95.46253396   155.20620282
 C     17  16   2     2.631729883036   119.78101860   200.96465947
 H     17  16   2     2.062858845359   119.16990405    21.07912941
 C     18  16   2     2.635804688326   119.74787006   166.91442044
 H     18  16   2     2.065258393185   120.41566925   345.97231104
 C     21  18  16     2.634361561642   120.46571817     0.51069929
 H     19  17  16     2.066780393558   119.38580273   180.06802710
 H     21  18  16     2.066465919475   119.33723388   179.92956754
 H     23  21  18     2.066165653735   120.24547183   179.79129598
 C      1   2   3     4.327470184238    72.85753512   179.10760903
 N     27   1   2     2.572304371873    34.21079984   180.21695094
 N     27   1   2     2.572304390029    68.49558986     0.13114217

---------------------
BASIS SET INFORMATION
---------------------
There are 3 groups of distinct atoms

 Group   1 Type C   : 7s4p1d contracted to 3s2p1d pattern {511/31/1}
 Group   2 Type H   : 4s1p contracted to 2s1p pattern {31/1}
 Group   3 Type N   : 7s4p1d contracted to 3s2p1d pattern {511/31/1}

Atom   0C    basis set group =>   1
Atom   1C    basis set group =>   1
Atom   2H    basis set group =>   2
Atom   3H    basis set group =>   2
Atom   4C    basis set group =>   1
Atom   5C    basis set group =>   1
Atom   6C    basis set group =>   1
Atom   7C    basis set group =>   1
Atom   8H    basis set group =>   2
Atom   9C    basis set group =>   1
Atom  10H    basis set group =>   2
Atom  11C    basis set group =>   1
Atom  12H    basis set group =>   2
Atom  13H    basis set group =>   2
Atom  14H    basis set group =>   2
Atom  15C    basis set group =>   1
Atom  16C    basis set group =>   1
Atom  17C    basis set group =>   1
Atom  18C    basis set group =>   1
Atom  19H    basis set group =>   2
Atom  20C    basis set group =>   1
Atom  21H    basis set group =>   2
Atom  22C    basis set group =>   1
Atom  23H    basis set group =>   2
Atom  24H    basis set group =>   2
Atom  25H    basis set group =>   2
Atom  26C    basis set group =>   1
Atom  27N    basis set group =>   3
Atom  28N    basis set group =>   3
---------------------------------
AUXILIARY/J BASIS SET INFORMATION
---------------------------------
There are 3 groups of distinct atoms

 Group   1 Type C   : 12s5p4d2f1g contracted to 6s4p3d1f1g pattern {711111/2111/211/2/1}
 Group   2 Type H   : 5s2p1d contracted to 3s1p1d pattern {311/2/1}
 Group   3 Type N   : 12s5p4d2f1g contracted to 6s4p3d1f1g pattern {711111/2111/211/2/1}

Atom   0C    basis set group =>   1
Atom   1C    basis set group =>   1
Atom   2H    basis set group =>   2
Atom   3H    basis set group =>   2
Atom   4C    basis set group =>   1
Atom   5C    basis set group =>   1
Atom   6C    basis set group =>   1
Atom   7C    basis set group =>   1
Atom   8H    basis set group =>   2
Atom   9C    basis set group =>   1
Atom  10H    basis set group =>   2
Atom  11C    basis set group =>   1
Atom  12H    basis set group =>   2
Atom  13H    basis set group =>   2
Atom  14H    basis set group =>   2
Atom  15C    basis set group =>   1
Atom  16C    basis set group =>   1
Atom  17C    basis set group =>   1
Atom  18C    basis set group =>   1
Atom  19H    basis set group =>   2
Atom  20C    basis set group =>   1
Atom  21H    basis set group =>   2
Atom  22C    basis set group =>   1
Atom  23H    basis set group =>   2
Atom  24H    basis set group =>   2
Atom  25H    basis set group =>   2
Atom  26C    basis set group =>   1
Atom  27N    basis set group =>   3
Atom  28N    basis set group =>   3
------------------------------------------------------------------------------
                           ORCA GTO INTEGRAL CALCULATION
                           -- RI-GTO INTEGRALS CHOSEN --
------------------------------------------------------------------------------
------------------------------------------------------------------------------
                   ___                                                        
                  /   \      - P O W E R E D   B Y -                         
                 /     \                                                     
                 |  |  |   _    _      __       _____    __    __             
                 |  |  |  | |  | |    /  \     |  _  \  |  |  /  |          
                  \  \/   | |  | |   /    \    | | | |  |  | /  /          
                 / \  \   | |__| |  /  /\  \   | |_| |  |  |/  /          
                |  |  |   |  __  | /  /__\  \  |    /   |      \           
                |  |  |   | |  | | |   __   |  |    \   |  |\   \          
                \     /   | |  | | |  |  |  |  | |\  \  |  | \   \       
                 \___/    |_|  |_| |__|  |__|  |_| \__\ |__|  \__/        
                                                                              
                      - O R C A' S   B I G   F R I E N D -                    
                                      &                                       
                       - I N T E G R A L  F E E D E R -                       
                                                                              
 v1 FN, 2020, v2 2021                                                         
------------------------------------------------------------------------------


Reading SHARK input file 7.SHARKINP.tmp ... ok
----------------------
SHARK INTEGRAL PACKAGE
----------------------

Number of atoms                             ...     29
Number of basis functions                   ...    298
Number of shells                            ...    138
Maximum angular momentum                    ...      2
Integral batch strategy                     ... SHARK/LIBINT Hybrid
RI-J (if used) integral strategy            ... SPLIT-RIJ (Revised 2003 algorithm where possible)
Printlevel                                  ...      1
Contraction scheme used                     ... SEGMENTED contraction
Coulomb Range Separation                    ... NOT USED
Exchange Range Separation                   ... Long Range
   Mu parameter                             ...  0.300000
   Scaling (regular/separated)              ...  0.157706  0.842294
Finite Nucleus Model                        ... NOT USED
Auxiliary Coulomb fitting basis             ... AVAILABLE
   # of basis functions in Aux-J            ...    965
   # of shells in Aux-J                     ...    315
   Maximum angular momentum in Aux-J        ...      4
Auxiliary J/K fitting basis                 ... NOT available
Auxiliary Correlation fitting basis         ... NOT available
Auxiliary 'external' fitting basis          ... NOT available
Integral threshold                          ...     2.500000e-11
Primitive cut-off                           ...     2.500000e-12
Primitive pair pre-selection threshold      ...     2.500000e-12

Calculating pre-screening integrals         ... done (  0.1 sec) Dimension = 138
Organizing shell pair data                  ... done (  0.1 sec)
Shell pair information
Total number of shell pairs                 ...      9591
Shell pairs after pre-screening             ...      7184
Total number of primitive shell pairs       ...     35237
Primitive shell pairs kept                  ...     17514
          la=0 lb=0:   2161 shell pairs
          la=1 lb=0:   2634 shell pairs
          la=1 lb=1:    846 shell pairs
          la=2 lb=0:    887 shell pairs
          la=2 lb=1:    556 shell pairs
          la=2 lb=2:    100 shell pairs

Calculating one electron integrals          ... done (  0.1 sec)
Calculating RI/J V-Matrix + Cholesky decomp.... done (  0.1 sec)
Calculating Nuclear repulsion               ... done (  0.0 sec) ENN=   1037.456880501172 Eh

SHARK setup successfully completed in   0.4 seconds

Maximum memory used throughout the entire GTOINT-calculation: 50.4 MB
-------------------------------------------------------------------------------
                                 ORCA SCF
-------------------------------------------------------------------------------

------------
SCF SETTINGS
------------
Hamiltonian:
 Density Functional     Method          .... DFT(GTOs)
 Exchange Functional    Exchange        .... WB97X
 Correlation Functional Correlation     .... WB97X
 Gradients option       PostSCFGGA      .... off
 Hybrid DFT is turned on
   Fraction HF Exchange ScalHFX         ....  0.157706
   Scaling of DF-GGA-X  ScalDFX         ....  0.000000
   Scaling of DF-GGA-C  ScalDFC         ....  1.000000
   Scaling of DF-LDA-C  ScalLDAC        ....  1.000000
   Perturbative correction              ....  0.000000
   Density functional embedding theory  .... OFF
 Long-range corrected/Screened/Range-Separated Hybrid DFT is turned on
   Amount of maximum screened exact exchange              ....  0.842294
   Range separation parameter mu (erf(mu*r12)/r12)        ....  0.300000
 RI-approximation to the Coulomb term is turned on
   Number of AuxJ basis functions       .... 965
   RIJ-COSX (HFX calculated with COS-X)).... on


General Settings:
 Integral files         IntName         .... 7
 Hartree-Fock type      HFTyp           .... RHF
 Total Charge           Charge          ....    0
 Multiplicity           Mult            ....    1
 Number of Electrons    NEL             ....  116
 Basis Dimension        Dim             ....  298
 Nuclear Repulsion      ENuc            ....   1037.4568805012 Eh

Convergence Acceleration:
 DIIS                   CNVDIIS         .... on
   Start iteration      DIISMaxIt       ....     0
   Startup error        DIISStart       ....  0.200000
   # of expansion vecs  DIISMaxEq       ....     5
   Bias factor          DIISBfac        ....   1.050
   Max. coefficient     DIISMaxC        ....  10.000
 Trust-Rad. Augm. Hess. CNVTRAH         .... auto
   Auto Start mean grad. ratio tolernc. ....  1.125000
   Auto Start start iteration           ....    20
   Auto Start num. interpolation iter.  ....    10
   Max. Number of Micro iterations      ....    16
   Max. Number of Macro iterations      .... Maxiter - #DIIS iter
   Number of Davidson start vectors     ....     2
   Converg. threshold I  (grad. norm)   ....   1.000e-05
   Converg. threshold II (energy diff.) ....   1.000e-08
   Grad. Scal. Fac. for Micro threshold ....   0.100
   Minimum threshold for Micro iter.    ....   0.010
   NR start threshold (gradient norm)   ....   0.001
   Initial trust radius                 ....   0.400
   Minimum AH scaling param. (alpha)    ....   1.000
   Maximum AH scaling param. (alpha)    .... 1000.000
   Orbital update algorithm             .... Taylor
   White noise on init. David. guess    .... on
   Maximum white noise                  ....   0.010
   Quad. conv. algorithm                .... NR
 SOSCF                  CNVSOSCF        .... on
   Start iteration      SOSCFMaxIt      ....   150
   Startup grad/error   SOSCFStart      ....  0.001000
 Level Shifting         CNVShift        .... on
   Level shift para.    LevelShift      ....    0.2500
   Turn off err/grad.   ShiftErr        ....    0.0000
 Zerner damping         CNVZerner       .... off
 Static damping         CNVDamp         .... on
   Fraction old density DampFac         ....    0.8500
   Max. Damping (<1)    DampMax         ....    0.9800
   Min. Damping (>=0)   DampMin         ....    0.0000
   Turn off err/grad.   DampErr         ....    0.0300
 Fernandez-Rico         CNVRico         .... off

SCF Procedure:
 Maximum # iterations   MaxIter         ....   125
 SCF integral mode      SCFMode         .... Direct
   Integral package                     .... SHARK and LIBINT hybrid scheme
 Reset frequency        DirectResetFreq ....    20
 Integral Threshold     Thresh          ....  2.500e-11 Eh
 Primitive CutOff       TCut            ....  2.500e-12 Eh

Convergence Tolerance:
 Convergence Check Mode ConvCheckMode   .... Total+1el-Energy
 Convergence forced     ConvForced      .... 0
 Energy Change          TolE            ....  1.000e-08 Eh
 1-El. energy change                    ....  1.000e-05 Eh
 Orbital Gradient       TolG            ....  1.000e-05
 Orbital Rotation angle TolX            ....  1.000e-05
 DIIS Error             TolErr          ....  5.000e-07


Diagonalization of the overlap matrix:
Smallest eigenvalue                        ... 2.784e-04
Time for diagonalization                   ...    0.015 sec
Threshold for overlap eigenvalues          ... 1.000e-08
Number of eigenvalues below threshold      ... 0
Time for construction of square roots      ...    0.007 sec
Total time needed                          ...    0.023 sec

Time for model grid setup =    0.840 sec

------------------------------
INITIAL GUESS: MODEL POTENTIAL
------------------------------
Loading Hartree-Fock densities                     ... done
Calculating cut-offs                               ... done
Initializing the effective Hamiltonian             ... done
Setting up the integral package (SHARK)            ... done
Starting the Coulomb interaction                   ... done (   0.7 sec)
Reading the grid                                   ... done
Mapping shells                                     ... done
Starting the XC term evaluation                    ... done (   0.7 sec)
  promolecular density results
     # of electrons  =    115.994086678
     EX              =    -93.339977286
     EC              =     -3.875598950
     EX+EC           =    -97.215576236
Transforming the Hamiltonian                       ... done (   0.0 sec)
Diagonalizing the Hamiltonian                      ... done (   0.0 sec)
Back transforming the eigenvectors                 ... done (   0.0 sec)
Now organizing SCF variables                       ... done
                      ------------------
                      INITIAL GUESS DONE (   2.3 sec)
                      ------------------
-------------------
DFT GRID GENERATION
-------------------

General Integration Accuracy     IntAcc      ... 4.388
Radial Grid Type                 RadialGrid  ... OptM3 with GC (2021)
Angular Grid (max. ang.)         AngularGrid ... 4 (Lebedev-302)
Angular grid pruning method      GridPruning ... 4 (adaptive)
Weight generation scheme         WeightScheme... Becke
Basis function cutoff            BFCut       ... 1.0000e-11
Integration weight cutoff        WCut        ... 1.0000e-14
Angular grids for H and He will be reduced by one unit
Partially contracted basis set               ... off
Rotationally invariant grid construction     ... off

Total number of grid points                  ...   140405
Total number of batches                      ...     2206
Average number of points per batch           ...       63
Average number of grid points per atom       ...     4842
Time for grid setup =    2.623 sec

--------------------
COSX GRID GENERATION
--------------------

GRIDX 1
-------
General Integration Accuracy     IntAcc      ... 3.816
Radial Grid Type                 RadialGrid  ... OptM3 with GC (2021)
Angular Grid (max. ang.)         AngularGrid ... 1 (Lebedev-50)
Angular grid pruning method      GridPruning ... 4 (adaptive)
Weight generation scheme         WeightScheme... Becke
Basis function cutoff            BFCut       ... 1.0000e-11
Integration weight cutoff        WCut        ... 1.0000e-14
Angular grids for H and He will be reduced by one unit
Partially contracted basis set               ... on
Rotationally invariant grid construction     ... off

Total number of grid points                  ...    17907
Total number of batches                      ...      291
Average number of points per batch           ...       61
Average number of grid points per atom       ...      617
UseSFitting                                  ... on

GRIDX 2
-------
General Integration Accuracy     IntAcc      ... 4.020
Radial Grid Type                 RadialGrid  ... OptM3 with GC (2021)
Angular Grid (max. ang.)         AngularGrid ... 2 (Lebedev-110)
Angular grid pruning method      GridPruning ... 4 (adaptive)
Weight generation scheme         WeightScheme... Becke
Basis function cutoff            BFCut       ... 1.0000e-11
Integration weight cutoff        WCut        ... 1.0000e-14
Angular grids for H and He will be reduced by one unit
Partially contracted basis set               ... on
Rotationally invariant grid construction     ... off

Total number of grid points                  ...    39181
Total number of batches                      ...      626
Average number of points per batch           ...       62
Average number of grid points per atom       ...     1351
UseSFitting                                  ... on

GRIDX 3
-------
General Integration Accuracy     IntAcc      ... 4.338
Radial Grid Type                 RadialGrid  ... OptM3 with GC (2021)
Angular Grid (max. ang.)         AngularGrid ... 3 (Lebedev-194)
Angular grid pruning method      GridPruning ... 4 (adaptive)
Weight generation scheme         WeightScheme... Becke
Basis function cutoff            BFCut       ... 1.0000e-11
Integration weight cutoff        WCut        ... 1.0000e-14
Angular grids for H and He will be reduced by one unit
Partially contracted basis set               ... on
Rotationally invariant grid construction     ... off

Total number of grid points                  ...    86009
Total number of batches                      ...     1360
Average number of points per batch           ...       63
Average number of grid points per atom       ...     2966
UseSFitting                                  ... on

Time for X-Grid setup             =    3.298 sec

--------------
SCF ITERATIONS
--------------
ITER       Energy         Delta-E        Max-DP      RMS-DP      [F,P]     Damp
               ***  Starting incremental Fock matrix formation  ***
  0   -687.3398171584   0.000000000000 0.03429304  0.00078601  0.1149518 0.8500
  1   -687.3925177036  -0.052700545191 0.03757228  0.00075476  0.0917340 0.8500
                               ***Turning on DIIS***
  2   -687.4333829837  -0.040865280155 0.03350923  0.00063083  0.0691935 0.8500
  3   -687.4642351816  -0.030852197865 0.02774977  0.00048457  0.0512769 0.8500
  4   -687.4883146774  -0.024079495827 0.02304914  0.00038467  0.0402552 0.8500
  5   -687.5074443828  -0.019129705366 0.01944321  0.00031791  0.0333144 0.8500
  6   -687.5230564296  -0.015612046815 0.11042935  0.00178763  0.0280839 0.0000
  7   -687.6053692791  -0.082312849470 0.00194404  0.00005602  0.0012875 0.0000
                      *** Initiating the SOSCF procedure ***
                           *** Shutting down DIIS ***
                      *** Re-Reading the Fockian *** 
                      *** Removing any level shift *** 
ITER      Energy       Delta-E        Grad      Rot      Max-DP    RMS-DP
  8   -687.60542969  -0.0000604071  0.000862  0.000862  0.001836  0.000028
               *** Restarting incremental Fock matrix formation ***
  9   -687.60535916   0.0000705239  0.000567  0.001222  0.000930  0.000022
 10   -687.60536446  -0.0000053019  0.000172  0.000883  0.000582  0.000018
 11   -687.60536584  -0.0000013767  0.000084  0.000158  0.000301  0.000006
 12   -687.60536610  -0.0000002639  0.000014  0.000040  0.000120  0.000001
 13   -687.60536612  -0.0000000161  0.000007  0.000017  0.000032  0.000000
                  ***Gradient check signals convergence***
              ***Rediagonalizing the Fockian in SOSCF/NRSCF***

               *****************************************************
               *                     SUCCESS                       *
               *           SCF CONVERGED AFTER  14 CYCLES          *
               *****************************************************

Old exchange energy                            =    -30.241419761 Eh
New exchange energy                            =    -30.241458366 Eh
Exchange energy change after final integration =     -0.000038606 Eh
Total energy after final integration           =   -687.605404740 Eh
Final COS-X integration done in                =    88.802 sec

----------------
TOTAL SCF ENERGY
----------------

Total Energy       :         -687.60540474 Eh          -18710.69430 eV

Components:
Nuclear Repulsion  :         1037.45688050 Eh           28230.63694 eV
Electronic Energy  :        -1725.06228524 Eh          -46941.33123 eV
One Electron Energy:        -2986.23946105 Eh          -81259.70690 eV
Two Electron Energy:         1261.17717581 Eh           34318.37567 eV
Max COSX asymmetry :            0.00000250 Eh               0.00007 eV

Virial components:
Potential Energy   :        -1367.42190278 Eh          -37209.44167 eV
Kinetic Energy     :          679.81649804 Eh           18498.74737 eV
Virial Ratio       :            2.01145737


DFT components:
N(Alpha)           :       58.000031393311 electrons
N(Beta)            :       58.000031393311 electrons
N(Total)           :      116.000062786621 electrons
E(XC)              :      -69.096241560037 Eh       
DFET-embed. en.    :        0.000000000000 Eh       

---------------
SCF CONVERGENCE
---------------

  Last Energy change         ...   -1.3187e-08  Tolerance :   1.0000e-08
  Last MAX-Density change    ...    3.1086e-15  Tolerance :   1.0000e-07
  Last RMS-Density change    ...    3.1794e-17  Tolerance :   5.0000e-09
  Last Orbital Gradient      ...    1.6811e-06  Tolerance :   1.0000e-05
  Last Orbital Rotation      ...    6.4627e-06  Tolerance :   1.0000e-05

             **** THE GBW FILE WAS UPDATED (7.gbw) ****
             **** DENSITY 7.scfp WAS UPDATED ****
             **** ENERGY FILE WAS UPDATED (7.en.tmp) ****
             **** THE GBW FILE WAS UPDATED (7.gbw) ****
             **** DENSITY 7.scfp WAS UPDATED ****
----------------
ORBITAL ENERGIES
----------------

  NO   OCC          E(Eh)            E(eV) 
   0   2.0000     -14.464514      -393.5994 
   1   2.0000     -14.464512      -393.5994 
   2   2.0000     -10.321951      -280.8746 
   3   2.0000     -10.321897      -280.8731 
   4   2.0000     -10.309979      -280.5488 
   5   2.0000     -10.309369      -280.5322 
   6   2.0000     -10.283799      -279.8364 
   7   2.0000     -10.283799      -279.8364 
   8   2.0000     -10.283676      -279.8330 
   9   2.0000     -10.282985      -279.8142 
  10   2.0000     -10.282983      -279.8142 
  11   2.0000     -10.280352      -279.7426 
  12   2.0000     -10.280349      -279.7425 
  13   2.0000     -10.277994      -279.6784 
  14   2.0000     -10.277994      -279.6784 
  15   2.0000     -10.275785      -279.6183 
  16   2.0000     -10.275783      -279.6183 
  17   2.0000      -1.162225       -31.6258 
  18   2.0000      -1.061876       -28.8951 
  19   2.0000      -0.992737       -27.0137 
  20   2.0000      -0.974603       -26.5203 
  21   2.0000      -0.908906       -24.7326 
  22   2.0000      -0.881287       -23.9810 
  23   2.0000      -0.875819       -23.8322 
  24   2.0000      -0.863239       -23.4899 
  25   2.0000      -0.857561       -23.3354 
  26   2.0000      -0.778844       -21.1934 
  27   2.0000      -0.759556       -20.6686 
  28   2.0000      -0.729592       -19.8532 
  29   2.0000      -0.722616       -19.6634 
  30   2.0000      -0.694221       -18.8907 
  31   2.0000      -0.684024       -18.6132 
  32   2.0000      -0.663569       -18.0566 
  33   2.0000      -0.638981       -17.3876 
  34   2.0000      -0.608143       -16.5484 
  35   2.0000      -0.591745       -16.1022 
  36   2.0000      -0.583075       -15.8663 
  37   2.0000      -0.575997       -15.6737 
  38   2.0000      -0.566685       -15.4203 
  39   2.0000      -0.563020       -15.3205 
  40   2.0000      -0.546205       -14.8630 
  41   2.0000      -0.537140       -14.6163 
  42   2.0000      -0.534564       -14.5462 
  43   2.0000      -0.531609       -14.4658 
  44   2.0000      -0.529817       -14.4170 
  45   2.0000      -0.505056       -13.7433 
  46   2.0000      -0.485406       -13.2086 
  47   2.0000      -0.469377       -12.7724 
  48   2.0000      -0.464262       -12.6332 
  49   2.0000      -0.455564       -12.3965 
  50   2.0000      -0.449909       -12.2426 
  51   2.0000      -0.431957       -11.7542 
  52   2.0000      -0.367052        -9.9880 
  53   2.0000      -0.354194        -9.6381 
  54   2.0000      -0.353641        -9.6231 
  55   2.0000      -0.324531        -8.8309 
  56   2.0000      -0.322227        -8.7682 
  57   2.0000      -0.316670        -8.6170 
  58   0.0000       0.055099         1.4993 
  59   0.0000       0.062204         1.6927 
  60   0.0000       0.068078         1.8525 
  61   0.0000       0.071629         1.9491 
  62   0.0000       0.121971         3.3190 
  63   0.0000       0.141600         3.8531 
  64   0.0000       0.152216         4.1420 
  65   0.0000       0.152837         4.1589 
  66   0.0000       0.169606         4.6152 
  67   0.0000       0.181176         4.9300 
  68   0.0000       0.199586         5.4310 
  69   0.0000       0.206281         5.6132 
  70   0.0000       0.216002         5.8777 
  71   0.0000       0.224322         6.1041 
  72   0.0000       0.240838         6.5535 
  73   0.0000       0.250826         6.8253 
  74   0.0000       0.251399         6.8409 
  75   0.0000       0.254079         6.9138 
  76   0.0000       0.262634         7.1466 
  77   0.0000       0.266462         7.2508 
  78   0.0000       0.269490         7.3332 
  79   0.0000       0.298493         8.1224 
  80   0.0000       0.316696         8.6177 
  81   0.0000       0.333607         9.0779 
  82   0.0000       0.344509         9.3746 
  83   0.0000       0.369082        10.0432 
  84   0.0000       0.378081        10.2881 
  85   0.0000       0.378854        10.3091 
  86   0.0000       0.384175        10.4539 
  87   0.0000       0.395830        10.7711 
  88   0.0000       0.397411        10.8141 
  89   0.0000       0.411383        11.1943 
  90   0.0000       0.426327        11.6009 
  91   0.0000       0.445514        12.1230 
  92   0.0000       0.446261        12.1434 
  93   0.0000       0.454686        12.3726 
  94   0.0000       0.471303        12.8248 
  95   0.0000       0.474905        12.9228 
  96   0.0000       0.496482        13.5100 
  97   0.0000       0.499949        13.6043 
  98   0.0000       0.504938        13.7400 
  99   0.0000       0.508172        13.8281 
 100   0.0000       0.509123        13.8539 
 101   0.0000       0.523683        14.2501 
 102   0.0000       0.542246        14.7553 
 103   0.0000       0.546835        14.8801 
 104   0.0000       0.558858        15.2073 
 105   0.0000       0.574423        15.6308 
 106   0.0000       0.585265        15.9259 
 107   0.0000       0.585812        15.9408 
 108   0.0000       0.587498        15.9866 
 109   0.0000       0.594984        16.1903 
 110   0.0000       0.601298        16.3622 
 111   0.0000       0.601720        16.3736 
 112   0.0000       0.606487        16.5033 
 113   0.0000       0.632565        17.2130 
 114   0.0000       0.634715        17.2715 
 115   0.0000       0.644261        17.5312 
 116   0.0000       0.649140        17.6640 
 117   0.0000       0.655039        17.8245 
 118   0.0000       0.659130        17.9358 
 119   0.0000       0.680176        18.5085 
 120   0.0000       0.683748        18.6057 
 121   0.0000       0.686504        18.6807 
 122   0.0000       0.696807        18.9611 
 123   0.0000       0.719305        19.5733 
 124   0.0000       0.733059        19.9475 
 125   0.0000       0.744861        20.2687 
 126   0.0000       0.751008        20.4360 
 127   0.0000       0.751857        20.4591 
 128   0.0000       0.754224        20.5235 
 129   0.0000       0.757808        20.6210 
 130   0.0000       0.763717        20.7818 
 131   0.0000       0.766677        20.8624 
 132   0.0000       0.779682        21.2162 
 133   0.0000       0.779728        21.2175 
 134   0.0000       0.783207        21.3122 
 135   0.0000       0.801056        21.7979 
 136   0.0000       0.809194        22.0193 
 137   0.0000       0.819073        22.2881 
 138   0.0000       0.819260        22.2932 
 139   0.0000       0.832453        22.6522 
 140   0.0000       0.834925        22.7195 
 141   0.0000       0.839628        22.8474 
 142   0.0000       0.842162        22.9164 
 143   0.0000       0.853373        23.2215 
 144   0.0000       0.853409        23.2224 
 145   0.0000       0.878033        23.8925 
 146   0.0000       0.880996        23.9731 
 147   0.0000       0.901492        24.5309 
 148   0.0000       0.909848        24.7582 
 149   0.0000       0.926296        25.2058 
 150   0.0000       0.934554        25.4305 
 151   0.0000       0.948081        25.7986 
 152   0.0000       0.957665        26.0594 
 153   0.0000       0.971442        26.4343 
 154   0.0000       1.013491        27.5785 
 155   0.0000       1.036836        28.2137 
 156   0.0000       1.040481        28.3129 
 157   0.0000       1.041694        28.3459 
 158   0.0000       1.070113        29.1193 
 159   0.0000       1.083723        29.4896 
 160   0.0000       1.106720        30.1154 
 161   0.0000       1.127445        30.6793 
 162   0.0000       1.170033        31.8382 
 163   0.0000       1.181917        32.1616 
 164   0.0000       1.184777        32.2394 
 165   0.0000       1.269293        34.5392 
 166   0.0000       1.276450        34.7340 
 167   0.0000       1.290904        35.1273 
 168   0.0000       1.307600        35.5816 
 169   0.0000       1.307898        35.5897 
 170   0.0000       1.319899        35.9163 
 171   0.0000       1.335549        36.3421 
 172   0.0000       1.342382        36.5281 
 173   0.0000       1.345151        36.6034 
 174   0.0000       1.358121        36.9563 
 175   0.0000       1.359147        36.9843 
 176   0.0000       1.366772        37.1917 
 177   0.0000       1.370006        37.2798 
 178   0.0000       1.381945        37.6046 
 179   0.0000       1.384720        37.6801 
 180   0.0000       1.406704        38.2783 
 181   0.0000       1.407735        38.3064 
 182   0.0000       1.407849        38.3095 
 183   0.0000       1.411268        38.4025 
 184   0.0000       1.424991        38.7760 
 185   0.0000       1.514230        41.2043 
 186   0.0000       1.576602        42.9015 
 187   0.0000       1.591061        43.2950 
 188   0.0000       1.599522        43.5252 
 189   0.0000       1.641062        44.6556 
 190   0.0000       1.677566        45.6489 
 191   0.0000       1.687477        45.9186 
 192   0.0000       1.725697        46.9586 
 193   0.0000       1.762586        47.9624 
 194   0.0000       1.773531        48.2602 
 195   0.0000       1.776945        48.3531 
 196   0.0000       1.783176        48.5227 
 197   0.0000       1.788356        48.6636 
 198   0.0000       1.804866        49.1129 
 199   0.0000       1.817956        49.4691 
 200   0.0000       1.836732        49.9800 
 201   0.0000       1.849041        50.3150 
 202   0.0000       1.853423        50.4342 
 203   0.0000       1.856227        50.5105 
 204   0.0000       1.858041        50.5599 
 205   0.0000       1.858368        50.5688 
 206   0.0000       1.869575        50.8737 
 207   0.0000       1.876570        51.0641 
 208   0.0000       1.884376        51.2765 
 209   0.0000       1.885755        51.3140 
 210   0.0000       1.889677        51.4207 
 211   0.0000       1.891675        51.4751 
 212   0.0000       1.899851        51.6976 
 213   0.0000       1.904807        51.8324 
 214   0.0000       1.935911        52.6788 
 215   0.0000       1.938180        52.7406 
 216   0.0000       1.950623        53.0791 
 217   0.0000       1.998840        54.3912 
 218   0.0000       2.001983        54.4767 
 219   0.0000       2.004801        54.5534 
 220   0.0000       2.039788        55.5055 
 221   0.0000       2.045010        55.6475 
 222   0.0000       2.053465        55.8776 
 223   0.0000       2.066778        56.2399 
 224   0.0000       2.086613        56.7796 
 225   0.0000       2.086982        56.7897 
 226   0.0000       2.087451        56.8024 
 227   0.0000       2.091394        56.9097 
 228   0.0000       2.103128        57.2290 
 229   0.0000       2.117690        57.6253 
 230   0.0000       2.122023        57.7432 
 231   0.0000       2.124756        57.8175 
 232   0.0000       2.178768        59.2873 
 233   0.0000       2.195942        59.7546 
 234   0.0000       2.215155        60.2774 
 235   0.0000       2.215621        60.2901 
 236   0.0000       2.231211        60.7143 
 237   0.0000       2.245235        61.0959 
 238   0.0000       2.249510        61.2123 
 239   0.0000       2.259304        61.4788 
 240   0.0000       2.260413        61.5090 
 241   0.0000       2.292442        62.3805 
 242   0.0000       2.303492        62.6812 
 243   0.0000       2.331694        63.4486 
 244   0.0000       2.351760        63.9947 
 245   0.0000       2.353604        64.0448 
 246   0.0000       2.386874        64.9502 
 247   0.0000       2.394433        65.1558 
 248   0.0000       2.401107        65.3374 
 249   0.0000       2.408960        65.5511 
 250   0.0000       2.417048        65.7712 
 251   0.0000       2.418424        65.8087 
 252   0.0000       2.443245        66.4841 
 253   0.0000       2.448893        66.6378 
 254   0.0000       2.451282        66.7028 
 255   0.0000       2.452779        66.7435 
 256   0.0000       2.483860        67.5893 
 257   0.0000       2.492803        67.8326 
 258   0.0000       2.498621        67.9909 
 259   0.0000       2.585239        70.3479 
 260   0.0000       2.619264        71.2738 
 261   0.0000       2.619998        71.2938 
 262   0.0000       2.693629        73.2974 
 263   0.0000       2.701411        73.5091 
 264   0.0000       2.703925        73.5775 
 265   0.0000       2.713976        73.8510 
 266   0.0000       2.735403        74.4341 
 267   0.0000       2.749784        74.8254 
 268   0.0000       2.765821        75.2618 
 269   0.0000       2.776066        75.5406 
 270   0.0000       2.811887        76.5153 
 271   0.0000       2.830499        77.0218 
 272   0.0000       2.832651        77.0803 
 273   0.0000       2.838699        77.2449 
 274   0.0000       2.838945        77.2516 
 275   0.0000       2.850826        77.5749 
 276   0.0000       2.852456        77.6193 
 277   0.0000       2.906495        79.0897 
 278   0.0000       2.933483        79.8241 
 279   0.0000       2.941241        80.0352 
 280   0.0000       2.969855        80.8139 
 281   0.0000       2.984635        81.2161 
 282   0.0000       2.987739        81.3005 
 283   0.0000       2.989931        81.3602 
 284   0.0000       2.997476        81.5655 
 285   0.0000       3.072979        83.6200 
 286   0.0000       3.109838        84.6230 
 287   0.0000       3.175614        86.4128 
 288   0.0000       3.177892        86.4748 
 289   0.0000       3.213756        87.4507 
 290   0.0000       3.258128        88.6582 
 291   0.0000       3.288517        89.4851 
 292   0.0000       3.378008        91.9203 
 293   0.0000       3.470159        94.4278 
 294   0.0000       3.506399        95.4140 
 295   0.0000       3.629772        98.7711 
 296   0.0000       3.773711       102.6879 
 297   0.0000       3.787291       103.0574 

                    ********************************
                    * MULLIKEN POPULATION ANALYSIS *
                    ********************************

-----------------------
MULLIKEN ATOMIC CHARGES
-----------------------
   0 C :    0.047182
   1 C :    0.047183
   2 H :    0.043908
   3 H :    0.043908
   4 C :    0.166663
   5 C :   -0.016690
   6 C :   -0.061325
   7 C :   -0.012004
   8 H :    0.025702
   9 C :   -0.013124
  10 H :    0.002325
  11 C :   -0.003224
  12 H :    0.020279
  13 H :    0.016847
  14 H :    0.016095
  15 C :    0.166656
  16 C :   -0.016684
  17 C :   -0.061319
  18 C :   -0.012006
  19 H :    0.025702
  20 C :   -0.013127
  21 H :    0.002326
  22 C :   -0.003224
  23 H :    0.020280
  24 H :    0.016847
  25 H :    0.016095
  26 C :   -0.074696
  27 N :   -0.195289
  28 N :   -0.195288
Sum of atomic charges:   -0.0000000

--------------------------------
MULLIKEN REDUCED ORBITAL CHARGES
--------------------------------
  0 C s       :     3.120503  s :     3.120503
      pz      :     0.794858  p :     2.785168
      px      :     1.072175
      py      :     0.918134
      dz2     :     0.014280  d :     0.047147
      dxz     :     0.007373
      dyz     :     0.012613
      dx2y2   :     0.004805
      dxy     :     0.008075
  1 C s       :     3.120502  s :     3.120502
      pz      :     0.794859  p :     2.785169
      px      :     1.072175
      py      :     0.918134
      dz2     :     0.014280  d :     0.047147
      dxz     :     0.007373
      dyz     :     0.012613
      dx2y2   :     0.004805
      dxy     :     0.008075
  2 H s       :     0.931819  s :     0.931819
      pz      :     0.010476  p :     0.024273
      px      :     0.005444
      py      :     0.008353
  3 H s       :     0.931819  s :     0.931819
      pz      :     0.010476  p :     0.024273
      px      :     0.005444
      py      :     0.008353
  4 C s       :     2.965620  s :     2.965620
      pz      :     0.984950  p :     2.811849
      px      :     0.981549
      py      :     0.845349
      dz2     :     0.011141  d :     0.055869
      dxz     :     0.006685
      dyz     :     0.014156
      dx2y2   :     0.011825
      dxy     :     0.012061
  5 C s       :     3.226574  s :     3.226574
      pz      :     0.946969  p :     2.757103
      px      :     0.958981
      py      :     0.851153
      dz2     :     0.007718  d :     0.033012
      dxz     :     0.004944
      dyz     :     0.008990
      dx2y2   :     0.005274
      dxy     :     0.006088
  6 C s       :     3.211561  s :     3.211561
      pz      :     0.885250  p :     2.816562
      px      :     0.981690
      py      :     0.949621
      dz2     :     0.006114  d :     0.033202
      dxz     :     0.003557
      dyz     :     0.009780
      dx2y2   :     0.006064
      dxy     :     0.007688
  7 C s       :     3.145803  s :     3.145803
      pz      :     0.913296  p :     2.831068
      px      :     0.961773
      py      :     0.955998
      dz2     :     0.007045  d :     0.035133
      dxz     :     0.003929
      dyz     :     0.009789
      dx2y2   :     0.006772
      dxy     :     0.007597
  8 H s       :     0.950363  s :     0.950363
      pz      :     0.007107  p :     0.023934
      px      :     0.005825
      py      :     0.011002
  9 C s       :     3.143693  s :     3.143693
      pz      :     0.942983  p :     2.834291
      px      :     0.964868
      py      :     0.926441
      dz2     :     0.007586  d :     0.035139
      dxz     :     0.005024
      dyz     :     0.010667
      dx2y2   :     0.005321
      dxy     :     0.006541
 10 H s       :     0.974293  s :     0.974293
      pz      :     0.012899  p :     0.023382
      px      :     0.006814
      py      :     0.003668
 11 C s       :     3.140619  s :     3.140619
      pz      :     0.957586  p :     2.828063
      px      :     0.988857
      py      :     0.881620
      dz2     :     0.008747  d :     0.034542
      dxz     :     0.005707
      dyz     :     0.009334
      dx2y2   :     0.006219
      dxy     :     0.004535
 12 H s       :     0.956792  s :     0.956792
      pz      :     0.013041  p :     0.022929
      px      :     0.006175
      py      :     0.003713
 13 H s       :     0.960115  s :     0.960115
      pz      :     0.007329  p :     0.023037
      px      :     0.006250
      py      :     0.009458
 14 H s       :     0.960923  s :     0.960923
      pz      :     0.004501  p :     0.022982
      px      :     0.004071
      py      :     0.014410
 15 C s       :     2.965622  s :     2.965622
      pz      :     0.984953  p :     2.811854
      px      :     0.981550
      py      :     0.845351
      dz2     :     0.011141  d :     0.055869
      dxz     :     0.006685
      dyz     :     0.014156
      dx2y2   :     0.011825
      dxy     :     0.012061
 16 C s       :     3.226571  s :     3.226571
      pz      :     0.946970  p :     2.757102
      px      :     0.958980
      py      :     0.851152
      dz2     :     0.007718  d :     0.033012
      dxz     :     0.004944
      dyz     :     0.008990
      dx2y2   :     0.005274
      dxy     :     0.006088
 17 C s       :     3.211555  s :     3.211555
      pz      :     0.885249  p :     2.816562
      px      :     0.981691
      py      :     0.949622
      dz2     :     0.006114  d :     0.033202
      dxz     :     0.003557
      dyz     :     0.009780
      dx2y2   :     0.006064
      dxy     :     0.007688
 18 C s       :     3.145807  s :     3.145807
      pz      :     0.913295  p :     2.831066
      px      :     0.961774
      py      :     0.955997
      dz2     :     0.007045  d :     0.035133
      dxz     :     0.003929
      dyz     :     0.009789
      dx2y2   :     0.006772
      dxy     :     0.007597
 19 H s       :     0.950363  s :     0.950363
      pz      :     0.007107  p :     0.023934
      px      :     0.005825
      py      :     0.011002
 20 C s       :     3.143696  s :     3.143696
      pz      :     0.942982  p :     2.834292
      px      :     0.964867
      py      :     0.926443
      dz2     :     0.007586  d :     0.035139
      dxz     :     0.005024
      dyz     :     0.010667
      dx2y2   :     0.005321
      dxy     :     0.006541
 21 H s       :     0.974293  s :     0.974293
      pz      :     0.012899  p :     0.023382
      px      :     0.006814
      py      :     0.003668
 22 C s       :     3.140619  s :     3.140619
      pz      :     0.957586  p :     2.828063
      px      :     0.988857
      py      :     0.881620
      dz2     :     0.008747  d :     0.034542
      dxz     :     0.005707
      dyz     :     0.009334
      dx2y2   :     0.006219
      dxy     :     0.004534
 23 H s       :     0.956791  s :     0.956791
      pz      :     0.013041  p :     0.022929
      px      :     0.006175
      py      :     0.003713
 24 H s       :     0.960115  s :     0.960115
      pz      :     0.007329  p :     0.023037
      px      :     0.006250
      py      :     0.009458
 25 H s       :     0.960923  s :     0.960923
      pz      :     0.004501  p :     0.022982
      px      :     0.004071
      py      :     0.014410
 26 C s       :     3.622077  s :     3.622077
      pz      :     1.117110  p :     2.386643
      px      :     0.630608
      py      :     0.638925
      dz2     :     0.008893  d :     0.065976
      dxz     :     0.009965
      dyz     :     0.028786
      dx2y2   :     0.007119
      dxy     :     0.011213
 27 N s       :     3.373209  s :     3.373209
      pz      :     1.117934  p :     3.790215
      px      :     1.529282
      py      :     1.142999
      dz2     :     0.008810  d :     0.031864
      dxz     :     0.005350
      dyz     :     0.008515
      dx2y2   :     0.005206
      dxy     :     0.003983
 28 N s       :     3.373208  s :     3.373208
      pz      :     1.117934  p :     3.790215
      px      :     1.529282
      py      :     1.142999
      dz2     :     0.008810  d :     0.031864
      dxz     :     0.005350
      dyz     :     0.008515
      dx2y2   :     0.005206
      dxy     :     0.003983


                     *******************************
                     * LOEWDIN POPULATION ANALYSIS *
                     *******************************

----------------------
LOEWDIN ATOMIC CHARGES
----------------------
   0 C :   -0.021504
   1 C :   -0.021504
   2 H :    0.032820
   3 H :    0.032820
   4 C :    0.033055
   5 C :   -0.019977
   6 C :   -0.047616
   7 C :   -0.019959
   8 H :    0.040645
   9 C :   -0.022756
  10 H :    0.030417
  11 C :   -0.036691
  12 H :    0.034161
  13 H :    0.032808
  14 H :    0.031669
  15 C :    0.033056
  16 C :   -0.019978
  17 C :   -0.047616
  18 C :   -0.019959
  19 H :    0.040645
  20 C :   -0.022756
  21 H :    0.030416
  22 C :   -0.036691
  23 H :    0.034161
  24 H :    0.032808
  25 H :    0.031669
  26 C :   -0.209855
  27 N :    0.037856
  28 N :    0.037856

-------------------------------
LOEWDIN REDUCED ORBITAL CHARGES
-------------------------------
  0 C s       :     2.858290  s :     2.858290
      pz      :     0.931237  p :     3.046286
      px      :     1.060195
      py      :     1.054854
      dz2     :     0.038036  d :     0.116928
      dxz     :     0.014789
      dyz     :     0.034461
      dx2y2   :     0.013734
      dxy     :     0.015910
  1 C s       :     2.858290  s :     2.858290
      pz      :     0.931237  p :     3.046286
      px      :     1.060195
      py      :     1.054854
      dz2     :     0.038036  d :     0.116928
      dxz     :     0.014789
      dyz     :     0.034461
      dx2y2   :     0.013734
      dxy     :     0.015910
  2 H s       :     0.895632  s :     0.895632
      pz      :     0.030950  p :     0.071547
      px      :     0.016809
      py      :     0.023788
  3 H s       :     0.895632  s :     0.895632
      pz      :     0.030950  p :     0.071547
      px      :     0.016809
      py      :     0.023788
  4 C s       :     2.833767  s :     2.833767
      pz      :     1.060428  p :     2.997901
      px      :     1.007098
      py      :     0.930375
      dz2     :     0.027649  d :     0.135276
      dxz     :     0.015905
      dyz     :     0.037112
      dx2y2   :     0.027794
      dxy     :     0.026816
  5 C s       :     2.858420  s :     2.858420
      pz      :     1.030043  p :     3.074252
      px      :     0.986695
      py      :     1.057514
      dz2     :     0.020249  d :     0.087305
      dxz     :     0.012198
      dyz     :     0.026501
      dx2y2   :     0.014190
      dxy     :     0.014168
  6 C s       :     2.856078  s :     2.856078
      pz      :     1.031573  p :     3.103554
      px      :     1.009564
      py      :     1.062417
      dz2     :     0.016425  d :     0.087985
      dxz     :     0.008666
      dyz     :     0.027483
      dx2y2   :     0.017067
      dxy     :     0.018343
  7 C s       :     2.857492  s :     2.857492
      pz      :     1.026209  p :     3.071727
      px      :     0.979246
      py      :     1.066272
      dz2     :     0.018207  d :     0.090740
      dxz     :     0.009170
      dyz     :     0.027112
      dx2y2   :     0.018339
      dxy     :     0.017912
  8 H s       :     0.888805  s :     0.888805
      pz      :     0.021432  p :     0.070550
      px      :     0.018206
      py      :     0.030912
  9 C s       :     2.856642  s :     2.856642
      pz      :     1.040985  p :     3.075288
      px      :     0.984399
      py      :     1.049904
      dz2     :     0.019718  d :     0.090826
      dxz     :     0.012092
      dyz     :     0.029642
      dx2y2   :     0.014246
      dxy     :     0.015129
 10 H s       :     0.901261  s :     0.901261
      pz      :     0.035534  p :     0.068323
      px      :     0.020052
      py      :     0.012737
 11 C s       :     2.857674  s :     2.857674
      pz      :     1.047253  p :     3.089213
      px      :     0.999159
      py      :     1.042800
      dz2     :     0.022764  d :     0.089805
      dxz     :     0.014584
      dyz     :     0.026157
      dx2y2   :     0.015635
      dxy     :     0.010664
 12 H s       :     0.899560  s :     0.899560
      pz      :     0.035542  p :     0.066279
      px      :     0.018374
      py      :     0.012363
 13 H s       :     0.900862  s :     0.900862
      pz      :     0.021460  p :     0.066329
      px      :     0.018458
      py      :     0.026412
 14 H s       :     0.901560  s :     0.901560
      pz      :     0.014503  p :     0.066771
      px      :     0.013297
      py      :     0.038971
 15 C s       :     2.833767  s :     2.833767
      pz      :     1.060428  p :     2.997901
      px      :     1.007098
      py      :     0.930374
      dz2     :     0.027649  d :     0.135276
      dxz     :     0.015905
      dyz     :     0.037112
      dx2y2   :     0.027794
      dxy     :     0.026816
 16 C s       :     2.858419  s :     2.858419
      pz      :     1.030043  p :     3.074253
      px      :     0.986695
      py      :     1.057514
      dz2     :     0.020249  d :     0.087305
      dxz     :     0.012198
      dyz     :     0.026501
      dx2y2   :     0.014190
      dxy     :     0.014168
 17 C s       :     2.856078  s :     2.856078
      pz      :     1.031573  p :     3.103554
      px      :     1.009565
      py      :     1.062417
      dz2     :     0.016425  d :     0.087984
      dxz     :     0.008666
      dyz     :     0.027483
      dx2y2   :     0.017067
      dxy     :     0.018343
 18 C s       :     2.857492  s :     2.857492
      pz      :     1.026208  p :     3.071727
      px      :     0.979246
      py      :     1.066273
      dz2     :     0.018207  d :     0.090740
      dxz     :     0.009170
      dyz     :     0.027112
      dx2y2   :     0.018339
      dxy     :     0.017913
 19 H s       :     0.888805  s :     0.888805
      pz      :     0.021432  p :     0.070550
      px      :     0.018206
      py      :     0.030912
 20 C s       :     2.856642  s :     2.856642
      pz      :     1.040985  p :     3.075288
      px      :     0.984399
      py      :     1.049904
      dz2     :     0.019718  d :     0.090826
      dxz     :     0.012092
      dyz     :     0.029642
      dx2y2   :     0.014246
      dxy     :     0.015129
 21 H s       :     0.901261  s :     0.901261
      pz      :     0.035534  p :     0.068323
      px      :     0.020052
      py      :     0.012738
 22 C s       :     2.857674  s :     2.857674
      pz      :     1.047253  p :     3.089213
      px      :     0.999159
      py      :     1.042800
      dz2     :     0.022764  d :     0.089805
      dxz     :     0.014584
      dyz     :     0.026157
      dx2y2   :     0.015635
      dxy     :     0.010664
 23 H s       :     0.899560  s :     0.899560
      pz      :     0.035542  p :     0.066279
      px      :     0.018374
      py      :     0.012363
 24 H s       :     0.900862  s :     0.900862
      pz      :     0.021460  p :     0.066329
      px      :     0.018458
      py      :     0.026412
 25 H s       :     0.901560  s :     0.901560
      pz      :     0.014503  p :     0.066771
      px      :     0.013297
      py      :     0.038971
 26 C s       :     3.203173  s :     3.203173
      pz      :     1.361536  p :     2.865609
      px      :     0.692897
      py      :     0.811176
      dz2     :     0.013959  d :     0.141073
      dxz     :     0.014219
      dyz     :     0.066886
      dx2y2   :     0.021411
      dxy     :     0.024598
 27 N s       :     3.056728  s :     3.056728
      pz      :     1.193780  p :     3.829660
      px      :     1.448017
      py      :     1.187862
      dz2     :     0.022975  d :     0.075757
      dxz     :     0.010200
      dyz     :     0.024212
      dx2y2   :     0.011261
      dxy     :     0.007109
 28 N s       :     3.056728  s :     3.056728
      pz      :     1.193780  p :     3.829659
      px      :     1.448017
      py      :     1.187862
      dz2     :     0.022975  d :     0.075757
      dxz     :     0.010200
      dyz     :     0.024212
      dx2y2   :     0.011261
      dxy     :     0.007109


                      *****************************
                      * MAYER POPULATION ANALYSIS *
                      *****************************

  NA   - Mulliken gross atomic population
  ZA   - Total nuclear charge
  QA   - Mulliken gross atomic charge
  VA   - Mayer's total valence
  BVA  - Mayer's bonded valence
  FA   - Mayer's free valence

  ATOM       NA         ZA         QA         VA         BVA        FA
  0 C      5.9528     6.0000     0.0472     3.8623     3.8623     0.0000
  1 C      5.9528     6.0000     0.0472     3.8623     3.8623     0.0000
  2 H      0.9561     1.0000     0.0439     1.0007     1.0007     0.0000
  3 H      0.9561     1.0000     0.0439     1.0007     1.0007     0.0000
  4 C      5.8333     6.0000     0.1667     3.8702     3.8702    -0.0000
  5 C      6.0167     6.0000    -0.0167     3.9040     3.9040    -0.0000
  6 C      6.0613     6.0000    -0.0613     3.8899     3.8899    -0.0000
  7 C      6.0120     6.0000    -0.0120     3.8596     3.8596    -0.0000
  8 H      0.9743     1.0000     0.0257     1.0202     1.0202    -0.0000
  9 C      6.0131     6.0000    -0.0131     3.8950     3.8950    -0.0000
 10 H      0.9977     1.0000     0.0023     0.9947     0.9947    -0.0000
 11 C      6.0032     6.0000    -0.0032     3.8533     3.8533    -0.0000
 12 H      0.9797     1.0000     0.0203     0.9857     0.9857    -0.0000
 13 H      0.9832     1.0000     0.0168     0.9853     0.9853    -0.0000
 14 H      0.9839     1.0000     0.0161     0.9854     0.9854     0.0000
 15 C      5.8333     6.0000     0.1667     3.8702     3.8702     0.0000
 16 C      6.0167     6.0000    -0.0167     3.9040     3.9040    -0.0000
 17 C      6.0613     6.0000    -0.0613     3.8899     3.8899     0.0000
 18 C      6.0120     6.0000    -0.0120     3.8596     3.8596     0.0000
 19 H      0.9743     1.0000     0.0257     1.0202     1.0202    -0.0000
 20 C      6.0131     6.0000    -0.0131     3.8950     3.8950    -0.0000
 21 H      0.9977     1.0000     0.0023     0.9947     0.9947     0.0000
 22 C      6.0032     6.0000    -0.0032     3.8533     3.8533    -0.0000
 23 H      0.9797     1.0000     0.0203     0.9857     0.9857     0.0000
 24 H      0.9832     1.0000     0.0168     0.9853     0.9853     0.0000
 25 H      0.9839     1.0000     0.0161     0.9854     0.9854    -0.0000
 26 C      6.0747     6.0000    -0.0747     2.6707     2.6707     0.0000
 27 N      7.1953     7.0000    -0.1953     3.3134     3.3134    -0.0000
 28 N      7.1953     7.0000    -0.1953     3.3134     3.3134     0.0000

  Mayer bond orders larger than 0.100000
B(  0-C ,  1-C ) :   1.6690 B(  0-C ,  2-H ) :   0.9818 B(  0-C , 27-N ) :   1.0932 
B(  1-C ,  3-H ) :   0.9818 B(  1-C , 28-N ) :   1.0932 B(  4-C ,  5-C ) :   1.4140 
B(  4-C ,  6-C ) :   1.3937 B(  4-C , 27-N ) :   0.9435 B(  5-C ,  7-C ) :   1.3911 
B(  5-C ,  8-H ) :   0.9882 B(  6-C ,  9-C ) :   1.3936 B(  6-C , 10-H ) :   0.9906 
B(  7-C , 11-C ) :   1.3873 B(  7-C , 12-H ) :   0.9868 B(  9-C , 11-C ) :   1.4079 
B(  9-C , 13-H ) :   0.9854 B( 11-C , 14-H ) :   0.9913 B( 15-C , 16-C ) :   1.4140 
B( 15-C , 17-C ) :   1.3937 B( 15-C , 28-N ) :   0.9435 B( 16-C , 18-C ) :   1.3911 
B( 16-C , 19-H ) :   0.9882 B( 17-C , 20-C ) :   1.3936 B( 17-C , 21-H ) :   0.9906 
B( 18-C , 22-C ) :   1.3873 B( 18-C , 23-H ) :   0.9868 B( 20-C , 22-C ) :   1.4079 
B( 20-C , 24-H ) :   0.9854 B( 22-C , 25-H ) :   0.9913 B( 26-C , 27-N ) :   1.2044 
B( 26-C , 28-N ) :   1.2044 

-------
TIMINGS
-------

Total SCF time: 0 days 0 hours 9 min 3 sec 

Total time                  ....     543.439 sec
Sum of individual times     ....     543.037 sec  ( 99.9%)

Fock matrix formation       ....     534.411 sec  ( 98.3%)
  Split-RI-J                ....      22.687 sec  (  4.2% of F)
  Chain of spheres X        ....     474.444 sec  ( 88.8% of F)
  XC integration            ....      37.097 sec  (  6.9% of F)
    Basis function eval.    ....      13.120 sec  ( 35.4% of XC)
    Density eval.           ....       9.142 sec  ( 24.6% of XC)
    XC-Functional eval.     ....       4.770 sec  ( 12.9% of XC)
    XC-Potential eval.      ....       9.105 sec  ( 24.5% of XC)
Diagonalization             ....       0.167 sec  (  0.0%)
Density matrix formation    ....       0.031 sec  (  0.0%)
Population analysis         ....       0.017 sec  (  0.0%)
Initial guess               ....       1.461 sec  (  0.3%)
Orbital Transformation      ....       0.000 sec  (  0.0%)
Orbital Orthonormalization  ....       0.000 sec  (  0.0%)
DIIS solution               ....       0.057 sec  (  0.0%)
SOSCF solution              ....       0.132 sec  (  0.0%)
Grid generation             ....       6.760 sec  (  1.2%)

Maximum memory used throughout the entire SCF-calculation: 113.9 MB


-------------------------------------------------------------------------------
                          DFT DISPERSION CORRECTION                            
                                                                               
                                 DFTD4 V2.5                                    
-------------------------------------------------------------------------------
The WB97X functional is recognized
Active option DFTDOPT                   ...         5   

Starting D4
-------------------------   ----------------
Dispersion correction           -0.005806596
-------------------------   ----------------


-------------------------   --------------------
FINAL SINGLE POINT ENERGY      -687.611211335549
-------------------------   --------------------


                            ***************************************
                            *     ORCA property calculations      *
                            ***************************************

                                    ---------------------
                                    Active property flags
                                    ---------------------
   (+) Dipole Moment


------------------------------------------------------------------------------
                       ORCA ELECTRIC PROPERTIES CALCULATION
------------------------------------------------------------------------------

Dipole Moment Calculation                       ... on
Quadrupole Moment Calculation                   ... off
Polarizability Calculation                      ... off
GBWName                                         ... 7.gbw
Electron density                                ... 7.scfp
The origin for moment calculation is the CENTER OF MASS  = ( 0.000000, -0.000000  0.004764)

-------------
DIPOLE MOMENT
-------------
                                X             Y             Z
Electronic contribution:     -0.00000      -0.00000      -0.84688
Nuclear contribution   :      0.00000      -0.00000      -0.04940
                        -----------------------------------------
Total Dipole Moment    :      0.00000      -0.00000      -0.89628
                        -----------------------------------------
Magnitude (a.u.)       :      0.89628
Magnitude (Debye)      :      2.27817



--------------------
Rotational spectrum 
--------------------
 
Rotational constants in cm-1:     0.054882     0.006881     0.006302 
Rotational constants in MHz :  1645.323372   206.292280   188.936367 

 Dipole components along the rotational axes: 
x,y,z [a.u.] :    -0.000003    -0.896283     0.000000 
x,y,z [Debye]:    -0.000007    -2.278170     0.000000 

 

-------------------------------------------------------------------------------
                               ORCA SCF HESSIAN
-------------------------------------------------------------------------------

                   --------- SHARK INITIALIZATION DONE ---------

Hessian of the Kohn-Sham DFT energy:
Kohn-Sham wavefunction type                      ... RKS
Hartree-Fock exchange scaling                    ...    0.158
Number of operators                              ...    1
Number of atoms                                  ...   29
Basis set dimensions                             ...  298
Integral neglect threshold                       ... 2.5e-11
Integral primitive cutoff                        ... 2.5e-12

Setting up DFT Hessian calculations              ... 

HESS GRID
---------

General Integration Accuracy     IntAcc      ... 4.629
Radial Grid Type                 RadialGrid  ... OptM3 with GC (2021)
Angular Grid (max. ang.)         AngularGrid ... 5 (Lebedev-434)
Angular grid pruning method      GridPruning ... 4 (adaptive)
Weight generation scheme         WeightScheme... Becke
Basis function cutoff            BFCut       ... 1.0000e-11
Integration weight cutoff        WCut        ... 1.0000e-14
Angular grids for H and He will be reduced by one unit
Partially contracted basis set               ... off
Rotationally invariant grid construction     ... off

Total number of grid points                  ...   217932
Total number of batches                      ...     3417
Average number of points per batch           ...       63
Average number of grid points per atom       ...     7515

Building densities                               ... done   (      0.0 sec)
Calculating rho(r) on the grid                   ... done   (      2.6 sec)
Building xc-kernel on the grid                   ... done   (      2.0 sec)
                                                     done   (      9.0 sec)

Nuclear repulsion Hessian  (SHARK)               ... done   (      0.0 sec)

----------------------------------------------
Forming right-hand sides of CP-SCF equations     ...
----------------------------------------------
One electron integral derivatives  (SHARK)       ... done   (      1.1 sec)
Transforming the overlap derivative matrices     ... done   (      0.3 sec)
Making the Q(x) pseudodensities                  ... done   (      0.3 sec)
Adding the E*S(x)*S(y) terms to the Hessian      ... done   (      0.3 sec)
Calculating energy weighted overlap derivatives  ... done   (      0.0 sec)
Two electron integral derivatives (SHARK-RI)     ... done   (    163.9 sec)
Exchange-correlation integral derivatives        ... done   (    286.7 sec)
tr(F(y)Q(x)) contribution to the Hessian         ... done   (      0.1 sec)
Response fock operator R(S(x)) (SHARK-RIJCOSX)   ... done   (    172.4 sec)
XC Response fock operator R(S(x))                ... done   (    138.0 sec)
tr(F(y)S(x)) contribution to the Hessian         ... done   (      0.1 sec)
Transforming and finalizing RHSs                 ... done   (      0.3 sec)

----------------------------------------------
Solving the CP-SCF equations (RIJCOSX)           ...
----------------------------------------------
     CP-SCF ITERATION   0:   1.3913e-01 (  81.3 sec   0/ 87 done)
     CP-SCF ITERATION   1:   9.1337e-02 (  80.9 sec   0/ 87 done)
     CP-SCF ITERATION   2:   2.2682e-02 (  82.1 sec   0/ 87 done)
     CP-SCF ITERATION   3:   1.2771e-02 (  82.5 sec   0/ 87 done)
     CP-SCF ITERATION   4:   7.6992e-03 (  82.7 sec   0/ 87 done)
[...]
     84       0.000040  -0.000072   0.000071  -0.000088   0.000096  -0.000181
     85       0.000113  -0.000117   0.000146  -0.000218   0.000166  -0.000064
     86       0.000099  -0.000198   0.000208  -0.000256   0.000218  -0.000542
                 84         85         86    
      0      -0.000006  -0.000831   0.000847
      1       0.000036   0.038540  -0.049677
      2       0.000138  -0.047751   0.047751
      3       0.000007  -0.000831  -0.000847
      4      -0.000116   0.038540   0.049677
      5      -0.000004   0.047751   0.047751
      6      -0.000041   0.008470  -0.008595
      7       0.001029  -0.456522   0.461155
      8      -0.001537   0.534961  -0.530765
      9      -0.000072   0.008471   0.008596
     10       0.000374  -0.456525  -0.461152
     11       0.000040  -0.534964  -0.530761
     12       0.001647  -0.000042   0.000014
     13      -0.001269   0.000211  -0.000037
     14      -0.003372  -0.000188   0.000302
     15      -0.033429  -0.000060   0.000013
     16      -0.057371  -0.000258   0.000153
     17       0.043712   0.000046   0.000021
     18       0.000531   0.001572  -0.001134
     19      -0.000040  -0.000634   0.000429
     20      -0.000917  -0.002804   0.001978
     21      -0.007652  -0.000050   0.000004
     22       0.008091   0.000110  -0.000060
     23       0.017480   0.000125  -0.000047
     24       0.373154   0.000781   0.000054
     25       0.638701   0.001299  -0.000193
     26      -0.495192  -0.000869   0.000022
     27       0.001619   0.000103  -0.000037
     28       0.002431   0.000310  -0.000155
     29      -0.002328  -0.000089   0.000009
     30      -0.004410  -0.016446   0.011699
     31       0.001994   0.009280  -0.006718
     32       0.008925   0.034324  -0.024652
     33       0.000455  -0.000034   0.000024
     34       0.006162  -0.000012   0.000018
     35       0.001154   0.000045  -0.000017
     36       0.087917   0.000699  -0.000278
     37      -0.051191  -0.000474   0.000245
     38      -0.185138  -0.001481   0.000642
     39      -0.016240  -0.001214   0.000469
     40      -0.026996  -0.002344   0.001011
     41       0.022078   0.001714  -0.000696
     42      -0.000297  -0.000012   0.000064
     43      -0.059559   0.000072  -0.000172
     44      -0.018750   0.000051  -0.000064
     45      -0.000689  -0.000042  -0.000014
     46       0.000545   0.000211   0.000037
     47      -0.001421   0.000188   0.000302
     48       0.014087  -0.000060  -0.000013
     49       0.024164  -0.000258  -0.000153
     50       0.018423  -0.000046   0.000021
     51      -0.000218   0.001572   0.001134
     52       0.000011  -0.000634  -0.000429
     53      -0.000376   0.002804   0.001978
     54       0.003205  -0.000050  -0.000004
     55      -0.003400   0.000110   0.000060
     56       0.007318  -0.000125  -0.000047
     57      -0.157213   0.000781  -0.000054
     58      -0.269103   0.001299   0.000193
     59      -0.208700   0.000869   0.000022
     60      -0.000673   0.000103   0.000037
     61      -0.001013   0.000310   0.000155
     62      -0.000972   0.000089   0.000009
     63       0.001800  -0.016449  -0.011700
     64      -0.000805   0.009282   0.006719
     65       0.003636  -0.034330  -0.024655
     66      -0.000189  -0.000034  -0.000024
     67      -0.002577  -0.000012  -0.000018
     68       0.000477  -0.000045  -0.000017
     69      -0.036792   0.000699   0.000278
     70       0.021429  -0.000474  -0.000245
     71      -0.077515   0.001481   0.000642
     72       0.006762  -0.001214  -0.000469
     73       0.011233  -0.002345  -0.001011
     74       0.009188  -0.001715  -0.000696
     75       0.000130  -0.000012  -0.000064
     76       0.024856   0.000072   0.000172
     77      -0.007831  -0.000051  -0.000064
     78       0.000050  -0.000006   0.000000
     79      -0.000140  -0.001720   0.000000
     80      -0.000263  -0.000000  -0.000944
     81      -0.000186  -0.000007   0.000027
     82      -0.000122   0.000213  -0.000828
     83       0.000487   0.000569  -0.002491
     84       0.000083  -0.000007  -0.000027
     85       0.000108   0.000213   0.000828
     86       0.000152  -0.000569  -0.002491


-----------
IR SPECTRUM
-----------

 Mode   freq       eps      Int      T**2         TX        TY        TZ
       cm**-1   L/(mol*cm) km/mol    a.u.
----------------------------------------------------------------------------
  6:     40.42   0.000110    0.55  0.000847  ( 0.001770 -0.029047  0.000000)
  7:     40.88   0.000000    0.00  0.000001  ( 0.000001 -0.000015 -0.000714)
  8:     77.62   0.000037    0.18  0.000147  ( 0.000000 -0.000000 -0.012127)
  9:     90.05   0.002209   11.16  0.007656  (-0.075265  0.044625 -0.000000)
 10:    137.73   0.000005    0.03  0.000011  (-0.000000 -0.000000 -0.003371)
 11:    181.49   0.000332    1.68  0.000571  (-0.010695 -0.021361  0.000000)
 12:    260.58   0.000025    0.12  0.000029  (-0.000000 -0.000000 -0.005425)
 13:    293.80   0.001145    5.79  0.001216  (-0.014311  0.031806  0.000000)
 14:    314.33   0.000028    0.14  0.000028  ( 0.000000 -0.000000 -0.005285)
 15:    420.99   0.000005    0.02  0.000003  ( 0.000768  0.001659  0.000000)
 16:    427.47   0.000003    0.01  0.000002  (-0.000000 -0.000000  0.001459)
 17:    432.08   0.000163    0.83  0.000118  ( 0.000710 -0.010843  0.000000)
 18:    432.79   0.000006    0.03  0.000004  ( 0.000000 -0.000000  0.002014)
 19:    492.38   0.001079    5.46  0.000684  (-0.011951  0.023266  0.000000)
 20:    540.54   0.000650    3.29  0.000375  (-0.000000 -0.000000  0.019377)
 21:    570.15   0.002806   14.18  0.001536  (-0.029563 -0.025723  0.000000)
 22:    630.15   0.000237    1.20  0.000117  (-0.001143  0.010769  0.000000)
 23:    632.12   0.000044    0.22  0.000022  (-0.000000  0.000000 -0.004652)
 24:    656.32   0.000589    2.97  0.000280  (-0.010256  0.013216 -0.000000)
 25:    662.23   0.000392    1.98  0.000185  (-0.000000 -0.000000  0.013592)
 26:    693.82   0.000387    1.95  0.000174  (-0.000000  0.000000 -0.013188)
 27:    724.44   0.002520   12.73  0.001085  (-0.000063  0.000016  0.032945)
 28:    724.81   0.009022   45.59  0.003884  ( 0.060100 -0.016498  0.000034)
 29:    728.74   0.009664   48.84  0.004139  (-0.029749 -0.057040 -0.000000)
 30:    744.67   0.009796   49.50  0.004105  (-0.063737  0.006525 -0.000000)
 31:    801.73   0.001869    9.45  0.000728  (-0.000007  0.000002 -0.026973)
 32:    802.36   0.010028   50.68  0.003900  (-0.058730  0.021241  0.000003)
 33:    869.37   0.000014    0.07  0.000005  ( 0.000038 -0.000037  0.002244)
 34:    869.40   0.000041    0.21  0.000015  (-0.002751  0.002646  0.000031)
 35:    878.20   0.000004    0.02  0.000001  (-0.000000  0.000000 -0.001204)
 36:    958.38   0.000140    0.71  0.000045  (-0.000028  0.000023  0.006744)
 37:    958.82   0.001747    8.83  0.000569  ( 0.018163 -0.015455  0.000011)
 38:    970.41   0.005271   26.64  0.001695  (-0.004655 -0.040906 -0.000000)
 39:    975.28   0.000237    1.20  0.000076  ( 0.000000  0.000000  0.008701)
 40:   1019.51   0.000048    0.24  0.000015  ( 0.000011 -0.000015 -0.003847)
 41:   1019.52   0.000090    0.45  0.000027  ( 0.003115 -0.004208  0.000014)
 42:   1023.26   0.000002    0.01  0.000001  (-0.000486  0.000625 -0.000000)
 43:   1024.05   0.000007    0.03  0.000002  (-0.000000 -0.000000  0.001427)
 44:   1044.33   0.000000    0.00  0.000000  ( 0.000087 -0.000121 -0.000302)
 45:   1044.35   0.000201    1.02  0.000060  (-0.004533  0.006290 -0.000006)
 46:   1060.62   0.000252    1.28  0.000074  (-0.000000  0.000000  0.008616)
 47:   1062.65   0.002025   10.23  0.000595  ( 0.000587 -0.024380 -0.000000)
 48:   1090.86   0.000988    4.99  0.000283  ( 0.000000  0.000000 -0.016813)
 49:   1097.25   0.002342   11.83  0.000666  (-0.009423 -0.024024 -0.000001)
 50:   1116.68   0.005312   26.84  0.001484  ( 0.000001 -0.000002  0.038529)
 51:   1117.52   0.001262    6.38  0.000352  ( 0.011195 -0.015066 -0.000004)
 52:   1136.60   0.000392    1.98  0.000108  ( 0.000000 -0.000000  0.010372)
 53:   1166.36   0.000029    0.15  0.000008  ( 0.000001  0.000003 -0.002785)
 54:   1166.67   0.000041    0.21  0.000011  ( 0.000924  0.003185  0.000003)
 55:   1189.08   0.000015    0.08  0.000004  ( 0.000007  0.000020  0.001977)
 56:   1189.16   0.000048    0.24  0.000013  (-0.001159 -0.003354  0.000012)
 57:   1292.51   0.003501   17.69  0.000845  ( 0.001869 -0.029012  0.000001)
 58:   1303.43   0.000963    4.87  0.000231  ( 0.000000 -0.000002 -0.015184)
 59:   1306.28   0.009035   45.66  0.002158  (-0.000839 -0.046452  0.000001)
 60:   1352.37   0.000665    3.36  0.000154  ( 0.001909  0.012244  0.000001)
 61:   1353.40   0.000129    0.65  0.000030  ( 0.000000  0.000007 -0.005457)
 62:   1355.88   0.006842   34.58  0.001575  ( 0.000438  0.039680  0.000001)
 63:   1388.11   0.001498    7.57  0.000337  (-0.000000 -0.000000 -0.018349)
 64:   1431.43   0.000120    0.60  0.000026  ( 0.000000 -0.000000  0.005108)
 65:   1467.66   0.023020  116.33  0.004895  ( 0.000341  0.069961 -0.000000)
 66:   1508.86   0.000671    3.39  0.000139  ( 0.008611 -0.008043 -0.000000)
 67:   1513.49   0.000802    4.05  0.000165  (-0.000000 -0.000000 -0.012860)
 68:   1560.10   0.063040  318.58  0.012610  (-0.000084  0.112294 -0.000000)
 69:   1567.64   0.001931    9.76  0.000384  (-0.000000  0.000002  0.019607)
 70:   1666.47   0.001532    7.74  0.000287  ( 0.000000 -0.000000 -0.016940)
 71:   1695.31   0.001091    5.51  0.000201  ( 0.008695  0.011192  0.000000)
 72:   1701.05   0.000340    1.72  0.000062  ( 0.000000 -0.000001 -0.007903)
 73:   1710.52   0.025372  128.22  0.004629  ( 0.001878 -0.068010  0.000001)
 74:   1714.47   0.001693    8.56  0.000308  (-0.000000 -0.000002 -0.017555)
 75:   3210.31   0.000398    2.01  0.000039  ( 0.000253 -0.006211  0.000007)
 76:   3210.36   0.000030    0.15  0.000003  ( 0.000000  0.000024  0.001705)
 77:   3219.09   0.001478    7.47  0.000143  ( 0.006509  0.010047  0.000104)
 78:   3219.12   0.000972    4.91  0.000094  ( 0.000065  0.000106 -0.009708)
 79:   3228.45   0.003051   15.42  0.000295  (-0.006264  0.015986  0.000336)
 80:   3228.56   0.002857   14.44  0.000276  ( 0.000122 -0.000328  0.016614)
 81:   3235.91   0.002458   12.42  0.000237  (-0.003728 -0.014939  0.000051)
 82:   3235.98   0.000083    0.42  0.000008  ( 0.000076  0.000290  0.002818)
 83:   3251.26   0.000171    0.86  0.000016  (-0.000413  0.004017  0.000340)
 84:   3251.26   0.000035    0.18  0.000003  (-0.000168  0.001636 -0.000833)
 85:   3294.20   0.001234    6.24  0.000117  ( 0.000498 -0.010802  0.000000)
 86:   3315.84   0.000051    0.26  0.000005  (-0.000000  0.000000 -0.002192)

* The epsilon (eps) is given for a Dirac delta lineshape.
** The dipole moment derivative (T) already includes vibrational overlap.

The first frequency considered to be a vibration is 6
The total number of vibrations considered is 81


--------------------------
THERMOCHEMISTRY AT 298.15K
--------------------------

Temperature         ... 298.15 K
Pressure            ... 1.00 atm
Total Mass          ... 220.28 AMU

Throughout the following assumptions are being made:
  (1) The electronic state is orbitally nondegenerate
  (2) There are no thermally accessible electronically excited states
  (3) Hindered rotations indicated by low frequency modes are not
      treated as such but are treated as vibrations and this may
      cause some error
  (4) All equations used are the standard statistical mechanics
      equations for an ideal gas
  (5) All vibrations are strictly harmonic

freq.      40.42  E(vib)   ...       0.54 
freq.      40.88  E(vib)   ...       0.54 
freq.      77.62  E(vib)   ...       0.49 
freq.      90.05  E(vib)   ...       0.47 
freq.     137.73  E(vib)   ...       0.42 
freq.     181.49  E(vib)   ...       0.37 
freq.     260.58  E(vib)   ...       0.30 
freq.     293.80  E(vib)   ...       0.27 
freq.     314.33  E(vib)   ...       0.25 
freq.     420.99  E(vib)   ...       0.18 
freq.     427.47  E(vib)   ...       0.18 
freq.     432.08  E(vib)   ...       0.18 
freq.     432.79  E(vib)   ...       0.17 
freq.     492.38  E(vib)   ...       0.14 
freq.     540.54  E(vib)   ...       0.12 
freq.     570.15  E(vib)   ...       0.11 
freq.     630.15  E(vib)   ...       0.09 
freq.     632.12  E(vib)   ...       0.09 
freq.     656.32  E(vib)   ...       0.08 
freq.     662.23  E(vib)   ...       0.08 
freq.     693.82  E(vib)   ...       0.07 
freq.     724.44  E(vib)   ...       0.06 
freq.     724.81  E(vib)   ...       0.06 
freq.     728.74  E(vib)   ...       0.06 
freq.     744.67  E(vib)   ...       0.06 
freq.     801.73  E(vib)   ...       0.05 
freq.     802.36  E(vib)   ...       0.05 
freq.     869.37  E(vib)   ...       0.04 
freq.     869.40  E(vib)   ...       0.04 
freq.     878.20  E(vib)   ...       0.04 
freq.     958.38  E(vib)   ...       0.03 
freq.     958.82  E(vib)   ...       0.03 
freq.     970.41  E(vib)   ...       0.03 
freq.     975.28  E(vib)   ...       0.03 
freq.    1019.51  E(vib)   ...       0.02 
freq.    1019.52  E(vib)   ...       0.02 
freq.    1023.26  E(vib)   ...       0.02 
freq.    1024.05  E(vib)   ...       0.02 
freq.    1044.33  E(vib)   ...       0.02 
freq.    1044.35  E(vib)   ...       0.02 
freq.    1060.62  E(vib)   ...       0.02 
freq.    1062.65  E(vib)   ...       0.02 
freq.    1090.86  E(vib)   ...       0.02 
freq.    1097.25  E(vib)   ...       0.02 
freq.    1116.68  E(vib)   ...       0.01 
freq.    1117.52  E(vib)   ...       0.01 
freq.    1136.60  E(vib)   ...       0.01 
freq.    1166.36  E(vib)   ...       0.01 
freq.    1166.67  E(vib)   ...       0.01 
freq.    1189.08  E(vib)   ...       0.01 
freq.    1189.16  E(vib)   ...       0.01 
freq.    1292.51  E(vib)   ...       0.01 
freq.    1303.43  E(vib)   ...       0.01 
freq.    1306.28  E(vib)   ...       0.01 
freq.    1352.37  E(vib)   ...       0.01 
freq.    1353.40  E(vib)   ...       0.01 
freq.    1355.88  E(vib)   ...       0.01 
freq.    1388.11  E(vib)   ...       0.00 
freq.    1431.43  E(vib)   ...       0.00 
freq.    1467.66  E(vib)   ...       0.00 
freq.    1508.86  E(vib)   ...       0.00 
freq.    1513.49  E(vib)   ...       0.00 
freq.    1560.10  E(vib)   ...       0.00 
freq.    1567.64  E(vib)   ...       0.00 
freq.    1666.47  E(vib)   ...       0.00 
freq.    1695.31  E(vib)   ...       0.00 
freq.    1701.05  E(vib)   ...       0.00 
freq.    1710.52  E(vib)   ...       0.00 
freq.    1714.47  E(vib)   ...       0.00 
freq.    3210.31  E(vib)   ...       0.00 
freq.    3210.36  E(vib)   ...       0.00 
freq.    3219.09  E(vib)   ...       0.00 
freq.    3219.12  E(vib)   ...       0.00 
freq.    3228.45  E(vib)   ...       0.00 
freq.    3228.56  E(vib)   ...       0.00 
freq.    3235.91  E(vib)   ...       0.00 
freq.    3235.98  E(vib)   ...       0.00 
freq.    3251.26  E(vib)   ...       0.00 
freq.    3251.26  E(vib)   ...       0.00 
freq.    3294.20  E(vib)   ...       0.00 
freq.    3315.84  E(vib)   ...       0.00 

------------
INNER ENERGY
------------

The inner energy is: U= E(el) + E(ZPE) + E(vib) + E(rot) + E(trans)
    E(el)   - is the total energy from the electronic structure calculation
              = E(kin-el) + E(nuc-el) + E(el-el) + E(nuc-nuc)
    E(ZPE)  - the the zero temperature vibrational energy from the frequency calculation
    E(vib)  - the the finite temperature correction to E(ZPE) due to population
              of excited vibrational states
    E(rot)  - is the rotational thermal energy
    E(trans)- is the translational thermal energy

Summary of contributions to the inner energy U:
Electronic energy                ...   -687.61121134 Eh
Zero point energy                ...      0.23554505 Eh     147.81 kcal/mol
Thermal vibrational correction   ...      0.00966000 Eh       6.06 kcal/mol
Thermal rotational correction    ...      0.00141627 Eh       0.89 kcal/mol
Thermal translational correction ...      0.00141627 Eh       0.89 kcal/mol
-----------------------------------------------------------------------
Total thermal energy                   -687.36317374 Eh


Summary of corrections to the electronic energy:
(perhaps to be used in another calculation)
Total thermal correction                  0.01249254 Eh       7.84 kcal/mol
Non-thermal (ZPE) correction              0.23554505 Eh     147.81 kcal/mol
-----------------------------------------------------------------------
Total correction                          0.24803759 Eh     155.65 kcal/mol


--------
ENTHALPY
--------

The enthalpy is H = U + kB*T
                kB is Boltzmann's constant
Total free energy                 ...   -687.36317374 Eh 
Thermal Enthalpy correction       ...      0.00094421 Eh       0.59 kcal/mol
-----------------------------------------------------------------------
Total Enthalpy                    ...   -687.36222954 Eh


Note: Rotational entropy computed according to Herzberg 
Infrared and Raman Spectra, Chapter V,1, Van Nostrand Reinhold, 1945 
Point Group:  C2, Symmetry Number:   2  
Rotational constants in cm-1:     0.054882     0.006881     0.006302 

Vibrational entropy computed according to the QRRHO of S. Grimme
Chem.Eur.J. 2012 18 9955


-------
ENTROPY
-------

The entropy contributions are T*S = T*(S(el)+S(vib)+S(rot)+S(trans))
     S(el)   - electronic entropy
     S(vib)  - vibrational entropy
     S(rot)  - rotational entropy
     S(trans)- translational entropy
The entropies will be listed as multiplied by the temperature to get
units of energy

Electronic entropy                ...      0.00000000 Eh      0.00 kcal/mol
Vibrational entropy               ...      0.01639870 Eh     10.29 kcal/mol
Rotational entropy                ...      0.01496916 Eh      9.39 kcal/mol
Translational entropy             ...      0.01998968 Eh     12.54 kcal/mol
-----------------------------------------------------------------------
Final entropy term                ...      0.05135755 Eh     32.23 kcal/mol

In case the symmetry of your molecule has not been determined correctly
or in case you have a reason to use a different symmetry number we print 
out the resulting rotational entropy values for sn=1,12 :
 --------------------------------------------------------
|  sn= 1 | S(rot)=       0.01562362 Eh      9.80 kcal/mol|
|  sn= 2 | S(rot)=       0.01496916 Eh      9.39 kcal/mol|
|  sn= 3 | S(rot)=       0.01458633 Eh      9.15 kcal/mol|
|  sn= 4 | S(rot)=       0.01431471 Eh      8.98 kcal/mol|
|  sn= 5 | S(rot)=       0.01410402 Eh      8.85 kcal/mol|
|  sn= 6 | S(rot)=       0.01393187 Eh      8.74 kcal/mol|
|  sn= 7 | S(rot)=       0.01378633 Eh      8.65 kcal/mol|
|  sn= 8 | S(rot)=       0.01366025 Eh      8.57 kcal/mol|
|  sn= 9 | S(rot)=       0.01354904 Eh      8.50 kcal/mol|
|  sn=10 | S(rot)=       0.01344956 Eh      8.44 kcal/mol|
|  sn=11 | S(rot)=       0.01335957 Eh      8.38 kcal/mol|
|  sn=12 | S(rot)=       0.01327742 Eh      8.33 kcal/mol|
 --------------------------------------------------------


-------------------
GIBBS FREE ENERGY
-------------------

The Gibbs free energy is G = H - T*S

Total enthalpy                    ...   -687.36222954 Eh 
Total entropy correction          ...     -0.05135755 Eh    -32.23 kcal/mol
-----------------------------------------------------------------------
Final Gibbs free energy         ...   -687.41358708 Eh

For completeness - the Gibbs free energy minus the electronic energy
G-E(el)                           ...      0.19762425 Eh    124.01 kcal/mol


Timings for individual modules:

Sum of individual times         ...     2834.294 sec (=  47.238 min)
GTO integral calculation        ...        0.488 sec (=   0.008 min)   0.0 %
SCF iterations                  ...      543.480 sec (=   9.058 min)  19.2 %
Analytical frequency calculation...     2290.325 sec (=  38.172 min)  80.8 %
                             ****ORCA TERMINATED NORMALLY****
TOTAL RUN TIME: 0 days 0 hours 47 minutes 14 seconds 679 msec
