
                                 *****************
                                 * O   R   C   A *
                                 *****************

                                            #,                                       
                                            ###                                      
                                            ####                                     
                                            #####                                    
                                            ######                                   
                                           ########,                                 
                                     ,,################,,,,,                         
                               ,,#################################,,                 
                          ,,##########################################,,             
                       ,#########################################, ''#####,          
                    ,#############################################,,   '####,        
                  ,##################################################,,,,####,       
                ,###########''''           ''''###############################       
              ,#####''   ,,,,##########,,,,          '''####'''          '####       
            ,##' ,,,,###########################,,,                        '##       
           ' ,,###''''                  '''############,,,                           
         ,,##''                                '''############,,,,        ,,,,,,###''
      ,#''                                            '''#######################'''  
     '                                                          ''''####''''         
             ,#######,   #######,   ,#######,      ##                                
            ,#'     '#,  ##    ##  ,#'     '#,    #''#        ######   ,####,        
            ##       ##  ##   ,#'  ##            #'  '#       #        #'  '#        
            ##       ##  #######   ##           ,######,      #####,   #    #        
            '#,     ,#'  ##    ##  '#,     ,#' ,#      #,         ##   #,  ,#        
             '#######'   ##     ##  '#######'  #'      '#     #####' # '####'        



                  #######################################################
                  #                        -***-                        #
                  #          Department of theory and spectroscopy      #
                  #    Directorship and core code : Frank Neese         #
                  #        Max Planck Institute fuer Kohlenforschung    #
                  #                Kaiser Wilhelm Platz 1               #
                  #                 D-45470 Muelheim/Ruhr               #
                  #                      Germany                        #
                  #                                                     #
                  #                  All rights reserved                #
                  #                        -***-                        #
                  #######################################################


                         Program Version 5.0.4 -  RELEASE  -


 With contributions from (in alphabetic order):
   Daniel Aravena         : Magnetic Suceptibility
   Michael Atanasov       : Ab Initio Ligand Field Theory (pilot matlab implementation)
   Alexander A. Auer      : GIAO ZORA, VPT2 properties, NMR spectrum
   Ute Becker             : Parallelization
   Giovanni Bistoni       : ED, misc. LED, open-shell LED, HFLD
   Martin Brehm           : Molecular dynamics
   Dmytro Bykov           : SCF Hessian
   Vijay G. Chilkuri      : MRCI spin determinant printing, contributions to CSF-ICE
   Dipayan Datta          : RHF DLPNO-CCSD density
   Achintya Kumar Dutta   : EOM-CC, STEOM-CC
   Dmitry Ganyushin       : Spin-Orbit,Spin-Spin,Magnetic field MRCI
   Miquel Garcia          : C-PCM and meta-GGA Hessian, CC/C-PCM, Gaussian charge scheme
   Yang Guo               : DLPNO-NEVPT2, F12-NEVPT2, CIM, IAO-localization
   Andreas Hansen         : Spin unrestricted coupled pair/coupled cluster methods
   Benjamin Helmich-Paris : MC-RPA, TRAH-SCF, COSX integrals
   Lee Huntington         : MR-EOM, pCC
   Robert Izsak           : Overlap fitted RIJCOSX, COSX-SCS-MP3, EOM
   Marcus Kettner         : VPT2
   Christian Kollmar      : KDIIS, OOCD, Brueckner-CCSD(T), CCSD density, CASPT2, CASPT2-K
   Simone Kossmann        : Meta GGA functionals, TD-DFT gradient, OOMP2, MP2 Hessian
   Martin Krupicka        : Initial AUTO-CI
   Lucas Lang             : DCDCAS
   Marvin Lechner         : AUTO-CI (C++ implementation), FIC-MRCC
   Dagmar Lenk            : GEPOL surface, SMD
   Dimitrios Liakos       : Extrapolation schemes; Compound Job, initial MDCI parallelization
   Dimitrios Manganas     : Further ROCIS development; embedding schemes
   Dimitrios Pantazis     : SARC Basis sets
   Anastasios Papadopoulos: AUTO-CI, single reference methods and gradients
   Taras Petrenko         : DFT Hessian,TD-DFT gradient, ASA, ECA, R-Raman, ABS, FL, XAS/XES, NRVS
   Peter Pinski           : DLPNO-MP2, DLPNO-MP2 Gradient
   Christoph Reimann      : Effective Core Potentials
   Marius Retegan         : Local ZFS, SOC
   Christoph Riplinger    : Optimizer, TS searches, QM/MM, DLPNO-CCSD(T), (RO)-DLPNO pert. Triples
   Tobias Risthaus        : Range-separated hybrids, TD-DFT gradient, RPA, STAB
   Michael Roemelt        : Original ROCIS implementation
   Masaaki Saitow         : Open-shell DLPNO-CCSD energy and density
   Barbara Sandhoefer     : DKH picture change effects
   Avijit Sen             : IP-ROCIS
   Kantharuban Sivalingam : CASSCF convergence, NEVPT2, FIC-MRCI
   Bernardo de Souza      : ESD, SOC TD-DFT
   Georgi Stoychev        : AutoAux, RI-MP2 NMR, DLPNO-MP2 response
   Willem Van den Heuvel  : Paramagnetic NMR
   Boris Wezisla          : Elementary symmetry handling
   Frank Wennmohs         : Technical directorship


 We gratefully acknowledge several colleagues who have allowed us to
 interface, adapt or use parts of their codes:
   Stefan Grimme, W. Hujo, H. Kruse, P. Pracht,  : VdW corrections, initial TS optimization,
                  C. Bannwarth, S. Ehlert          DFT functionals, gCP, sTDA/sTD-DF
   Ed Valeev, F. Pavosevic, A. Kumar             : LibInt (2-el integral package), F12 methods
   Garnet Chan, S. Sharma, J. Yang, R. Olivares  : DMRG
   Ulf Ekstrom                                   : XCFun DFT Library
   Mihaly Kallay                                 : mrcc  (arbitrary order and MRCC methods)
   Jiri Pittner, Ondrej Demel                    : Mk-CCSD
   Frank Weinhold                                : gennbo (NPA and NBO analysis)
   Christopher J. Cramer and Donald G. Truhlar   : smd solvation model
   Lars Goerigk                                  : TD-DFT with DH, B97 family of functionals
   V. Asgeirsson, H. Jonsson                     : NEB implementation
   FAccTs GmbH                                   : IRC, NEB, NEB-TS, DLPNO-Multilevel, CI-OPT
                                                   MM, QMMM, 2- and 3-layer-ONIOM, Crystal-QMMM,
                                                   LR-CPCM, SF, NACMEs, symmetry and pop. for TD-DFT,
                                                   nearIR, NL-DFT gradient (VV10), updates on ESD,
                                                   ML-optimized integration grids
   S Lehtola, MJT Oliveira, MAL Marques          : LibXC Library
   Liviu Ungur et al                             : ANISO software


 Your calculation uses the libint2 library for the computation of 2-el integrals
 For citations please refer to: http://libint.valeyev.net

 Your ORCA version has been built with support for libXC version: 5.1.0
 For citations please refer to: https://tddft.org/programs/libxc/

 This ORCA versions uses:
   CBLAS   interface :  Fast vector & matrix operations
   LAPACKE interface :  Fast linear algebra routines
   SCALAPACK package :  Parallel linear algebra routines
   Shared memory     :  Shared parallel matrices
   BLAS/LAPACK       :  OpenBLAS 0.3.15  USE64BITINT DYNAMIC_ARCH NO_AFFINITY SkylakeX SINGLE_THREADED
        Core in use  :  SkylakeX
   Copyright (c) 2011-2014, The OpenBLAS Project




***************************************
The coordinates will be read from file: 8.xyz
***************************************


Your calculation utilizes the atom-pairwise dispersion correction
based on tight binding partial charges (D4)
Cite in your paper:
E.Caldeweyher, C.Bannwarth, S.Grimme, J.Chem.Phys., (2017), 147, 034112.
E.Caldeweyher, S.Ehlert, A.Hansen, H.Neugebauer, S.Grimme, J.Chem.Phys., (2018), in progress.
   

XCFun DFT library Copyright 2009-2010 Ulf Ekstrom and contributors.
See http://admol.org/xcfun for more information.
This is free software; see the source code for copying conditions.
There is ABSOLUTELY NO WARRANTY; not even for MERCHANTABILITY or FITNESS FOR A PARTICULAR PURPOSE.
For details see the documentation.
Scientific users of this library should cite U. Ekstrom, L. Visscher, R. Bast, A. J. Thorvaldsen and K. Ruud;
J.Chem.Theor.Comp. 2010, DOI: 10.1021/ct100117s
XCFun Version 0.99 

================================================================================

----- Orbital basis set information -----
Your calculation utilizes the basis: def2-SVP
   F. Weigend and R. Ahlrichs, Phys. Chem. Chem. Phys. 7, 3297 (2005).

----- AuxJ basis set information -----
Your calculation utilizes the auxiliary basis: def2/J
   F. Weigend, Phys. Chem. Chem. Phys. 8, 1057 (2006).

================================================================================
                                        WARNINGS
                       Please study these warnings very carefully!
================================================================================


INFO   : the flag for use of the SHARK integral package has been found!

================================================================================
                                       INPUT FILE
================================================================================
NAME = 8.inp
|  1> # ORCA 5.0.4 - 8.inp # write input file
|  2> # Basic Mode
|  3> #
|  4> ! Freq wB97X Def2-SVP D4 SlowConv TightSCF DEFGRID2 Def2/J RIJCOSX 
|  5> 
|  6> 
|  7> 
|  8> %maxcore 4500
|  9> 
| 10> %geom
| 11> Maxiter 150
| 12> END
| 13> 
| 14> * xyzfile 0 1 8.xyz
| 15> 
| 16>                          ****END OF INPUT****
================================================================================

                       ****************************
                       * Single Point Calculation *
                       ****************************

---------------------------------
CARTESIAN COORDINATES (ANGSTROEM)
---------------------------------
  C      0.307206    0.760123   -1.724586
  C      0.216640   -0.587622   -1.795827
  C     -0.071982   -0.006195    0.407699
  H      0.477435    1.511721   -2.493201
  H      0.294439   -1.270605   -2.639556
  N      0.129578    1.084213   -0.383701
  N     -0.014014   -1.024071   -0.496027
  C      0.157280    2.424773    0.118128
  C     -1.056643    3.073924    0.381191
  C      1.398488    3.039947    0.330644
  C     -1.006147    4.385939    0.859109
  C      1.406312    4.353761    0.806516
  C      0.213979    5.023211    1.066336
  H     -1.941471    4.912802    1.070180
  H      2.364492    4.852660    0.979840
  H      0.235928    6.050951    1.439156
  C     -0.169701   -2.402267   -0.141031
  C     -1.399616   -3.028525   -0.384863
  C      0.913818   -3.076602    0.438068
  C     -1.524988   -4.379793   -0.051116
  C      0.746908   -4.425589    0.761602
  C     -0.459863   -5.074222    0.515214
  H     -2.477341   -4.887854   -0.230389
  H      1.578958   -4.970185    1.217870
  H     -0.574209   -6.130534    0.773880
  C      2.679224    2.288782    0.079019
  H      2.694359    1.348235    0.652230
  H      2.793285    2.018451   -0.982664
  H      3.550832    2.890304    0.372031
  C      2.202706   -2.353685    0.722920
  H      2.592031   -1.854452   -0.178654
  H      2.039440   -1.568933    1.478294
  H      2.969233   -3.048874    1.092584
  C     -2.366826    2.361622    0.177426
  H     -3.214288    3.040604    0.345746
  H     -2.446366    1.952045   -0.842233
  H     -2.451393    1.510413    0.871167
  C     -2.553481   -2.252591   -0.963986
  H     -2.744287   -1.342709   -0.373475
  H     -2.349381   -1.927395   -1.996660
  H     -3.469054   -2.860179   -0.974274

----------------------------
CARTESIAN COORDINATES (A.U.)
----------------------------
  NO LB      ZA    FRAG     MASS         X           Y           Z
   0 C     6.0000    0    12.011    0.580535    1.436424   -3.258995
   1 C     6.0000    0    12.011    0.409390   -1.110445   -3.393621
   2 C     6.0000    0    12.011   -0.136026   -0.011707    0.770439
   3 H     1.0000    0     1.008    0.902221    2.856739   -4.711467
   4 H     1.0000    0     1.008    0.556409   -2.401095   -4.988038
   5 N     7.0000    0    14.007    0.244867    2.048866   -0.725090
   6 N     7.0000    0    14.007   -0.026483   -1.935214   -0.937355
   7 C     6.0000    0    12.011    0.297216    4.582157    0.223230
   8 C     6.0000    0    12.011   -1.996766    5.808875    0.720347
   9 C     6.0000    0    12.011    2.642759    5.744667    0.624827
  10 C     6.0000    0    12.011   -1.901342    8.288224    1.623481
  11 C     6.0000    0    12.011    2.657545    8.227416    1.524094
  12 C     6.0000    0    12.011    0.404362    9.492493    2.015083
  13 H     1.0000    0     1.008   -3.668848    9.283850    2.022347
  14 H     1.0000    0     1.008    4.468242    9.170198    1.851629
  15 H     1.0000    0     1.008    0.445839   11.434640    2.719611
  16 C     6.0000    0    12.011   -0.320688   -4.539627   -0.266510
  17 C     6.0000    0    12.011   -2.644891   -5.723083   -0.727286
  18 C     6.0000    0    12.011    1.726866   -5.813935    0.827829
  19 C     6.0000    0    12.011   -2.881810   -8.276609   -0.096595
  20 C     6.0000    0    12.011    1.411452   -8.363151    1.439219
  21 C     6.0000    0    12.011   -0.869015   -9.588890    0.973613
  22 H     1.0000    0     1.008   -4.681496   -9.236705   -0.435372
  23 H     1.0000    0     1.008    2.983798   -9.392288    2.301441
  24 H     1.0000    0     1.008   -1.085098  -11.585030    1.462421
  25 C     6.0000    0    12.011    5.063000    4.325171    0.149324
  26 H     1.0000    0     1.008    5.091601    2.547795    1.232536
  27 H     1.0000    0     1.008    5.278544    3.814320   -1.856966
  28 H     1.0000    0     1.008    6.710100    5.461883    0.703037
  29 C     6.0000    0    12.011    4.162511   -4.447820    1.366121
  30 H     1.0000    0     1.008    4.898229   -3.504406   -0.337607
  31 H     1.0000    0     1.008    3.853983   -2.964854    2.793571
  32 H     1.0000    0     1.008    5.611037   -5.761537    2.064685
  33 C     6.0000    0    12.011   -4.472653    4.462819    0.335287
  34 H     1.0000    0     1.008   -6.074124    5.745909    0.653365
  35 H     1.0000    0     1.008   -4.622962    3.688830   -1.591590
  36 H     1.0000    0     1.008   -4.632461    2.854267    1.646267
  37 C     6.0000    0    12.011   -4.825380   -4.256780   -1.821670
  38 H     1.0000    0     1.008   -5.185951   -2.537352   -0.705765
  39 H     1.0000    0     1.008   -4.439687   -3.642249   -3.773141
  40 H     1.0000    0     1.008   -6.555562   -5.404955   -1.841111

--------------------------------
INTERNAL COORDINATES (ANGSTROEM)
--------------------------------
 C      0   0   0     0.000000000000     0.00000000     0.00000000
 C      1   0   0     1.352661844462     0.00000000     0.00000000
 C      2   1   0     2.297147545955    72.88463281     0.00000000
 H      1   2   3     1.088414665589   131.40007726   180.15145730
 H      2   1   3     1.088300091028   131.40158525   180.13086323
 N      3   2   1     1.362325218171    68.08418609     0.00000000
 N      3   2   1     1.362406886167    33.82484107   179.86480116
 C      6   3   2     1.431677638173   123.27798645   180.11304737
 C      8   6   3     1.401502127255   118.86427967   280.33377446
 C      8   6   3     1.401498983159   118.76976715   100.23303248
 C      9   8   6     1.397261185665   117.89304060   180.55793603
 C     10   8   6     1.397362730989   117.98845581   179.29457548
 C     12  10   8     1.391879203735   120.72944808     0.33227922
 H     11   9   8     1.094059675148   119.16187466   179.92317681
 H     12  10   8     1.094097954288   119.18163779   179.96769910
 H     13  12  10     1.093492578210   119.90056467   179.95480858
 C      7   3   2     1.431672035210   123.37414411   179.76951254
 C     17   7   3     1.401550582039   118.84434544   101.55407099
 C     17   7   3     1.401462367453   118.78848522   281.55732024
 C     18  17   7     1.397508642627   117.98399878   178.99370384
 C     19  17   7     1.397246980109   117.89609880   180.79545218
 C     20  18  17     1.391924053448   120.72440897     0.46792516
 H     20  18  17     1.094185096252   119.20389668   179.83040477
 H     21  19  17     1.094108081288   119.09629851   180.21620226
 H     22  20  18     1.093516414425   119.87773186   179.80799708
 C     10   8   6     1.505937813970   120.59118684   357.99993865
 H     26  10   8     1.101557342109   110.52599064   304.97816913
 H     26  10   8     1.101480618881   111.81043919    63.92773403
 H     26  10   8     1.098810836446   110.91554567   184.55948054
 C     19  17   7     1.504985690077   120.61084224     1.97218446
 H     30  19  17     1.101654765065   111.43447524   305.83939774
 H     30  19  17     1.101399731313   110.18842215    64.34098136
 H     30  19  17     1.098864350294   110.92739411   184.97618385
 C      9   8   6     1.505149098235   120.62080578     1.72774642
 H     34   9   8     1.098881258448   110.98734284   184.92718816
 H     34   9   8     1.101718841996   111.35057538   305.79828256
 H     34   9   8     1.101355943486   110.32355232    64.28462544
 C     18  17   7     1.506274032077   120.59314497   357.80373736
 H     38  18  17     1.101360715062   110.61867717   307.42472490
 H     38  18  17     1.101737191299   111.74722213    66.41070525
 H     38  18  17     1.098882586547   110.91772000   186.96535823

---------------------------
INTERNAL COORDINATES (A.U.)
---------------------------
 C      0   0   0     0.000000000000     0.00000000     0.00000000
 C      1   0   0     2.556160437837     0.00000000     0.00000000
 C      2   1   0     4.340979751065    72.88463281     0.00000000
 H      1   2   3     2.056805638107   131.40007726   180.15145730
 H      2   1   3     2.056589123564   131.40158525   180.13086323
 N      3   2   1     2.574421567677    68.08418609     0.00000000
 N      3   2   1     2.574575897825    33.82484107   179.86480116
 C      6   3   2     2.705478648206   123.27798645   180.11304737
 C      8   6   3     2.648455196619   118.86427967   280.33377446
 C      8   6   3     2.648449255140   118.76976715   100.23303248
 C      9   8   6     2.640440978464   117.89304060   180.55793603
 C     10   8   6     2.640632871317   117.98845581   179.29457548
 C     12  10   8     2.630270506559   120.72944808     0.33227922
 H     11   9   8     2.067473160197   119.16187466   179.92317681
 H     12  10   8     2.067545497288   119.18163779   179.96769910
 H     13  12  10     2.066401502293   119.90056467   179.95480858
 C      7   3   2     2.705468060140   123.37414411   179.76951254
 C     17   7   3     2.648546762891   118.84434544   101.55407099
 C     17   7   3     2.648380061483   118.78848522   281.55732024
 C     18  17   7     2.640908604353   117.98399878   178.99370384
 C     19  17   7     2.640414133855   117.89609880   180.79545218
 C     20  18  17     2.630355260234   120.72440897     0.46792516
 H     20  18  17     2.067710171734   119.20389668   179.83040477
 H     21  19  17     2.067564634545   119.09629851   180.21620226
 H     22  20  18     2.066446546210   119.87773186   179.80799708
 C     10   8   6     2.845810043120   120.59118684   357.99993865
 H     26  10   8     2.081641697397   110.52599064   304.97816913
 H     26  10   8     2.081496711508   111.81043919    63.92773403
 H     26  10   8     2.076451553869   110.91554567   184.55948054
 C     19  17   7     2.844010789716   120.61084224     1.97218446
 H     30  19  17     2.081825800102   111.43447524   305.83939774
 H     30  19  17     2.081343856156   110.18842215    64.34098136
 H     30  19  17     2.076552680384   110.92739411   184.97618385
 C      9   8   6     2.844319586383   120.62080578     1.72774642
 H     34   9   8     2.076584632165   110.98734284   184.92718816
 H     34   9   8     2.081946887954   111.35057538   305.79828256
 H     34   9   8     2.081261109154   110.32355232    64.28462544
 C     18  17   7     2.846445403263   120.59314497   357.80373736
 H     38  18  17     2.081270126126   110.61867717   307.42472490
 H     38  18  17     2.081981563111   111.74722213    66.41070525
 H     38  18  17     2.076587141910   110.91772000   186.96535823

---------------------
BASIS SET INFORMATION
---------------------
There are 3 groups of distinct atoms

 Group   1 Type C   : 7s4p1d contracted to 3s2p1d pattern {511/31/1}
 Group   2 Type H   : 4s1p contracted to 2s1p pattern {31/1}
 Group   3 Type N   : 7s4p1d contracted to 3s2p1d pattern {511/31/1}

Atom   0C    basis set group =>   1
Atom   1C    basis set group =>   1
Atom   2C    basis set group =>   1
Atom   3H    basis set group =>   2
Atom   4H    basis set group =>   2
Atom   5N    basis set group =>   3
Atom   6N    basis set group =>   3
Atom   7C    basis set group =>   1
Atom   8C    basis set group =>   1
Atom   9C    basis set group =>   1
Atom  10C    basis set group =>   1
Atom  11C    basis set group =>   1
Atom  12C    basis set group =>   1
Atom  13H    basis set group =>   2
Atom  14H    basis set group =>   2
Atom  15H    basis set group =>   2
Atom  16C    basis set group =>   1
Atom  17C    basis set group =>   1
Atom  18C    basis set group =>   1
Atom  19C    basis set group =>   1
Atom  20C    basis set group =>   1
Atom  21C    basis set group =>   1
Atom  22H    basis set group =>   2
Atom  23H    basis set group =>   2
Atom  24H    basis set group =>   2
Atom  25C    basis set group =>   1
Atom  26H    basis set group =>   2
Atom  27H    basis set group =>   2
Atom  28H    basis set group =>   2
Atom  29C    basis set group =>   1
Atom  30H    basis set group =>   2
Atom  31H    basis set group =>   2
Atom  32H    basis set group =>   2
Atom  33C    basis set group =>   1
Atom  34H    basis set group =>   2
Atom  35H    basis set group =>   2
Atom  36H    basis set group =>   2
Atom  37C    basis set group =>   1
Atom  38H    basis set group =>   2
Atom  39H    basis set group =>   2
Atom  40H    basis set group =>   2
---------------------------------
AUXILIARY/J BASIS SET INFORMATION
---------------------------------
There are 3 groups of distinct atoms

 Group   1 Type C   : 12s5p4d2f1g contracted to 6s4p3d1f1g pattern {711111/2111/211/2/1}
 Group   2 Type H   : 5s2p1d contracted to 3s1p1d pattern {311/2/1}
 Group   3 Type N   : 12s5p4d2f1g contracted to 6s4p3d1f1g pattern {711111/2111/211/2/1}

Atom   0C    basis set group =>   1
Atom   1C    basis set group =>   1
Atom   2C    basis set group =>   1
Atom   3H    basis set group =>   2
Atom   4H    basis set group =>   2
Atom   5N    basis set group =>   3
Atom   6N    basis set group =>   3
Atom   7C    basis set group =>   1
Atom   8C    basis set group =>   1
Atom   9C    basis set group =>   1
Atom  10C    basis set group =>   1
Atom  11C    basis set group =>   1
Atom  12C    basis set group =>   1
Atom  13H    basis set group =>   2
Atom  14H    basis set group =>   2
Atom  15H    basis set group =>   2
Atom  16C    basis set group =>   1
Atom  17C    basis set group =>   1
Atom  18C    basis set group =>   1
Atom  19C    basis set group =>   1
Atom  20C    basis set group =>   1
Atom  21C    basis set group =>   1
Atom  22H    basis set group =>   2
Atom  23H    basis set group =>   2
Atom  24H    basis set group =>   2
Atom  25C    basis set group =>   1
Atom  26H    basis set group =>   2
Atom  27H    basis set group =>   2
Atom  28H    basis set group =>   2
Atom  29C    basis set group =>   1
Atom  30H    basis set group =>   2
Atom  31H    basis set group =>   2
Atom  32H    basis set group =>   2
Atom  33C    basis set group =>   1
Atom  34H    basis set group =>   2
Atom  35H    basis set group =>   2
Atom  36H    basis set group =>   2
Atom  37C    basis set group =>   1
Atom  38H    basis set group =>   2
Atom  39H    basis set group =>   2
Atom  40H    basis set group =>   2
------------------------------------------------------------------------------
                           ORCA GTO INTEGRAL CALCULATION
                           -- RI-GTO INTEGRALS CHOSEN --
------------------------------------------------------------------------------
------------------------------------------------------------------------------
                   ___                                                        
                  /   \      - P O W E R E D   B Y -                         
                 /     \                                                     
                 |  |  |   _    _      __       _____    __    __             
                 |  |  |  | |  | |    /  \     |  _  \  |  |  /  |          
                  \  \/   | |  | |   /    \    | | | |  |  | /  /          
                 / \  \   | |__| |  /  /\  \   | |_| |  |  |/  /          
                |  |  |   |  __  | /  /__\  \  |    /   |      \           
                |  |  |   | |  | | |   __   |  |    \   |  |\   \          
                \     /   | |  | | |  |  |  |  | |\  \  |  | \   \       
                 \___/    |_|  |_| |__|  |__|  |_| \__\ |__|  \__/        
                                                                              
                      - O R C A' S   B I G   F R I E N D -                    
                                      &                                       
                       - I N T E G R A L  F E E D E R -                       
                                                                              
 v1 FN, 2020, v2 2021                                                         
------------------------------------------------------------------------------


Reading SHARK input file 8.SHARKINP.tmp ... ok
----------------------
SHARK INTEGRAL PACKAGE
----------------------

Number of atoms                             ...     41
Number of basis functions                   ...    394
Number of shells                            ...    186
Maximum angular momentum                    ...      2
Integral batch strategy                     ... SHARK/LIBINT Hybrid
RI-J (if used) integral strategy            ... SPLIT-RIJ (Revised 2003 algorithm where possible)
Printlevel                                  ...      1
Contraction scheme used                     ... SEGMENTED contraction
Coulomb Range Separation                    ... NOT USED
Exchange Range Separation                   ... Long Range
   Mu parameter                             ...  0.300000
   Scaling (regular/separated)              ...  0.157706  0.842294
Finite Nucleus Model                        ... NOT USED
Auxiliary Coulomb fitting basis             ... AVAILABLE
   # of basis functions in Aux-J            ...   1249
   # of shells in Aux-J                     ...    415
   Maximum angular momentum in Aux-J        ...      4
Auxiliary J/K fitting basis                 ... NOT available
Auxiliary Correlation fitting basis         ... NOT available
Auxiliary 'external' fitting basis          ... NOT available
Integral threshold                          ...     2.500000e-11
Primitive cut-off                           ...     2.500000e-12
Primitive pair pre-selection threshold      ...     2.500000e-12

Calculating pre-screening integrals         ... done (  0.1 sec) Dimension = 186
Organizing shell pair data                  ... done (  0.1 sec)
Shell pair information
Total number of shell pairs                 ...     17391
Shell pairs after pre-screening             ...     13190
Total number of primitive shell pairs       ...     62461
Primitive shell pairs kept                  ...     30371
          la=0 lb=0:   4164 shell pairs
          la=1 lb=0:   4923 shell pairs
          la=1 lb=1:   1492 shell pairs
          la=2 lb=0:   1542 shell pairs
          la=2 lb=1:    917 shell pairs
          la=2 lb=2:    152 shell pairs

Calculating one electron integrals          ... done (  0.1 sec)
Calculating RI/J V-Matrix + Cholesky decomp.... done (  0.1 sec)
Calculating Nuclear repulsion               ... done (  0.0 sec) ENN=   1592.970320081450 Eh

SHARK setup successfully completed in   0.6 seconds

Maximum memory used throughout the entire GTOINT-calculation: 79.5 MB
-------------------------------------------------------------------------------
                                 ORCA SCF
-------------------------------------------------------------------------------

------------
SCF SETTINGS
------------
Hamiltonian:
 Density Functional     Method          .... DFT(GTOs)
 Exchange Functional    Exchange        .... WB97X
 Correlation Functional Correlation     .... WB97X
 Gradients option       PostSCFGGA      .... off
 Hybrid DFT is turned on
   Fraction HF Exchange ScalHFX         ....  0.157706
   Scaling of DF-GGA-X  ScalDFX         ....  0.000000
   Scaling of DF-GGA-C  ScalDFC         ....  1.000000
   Scaling of DF-LDA-C  ScalLDAC        ....  1.000000
   Perturbative correction              ....  0.000000
   Density functional embedding theory  .... OFF
 Long-range corrected/Screened/Range-Separated Hybrid DFT is turned on
   Amount of maximum screened exact exchange              ....  0.842294
   Range separation parameter mu (erf(mu*r12)/r12)        ....  0.300000
 RI-approximation to the Coulomb term is turned on
   Number of AuxJ basis functions       .... 1249
   RIJ-COSX (HFX calculated with COS-X)).... on


General Settings:
 Integral files         IntName         .... 8
 Hartree-Fock type      HFTyp           .... RHF
 Total Charge           Charge          ....    0
 Multiplicity           Mult            ....    1
 Number of Electrons    NEL             ....  148
 Basis Dimension        Dim             ....  394
 Nuclear Repulsion      ENuc            ....   1592.9703200814 Eh

Convergence Acceleration:
 DIIS                   CNVDIIS         .... on
   Start iteration      DIISMaxIt       ....     0
   Startup error        DIISStart       ....  0.200000
   # of expansion vecs  DIISMaxEq       ....     5
   Bias factor          DIISBfac        ....   1.050
   Max. coefficient     DIISMaxC        ....  10.000
 Trust-Rad. Augm. Hess. CNVTRAH         .... auto
   Auto Start mean grad. ratio tolernc. ....  1.125000
   Auto Start start iteration           ....    20
   Auto Start num. interpolation iter.  ....    10
   Max. Number of Micro iterations      ....    16
   Max. Number of Macro iterations      .... Maxiter - #DIIS iter
   Number of Davidson start vectors     ....     2
   Converg. threshold I  (grad. norm)   ....   1.000e-05
   Converg. threshold II (energy diff.) ....   1.000e-08
   Grad. Scal. Fac. for Micro threshold ....   0.100
   Minimum threshold for Micro iter.    ....   0.010
   NR start threshold (gradient norm)   ....   0.001
   Initial trust radius                 ....   0.400
   Minimum AH scaling param. (alpha)    ....   1.000
   Maximum AH scaling param. (alpha)    .... 1000.000
   Orbital update algorithm             .... Taylor
   White noise on init. David. guess    .... on
   Maximum white noise                  ....   0.010
   Quad. conv. algorithm                .... NR
 SOSCF                  CNVSOSCF        .... on
   Start iteration      SOSCFMaxIt      ....   150
   Startup grad/error   SOSCFStart      ....  0.001000
 Level Shifting         CNVShift        .... on
   Level shift para.    LevelShift      ....    0.2500
   Turn off err/grad.   ShiftErr        ....    0.0000
 Zerner damping         CNVZerner       .... off
 Static damping         CNVDamp         .... on
   Fraction old density DampFac         ....    0.8500
   Max. Damping (<1)    DampMax         ....    0.9800
   Min. Damping (>=0)   DampMin         ....    0.0000
   Turn off err/grad.   DampErr         ....    0.0300
 Fernandez-Rico         CNVRico         .... off

SCF Procedure:
 Maximum # iterations   MaxIter         ....   125
 SCF integral mode      SCFMode         .... Direct
   Integral package                     .... SHARK and LIBINT hybrid scheme
 Reset frequency        DirectResetFreq ....    20
 Integral Threshold     Thresh          ....  2.500e-11 Eh
 Primitive CutOff       TCut            ....  2.500e-12 Eh

Convergence Tolerance:
 Convergence Check Mode ConvCheckMode   .... Total+1el-Energy
 Convergence forced     ConvForced      .... 0
 Energy Change          TolE            ....  1.000e-08 Eh
 1-El. energy change                    ....  1.000e-05 Eh
 Orbital Gradient       TolG            ....  1.000e-05
 Orbital Rotation angle TolX            ....  1.000e-05
 DIIS Error             TolErr          ....  5.000e-07


Diagonalization of the overlap matrix:
Smallest eigenvalue                        ... 2.034e-04
Time for diagonalization                   ...    0.027 sec
Threshold for overlap eigenvalues          ... 1.000e-08
Number of eigenvalues below threshold      ... 0
Time for construction of square roots      ...    0.011 sec
Total time needed                          ...    0.039 sec

Time for model grid setup =    1.303 sec

------------------------------
INITIAL GUESS: MODEL POTENTIAL
------------------------------
Loading Hartree-Fock densities                     ... done
Calculating cut-offs                               ... done
Initializing the effective Hamiltonian             ... done
Setting up the integral package (SHARK)            ... done
Starting the Coulomb interaction                   ... done (   1.6 sec)
Reading the grid                                   ... done
Mapping shells                                     ... done
Starting the XC term evaluation                    ... done (   1.2 sec)
  promolecular density results
     # of electrons  =    147.989430302
     EX              =   -116.175189280
     EC              =     -4.930933233
     EX+EC           =   -121.106122513
Transforming the Hamiltonian                       ... done (   0.0 sec)
Diagonalizing the Hamiltonian                      ... done (   0.0 sec)
Back transforming the eigenvectors                 ... done (   0.0 sec)
Now organizing SCF variables                       ... done
                      ------------------
                      INITIAL GUESS DONE (   4.2 sec)
                      ------------------
-------------------
DFT GRID GENERATION
-------------------

General Integration Accuracy     IntAcc      ... 4.388
Radial Grid Type                 RadialGrid  ... OptM3 with GC (2021)
Angular Grid (max. ang.)         AngularGrid ... 4 (Lebedev-302)
Angular grid pruning method      GridPruning ... 4 (adaptive)
Weight generation scheme         WeightScheme... Becke
Basis function cutoff            BFCut       ... 1.0000e-11
Integration weight cutoff        WCut        ... 1.0000e-14
Angular grids for H and He will be reduced by one unit
Partially contracted basis set               ... off
Rotationally invariant grid construction     ... off

Total number of grid points                  ...   188762
Total number of batches                      ...     2972
Average number of points per batch           ...       63
Average number of grid points per atom       ...     4604
Time for grid setup =    4.432 sec

--------------------
COSX GRID GENERATION
--------------------

GRIDX 1
-------
General Integration Accuracy     IntAcc      ... 3.816
Radial Grid Type                 RadialGrid  ... OptM3 with GC (2021)
Angular Grid (max. ang.)         AngularGrid ... 1 (Lebedev-50)
Angular grid pruning method      GridPruning ... 4 (adaptive)
Weight generation scheme         WeightScheme... Becke
Basis function cutoff            BFCut       ... 1.0000e-11
Integration weight cutoff        WCut        ... 1.0000e-14
Angular grids for H and He will be reduced by one unit
Partially contracted basis set               ... on
Rotationally invariant grid construction     ... off

Total number of grid points                  ...    24067
Total number of batches                      ...      394
Average number of points per batch           ...       61
Average number of grid points per atom       ...      587
UseSFitting                                  ... on

GRIDX 2
-------
General Integration Accuracy     IntAcc      ... 4.020
Radial Grid Type                 RadialGrid  ... OptM3 with GC (2021)
Angular Grid (max. ang.)         AngularGrid ... 2 (Lebedev-110)
Angular grid pruning method      GridPruning ... 4 (adaptive)
Weight generation scheme         WeightScheme... Becke
Basis function cutoff            BFCut       ... 1.0000e-11
Integration weight cutoff        WCut        ... 1.0000e-14
Angular grids for H and He will be reduced by one unit
Partially contracted basis set               ... on
Rotationally invariant grid construction     ... off

Total number of grid points                  ...    51436
Total number of batches                      ...      822
Average number of points per batch           ...       62
Average number of grid points per atom       ...     1255
UseSFitting                                  ... on

GRIDX 3
-------
General Integration Accuracy     IntAcc      ... 4.338
Radial Grid Type                 RadialGrid  ... OptM3 with GC (2021)
Angular Grid (max. ang.)         AngularGrid ... 3 (Lebedev-194)
Angular grid pruning method      GridPruning ... 4 (adaptive)
Weight generation scheme         WeightScheme... Becke
Basis function cutoff            BFCut       ... 1.0000e-11
Integration weight cutoff        WCut        ... 1.0000e-14
Angular grids for H and He will be reduced by one unit
Partially contracted basis set               ... on
Rotationally invariant grid construction     ... off

Total number of grid points                  ...   112086
Total number of batches                      ...     1775
Average number of points per batch           ...       63
Average number of grid points per atom       ...     2734
UseSFitting                                  ... on

Time for X-Grid setup             =    5.879 sec

--------------
SCF ITERATIONS
--------------
ITER       Energy         Delta-E        Max-DP      RMS-DP      [F,P]     Damp
               ***  Starting incremental Fock matrix formation  ***
  0   -844.3324894249   0.000000000000 0.03319183  0.00068283  0.1492491 0.8500
  1   -844.4108164949  -0.078327069964 0.03425918  0.00063723  0.1209006 0.8500
                               ***Turning on DIIS***
  2   -844.4714444607  -0.060627965788 0.02973198  0.00052795  0.0935608 0.8500
  3   -844.5170763908  -0.045631930094 0.02409483  0.00040014  0.0715464 0.8500
  4   -844.5525445834  -0.035468192623 0.01995417  0.00031865  0.0571998 0.8500
  5   -844.5806195083  -0.028074924872 0.01691450  0.00026541  0.0473718 0.8500
  6   -844.6034695096  -0.022850001361 0.01448326  0.00022502  0.0398701 0.8500
  7   -844.6223783859  -0.018908876289 0.01251935  0.00019315  0.0337779 0.8500
  8   -844.6381841581  -0.015805772182 0.07222988  0.00110443  0.0285807 0.0000
  9   -844.7232505152  -0.085066357096 0.00130615  0.00002970  0.0011237 0.0000
                      *** Initiating the SOSCF procedure ***
                           *** Shutting down DIIS ***
                      *** Re-Reading the Fockian *** 
                      *** Removing any level shift *** 
ITER      Energy       Delta-E        Grad      Rot      Max-DP    RMS-DP
 10   -844.72328410  -0.0000335799  0.000490  0.000490  0.000965  0.000015
               *** Restarting incremental Fock matrix formation ***
 11   -844.72322115   0.0000629460  0.000276  0.000620  0.000578  0.000015
 12   -844.72322327  -0.0000021256  0.000128  0.000605  0.000400  0.000011
 13   -844.72322378  -0.0000005075  0.000056  0.000105  0.000172  0.000005
 14   -844.72322391  -0.0000001270  0.000011  0.000016  0.000048  0.000001
 15   -844.72322391  -0.0000000056  0.000004  0.000010  0.000018  0.000000
                  ***Gradient check signals convergence***
              ***Rediagonalizing the Fockian in SOSCF/NRSCF***

               *****************************************************
               *                     SUCCESS                       *
               *           SCF CONVERGED AFTER  16 CYCLES          *
               *****************************************************

Old exchange energy                            =    -38.151214601 Eh
New exchange energy                            =    -38.151287204 Eh
Exchange energy change after final integration =     -0.000072603 Eh
Total energy after final integration           =   -844.723296525 Eh
Final COS-X integration done in                =   186.840 sec

----------------
TOTAL SCF ENERGY
----------------

Total Energy       :         -844.72329653 Eh          -22986.08949 eV

Components:
Nuclear Repulsion  :         1592.97032008 Eh           43346.92612 eV
Electronic Energy  :        -2437.69361661 Eh          -66333.01561 eV
One Electron Energy:        -4304.71387590 Eh         -117137.21970 eV
Two Electron Energy:         1867.02025929 Eh           50804.20409 eV
Max COSX asymmetry :            0.00000291 Eh               0.00008 eV

Virial components:
Potential Energy   :        -1679.54582860 Eh          -45702.76548 eV
Kinetic Energy     :          834.82253207 Eh           22716.67599 eV
Virial Ratio       :            2.01185972


DFT components:
N(Alpha)           :       73.999876302913 electrons
N(Beta)            :       73.999876302913 electrons
N(Total)           :      147.999752605825 electrons
E(XC)              :      -85.856877952915 Eh       
DFET-embed. en.    :        0.000000000000 Eh       

---------------
SCF CONVERGENCE
---------------

  Last Energy change         ...   -7.4417e-09  Tolerance :   1.0000e-08
  Last MAX-Density change    ...    3.9968e-15  Tolerance :   1.0000e-07
  Last RMS-Density change    ...    4.2753e-17  Tolerance :   5.0000e-09
  Last Orbital Gradient      ...    1.3436e-06  Tolerance :   1.0000e-05
  Last Orbital Rotation      ...    4.2687e-06  Tolerance :   1.0000e-05

             **** THE GBW FILE WAS UPDATED (8.gbw) ****
             **** DENSITY 8.scfp WAS UPDATED ****
             **** ENERGY FILE WAS UPDATED (8.en.tmp) ****
             **** THE GBW FILE WAS UPDATED (8.gbw) ****
             **** DENSITY 8.scfp WAS UPDATED ****
----------------
ORBITAL ENERGIES
----------------

  NO   OCC          E(Eh)            E(eV) 
   0   2.0000     -14.452986      -393.2857 
   1   2.0000     -14.452976      -393.2855 
   2   2.0000     -10.305723      -280.4330 
   3   2.0000     -10.305659      -280.4312 
   4   2.0000     -10.304386      -280.3966 
   5   2.0000     -10.303783      -280.3802 
   6   2.0000     -10.285013      -279.8694 
   7   2.0000     -10.284919      -279.8669 
   8   2.0000     -10.283927      -279.8399 
   9   2.0000     -10.283757      -279.8353 
  10   2.0000     -10.277373      -279.6615 
  11   2.0000     -10.275597      -279.6132 
  12   2.0000     -10.275595      -279.6131 
  13   2.0000     -10.272019      -279.5158 
  14   2.0000     -10.271896      -279.5125 
  15   2.0000     -10.271821      -279.5105 
  16   2.0000     -10.271779      -279.5093 
  17   2.0000     -10.271252      -279.4950 
  18   2.0000     -10.271218      -279.4941 
  19   2.0000     -10.267165      -279.3838 
  20   2.0000     -10.266761      -279.3728 
  21   2.0000      -1.154450       -31.4142 
  22   2.0000      -1.055207       -28.7136 
  23   2.0000      -0.993958       -27.0470 
  24   2.0000      -0.973002       -26.4767 
  25   2.0000      -0.910716       -24.7818 
  26   2.0000      -0.910546       -24.7772 
  27   2.0000      -0.904133       -24.6027 
  28   2.0000      -0.870817       -23.6961 
  29   2.0000      -0.867401       -23.6032 
  30   2.0000      -0.827436       -22.5157 
  31   2.0000      -0.809496       -22.0275 
  32   2.0000      -0.799813       -21.7640 
  33   2.0000      -0.799101       -21.7446 
  34   2.0000      -0.758664       -20.6443 
  35   2.0000      -0.735066       -20.0022 
  36   2.0000      -0.697034       -18.9673 
  37   2.0000      -0.694970       -18.9111 
  38   2.0000      -0.692151       -18.8344 
  39   2.0000      -0.676817       -18.4171 
  40   2.0000      -0.649554       -17.6753 
  41   2.0000      -0.615690       -16.7538 
  42   2.0000      -0.609126       -16.5751 
  43   2.0000      -0.596046       -16.2192 
  44   2.0000      -0.591757       -16.1025 
  45   2.0000      -0.560927       -15.2636 
  46   2.0000      -0.556216       -15.1354 
  47   2.0000      -0.551387       -15.0040 
  48   2.0000      -0.534191       -14.5361 
  49   2.0000      -0.532983       -14.5032 
  50   2.0000      -0.529199       -14.4002 
  51   2.0000      -0.523551       -14.2465 
  52   2.0000      -0.522829       -14.2269 
  53   2.0000      -0.518969       -14.1219 
  54   2.0000      -0.518285       -14.1033 
  55   2.0000      -0.512360       -13.9420 
  56   2.0000      -0.512239       -13.9387 
  57   2.0000      -0.510547       -13.8927 
  58   2.0000      -0.507998       -13.8233 
  59   2.0000      -0.479310       -13.0427 
  60   2.0000      -0.477070       -12.9817 
  61   2.0000      -0.458535       -12.4774 
  62   2.0000      -0.456135       -12.4121 
  63   2.0000      -0.454234       -12.3603 
  64   2.0000      -0.450857       -12.2684 
  65   2.0000      -0.444630       -12.0990 
  66   2.0000      -0.443262       -12.0618 
  67   2.0000      -0.388609       -10.5746 
  68   2.0000      -0.341033        -9.2800 
  69   2.0000      -0.340358        -9.2616 
  70   2.0000      -0.334339        -9.0978 
  71   2.0000      -0.333082        -9.0636 
  72   2.0000      -0.327932        -8.9235 
  73   2.0000      -0.313202        -8.5227 
  74   0.0000       0.066561         1.8112 
  75   0.0000       0.071158         1.9363 
  76   0.0000       0.077461         2.1078 
  77   0.0000       0.078029         2.1233 
  78   0.0000       0.114145         3.1061 
  79   0.0000       0.118036         3.2119 
  80   0.0000       0.139619         3.7992 
  81   0.0000       0.157622         4.2891 
  82   0.0000       0.159236         4.3330 
  83   0.0000       0.170863         4.6494 
  84   0.0000       0.179829         4.8934 
  85   0.0000       0.181486         4.9385 
  86   0.0000       0.186716         5.0808 
  87   0.0000       0.197093         5.3632 
  88   0.0000       0.205374         5.5885 
  89   0.0000       0.208973         5.6865 
  90   0.0000       0.217839         5.9277 
  91   0.0000       0.231580         6.3016 
  92   0.0000       0.234832         6.3901 
  93   0.0000       0.241620         6.5748 
  94   0.0000       0.242472         6.5980 
  95   0.0000       0.244992         6.6666 
  96   0.0000       0.252995         6.8843 
  97   0.0000       0.253552         6.8995 
  98   0.0000       0.256285         6.9739 
  99   0.0000       0.258731         7.0404 
 100   0.0000       0.275534         7.4976 
 101   0.0000       0.286288         7.7903 
 102   0.0000       0.288326         7.8458 
 103   0.0000       0.305207         8.3051 
 104   0.0000       0.309399         8.4192 
 105   0.0000       0.314533         8.5589 
 106   0.0000       0.337007         9.1704 
 107   0.0000       0.337960         9.1964 
 108   0.0000       0.359729         9.7887 
 109   0.0000       0.366695         9.9783 
 110   0.0000       0.374250        10.1839 
 111   0.0000       0.399347        10.8668 
 112   0.0000       0.407144        11.0789 
 113   0.0000       0.408577        11.1179 
 114   0.0000       0.410236        11.1631 
 115   0.0000       0.431355        11.7378 
 116   0.0000       0.433206        11.7881 
 117   0.0000       0.436729        11.8840 
 118   0.0000       0.443862        12.0781 
 119   0.0000       0.444778        12.1030 
 120   0.0000       0.452006        12.2997 
 121   0.0000       0.464154        12.6303 
 122   0.0000       0.466139        12.6843 
 123   0.0000       0.490708        13.3529 
 124   0.0000       0.497377        13.5343 
 125   0.0000       0.500994        13.6328 
 126   0.0000       0.514556        14.0018 
 127   0.0000       0.515998        14.0410 
 128   0.0000       0.525199        14.2914 
 129   0.0000       0.527118        14.3436 
 130   0.0000       0.528155        14.3718 
 131   0.0000       0.537485        14.6257 
 132   0.0000       0.539122        14.6703 
 133   0.0000       0.550229        14.9725 
 134   0.0000       0.553215        15.0537 
 135   0.0000       0.554925        15.1003 
 136   0.0000       0.570304        15.5188 
 137   0.0000       0.578928        15.7534 
 138   0.0000       0.591108        16.0849 
 139   0.0000       0.593153        16.1405 
 140   0.0000       0.594363        16.1734 
 141   0.0000       0.600219        16.3328 
 142   0.0000       0.601140        16.3579 
 143   0.0000       0.606212        16.4959 
 144   0.0000       0.610514        16.6129 
 145   0.0000       0.641832        17.4651 
 146   0.0000       0.645499        17.5649 
 147   0.0000       0.651828        17.7371 
 148   0.0000       0.670455        18.2440 
 149   0.0000       0.675285        18.3754 
 150   0.0000       0.691743        18.8233 
 151   0.0000       0.692237        18.8367 
 152   0.0000       0.696022        18.9397 
 153   0.0000       0.706408        19.2223 
 154   0.0000       0.707302        19.2467 
 155   0.0000       0.716728        19.5032 
 156   0.0000       0.722472        19.6595 
 157   0.0000       0.728050        19.8112 
 158   0.0000       0.731336        19.9007 
 159   0.0000       0.746649        20.3173 
 160   0.0000       0.748250        20.3609 
 161   0.0000       0.748604        20.3705 
 162   0.0000       0.750207        20.4142 
 163   0.0000       0.753345        20.4996 
 164   0.0000       0.758155        20.6305 
 165   0.0000       0.763877        20.7862 
 166   0.0000       0.770007        20.9530 
 167   0.0000       0.770857        20.9761 
 168   0.0000       0.772085        21.0095 
 169   0.0000       0.780916        21.2498 
 170   0.0000       0.782303        21.2876 
 171   0.0000       0.792496        21.5649 
 172   0.0000       0.797387        21.6980 
 173   0.0000       0.797666        21.7056 
 174   0.0000       0.797819        21.7098 
 175   0.0000       0.800823        21.7915 
 176   0.0000       0.805305        21.9135 
 177   0.0000       0.815369        22.1873 
 178   0.0000       0.818348        22.2684 
 179   0.0000       0.822575        22.3834 
 180   0.0000       0.825389        22.4600 
 181   0.0000       0.825994        22.4765 
 182   0.0000       0.832736        22.6599 
 183   0.0000       0.847472        23.0609 
 184   0.0000       0.853262        23.2184 
 185   0.0000       0.862040        23.4573 
 186   0.0000       0.863843        23.5064 
 187   0.0000       0.875429        23.8216 
 188   0.0000       0.877456        23.8768 
 189   0.0000       0.883300        24.0358 
 190   0.0000       0.884131        24.0584 
 191   0.0000       0.902229        24.5509 
 192   0.0000       0.903249        24.5787 
 193   0.0000       0.907779        24.7019 
 194   0.0000       0.908214        24.7138 
 195   0.0000       0.925943        25.1962 
 196   0.0000       0.941388        25.6165 
 197   0.0000       0.945742        25.7349 
 198   0.0000       0.952582        25.9211 
 199   0.0000       0.953477        25.9454 
 200   0.0000       0.963118        26.2078 
 201   0.0000       0.972032        26.4503 
 202   0.0000       0.980382        26.6776 
 203   0.0000       1.021362        27.7927 
 204   0.0000       1.028986        28.0001 
 205   0.0000       1.034382        28.1470 
 206   0.0000       1.041374        28.3372 
 207   0.0000       1.073151        29.2019 
 208   0.0000       1.093559        29.7572 
 209   0.0000       1.131361        30.7859 
 210   0.0000       1.160446        31.5773 
 211   0.0000       1.164409        31.6852 
 212   0.0000       1.216424        33.1006 
 213   0.0000       1.246435        33.9172 
 214   0.0000       1.254606        34.1396 
 215   0.0000       1.256052        34.1789 
 216   0.0000       1.265292        34.4304 
 217   0.0000       1.277451        34.7612 
 218   0.0000       1.280715        34.8500 
 219   0.0000       1.285069        34.9685 
 220   0.0000       1.292348        35.1666 
 221   0.0000       1.317960        35.8635 
 222   0.0000       1.323424        36.0122 
 223   0.0000       1.337711        36.4010 
 224   0.0000       1.343076        36.5469 
 225   0.0000       1.349589        36.7242 
 226   0.0000       1.351081        36.7648 
 227   0.0000       1.356414        36.9099 
 228   0.0000       1.362812        37.0840 
 229   0.0000       1.365346        37.1530 
 230   0.0000       1.366808        37.1927 
 231   0.0000       1.398866        38.0651 
 232   0.0000       1.399850        38.0918 
 233   0.0000       1.453200        39.5436 
 234   0.0000       1.462478        39.7960 
 235   0.0000       1.473471        40.0952 
 236   0.0000       1.508103        41.0376 
 237   0.0000       1.536694        41.8156 
 238   0.0000       1.568073        42.6694 
 239   0.0000       1.600196        43.5435 
 240   0.0000       1.604381        43.6574 
 241   0.0000       1.619562        44.0705 
 242   0.0000       1.622920        44.1619 
 243   0.0000       1.631225        44.3879 
 244   0.0000       1.637171        44.5497 
 245   0.0000       1.648235        44.8508 
 246   0.0000       1.650049        44.9001 
 247   0.0000       1.659417        45.1550 
 248   0.0000       1.661376        45.2084 
 249   0.0000       1.672645        45.5150 
 250   0.0000       1.675515        45.5931 
 251   0.0000       1.693949        46.0947 
 252   0.0000       1.696139        46.1543 
 253   0.0000       1.729045        47.0497 
 254   0.0000       1.737406        47.2772 
 255   0.0000       1.761832        47.9419 
 256   0.0000       1.773764        48.2666 
 257   0.0000       1.775449        48.3124 
 258   0.0000       1.794065        48.8190 
 259   0.0000       1.808431        49.2099 
 260   0.0000       1.815282        49.3963 
 261   0.0000       1.817040        49.4442 
 262   0.0000       1.818456        49.4827 
 263   0.0000       1.819090        49.5000 
 264   0.0000       1.828239        49.7489 
 265   0.0000       1.849144        50.3178 
 266   0.0000       1.858322        50.5675 
 267   0.0000       1.864497        50.7355 
 268   0.0000       1.867890        50.8279 
 269   0.0000       1.870594        50.9015 
 270   0.0000       1.874990        51.0211 
 271   0.0000       1.883473        51.2519 
 272   0.0000       1.903928        51.8085 
 273   0.0000       1.904858        51.8338 
 274   0.0000       1.907419        51.9035 
 275   0.0000       1.918846        52.2145 
 276   0.0000       1.920114        52.2490 
 277   0.0000       1.920618        52.2627 
 278   0.0000       1.927927        52.4615 
 279   0.0000       1.932863        52.5959 
 280   0.0000       1.934036        52.6278 
 281   0.0000       1.938217        52.7416 
 282   0.0000       1.940294        52.7981 
 283   0.0000       1.957106        53.2556 
 284   0.0000       1.962476        53.4017 
 285   0.0000       1.991402        54.1888 
 286   0.0000       2.002049        54.4785 
 287   0.0000       2.007521        54.6274 
 288   0.0000       2.017519        54.8995 
 289   0.0000       2.019526        54.9541 
 290   0.0000       2.028720        55.2043 
 291   0.0000       2.037376        55.4398 
 292   0.0000       2.049796        55.7778 
 293   0.0000       2.051697        55.8295 
 294   0.0000       2.063959        56.1632 
 295   0.0000       2.064211        56.1700 
 296   0.0000       2.081716        56.6464 
 297   0.0000       2.086252        56.7698 
 298   0.0000       2.103562        57.2408 
 299   0.0000       2.110479        57.4290 
 300   0.0000       2.129782        57.9543 
 301   0.0000       2.139210        58.2109 
 302   0.0000       2.143937        58.3395 
 303   0.0000       2.152352        58.5685 
 304   0.0000       2.160301        58.7848 
 305   0.0000       2.165746        58.9329 
 306   0.0000       2.180029        59.3216 
 307   0.0000       2.182357        59.3849 
 308   0.0000       2.205686        60.0198 
 309   0.0000       2.209316        60.1186 
 310   0.0000       2.217444        60.3397 
 311   0.0000       2.218736        60.3749 
 312   0.0000       2.236011        60.8450 
 313   0.0000       2.244090        61.0648 
 314   0.0000       2.253493        61.3207 
 315   0.0000       2.259085        61.4728 
 316   0.0000       2.269657        61.7605 
 317   0.0000       2.318341        63.0853 
 318   0.0000       2.321958        63.1837 
 319   0.0000       2.342117        63.7323 
 320   0.0000       2.356823        64.1324 
 321   0.0000       2.358514        64.1784 
 322   0.0000       2.359710        64.2110 
 323   0.0000       2.370488        64.5043 
 324   0.0000       2.386350        64.9359 
 325   0.0000       2.395859        65.1946 
 326   0.0000       2.398625        65.2699 
 327   0.0000       2.403877        65.4128 
 328   0.0000       2.404954        65.4421 
 329   0.0000       2.414800        65.7101 
 330   0.0000       2.426360        66.0246 
 331   0.0000       2.445149        66.5359 
 332   0.0000       2.485251        67.6271 
 333   0.0000       2.518278        68.5258 
 334   0.0000       2.532260        68.9063 
 335   0.0000       2.540363        69.1268 
 336   0.0000       2.540863        69.1404 
 337   0.0000       2.543557        69.2137 
 338   0.0000       2.554848        69.5209 
 339   0.0000       2.557319        69.5882 
 340   0.0000       2.558015        69.6071 
 341   0.0000       2.571053        69.9619 
 342   0.0000       2.586419        70.3800 
 343   0.0000       2.616238        71.1915 
 344   0.0000       2.642534        71.9070 
 345   0.0000       2.646122        72.0046 
 346   0.0000       2.667672        72.5911 
 347   0.0000       2.670555        72.6695 
 348   0.0000       2.691180        73.2307 
 349   0.0000       2.694810        73.3295 
 350   0.0000       2.706965        73.6603 
 351   0.0000       2.710879        73.7668 
 352   0.0000       2.727942        74.2311 
 353   0.0000       2.733800        74.3905 
 354   0.0000       2.743135        74.6445 
 355   0.0000       2.768190        75.3263 
 356   0.0000       2.793640        76.0188 
 357   0.0000       2.804564        76.3161 
 358   0.0000       2.826559        76.9146 
 359   0.0000       2.838549        77.2408 
 360   0.0000       2.845655        77.4342 
 361   0.0000       2.862815        77.9012 
 362   0.0000       2.865565        77.9760 
 363   0.0000       2.867194        78.0203 
 364   0.0000       2.901044        78.9414 
 365   0.0000       2.947504        80.2056 
 366   0.0000       2.959609        80.5350 
 367   0.0000       2.966389        80.7195 
 368   0.0000       2.975412        80.9651 
 369   0.0000       3.004966        81.7693 
 370   0.0000       3.008596        81.8681 
 371   0.0000       3.048011        82.9406 
 372   0.0000       3.052923        83.0743 
 373   0.0000       3.053596        83.0926 
 374   0.0000       3.061600        83.3104 
 375   0.0000       3.063204        83.3540 
 376   0.0000       3.064526        83.3900 
 377   0.0000       3.079133        83.7875 
 378   0.0000       3.086442        83.9864 
 379   0.0000       3.089884        84.0800 
 380   0.0000       3.120193        84.9048 
 381   0.0000       3.143690        85.5442 
 382   0.0000       3.157460        85.9189 
 383   0.0000       3.172028        86.3153 
 384   0.0000       3.178596        86.4940 
 385   0.0000       3.197048        86.9961 
 386   0.0000       3.221733        87.6678 
 387   0.0000       3.365719        91.5859 
 388   0.0000       3.379368        91.9573 
 389   0.0000       3.418198        93.0139 
 390   0.0000       3.429270        93.3152 
 391   0.0000       3.613431        98.3265 
 392   0.0000       3.710527       100.9686 
 393   0.0000       3.725868       101.3860 

                    ********************************
                    * MULLIKEN POPULATION ANALYSIS *
                    ********************************

-----------------------
MULLIKEN ATOMIC CHARGES
-----------------------
   0 C :    0.049595
   1 C :    0.049626
   2 C :   -0.065804
   3 H :    0.041085
   4 H :    0.040987
   5 N :   -0.221761
   6 N :   -0.222031
   7 C :    0.064394
   8 C :   -0.085115
   9 C :   -0.092441
  10 C :   -0.071081
  11 C :   -0.071779
  12 C :    0.026393
  13 H :   -0.003372
  14 H :   -0.003858
  15 H :    0.010812
  16 C :    0.064940
  17 C :   -0.092857
  18 C :   -0.086441
  19 C :   -0.071806
  20 C :   -0.070435
  21 C :    0.026017
  22 H :   -0.003735
  23 H :   -0.003349
  24 H :    0.010939
  25 C :    0.086180
  26 H :    0.048683
  27 H :    0.036630
  28 H :    0.021826
  29 C :    0.082719
  30 H :    0.030768
  31 H :    0.066387
  32 H :    0.018223
  33 C :    0.081433
  34 H :    0.018743
  35 H :    0.031098
  36 H :    0.065638
  37 C :    0.085642
  38 H :    0.047144
  39 H :    0.037357
  40 H :    0.022605
Sum of atomic charges:   -0.0000000

--------------------------------
MULLIKEN REDUCED ORBITAL CHARGES
--------------------------------
  0 C s       :     3.145302  s :     3.145302
      pz      :     0.798355  p :     2.757900
      px      :     1.068046
      py      :     0.891499
      dz2     :     0.014409  d :     0.047203
      dxz     :     0.008061
      dyz     :     0.011825
      dx2y2   :     0.005073
      dxy     :     0.007835
  1 C s       :     3.145205  s :     3.145205
      pz      :     0.801414  p :     2.757937
      px      :     1.067978
      py      :     0.888545
      dz2     :     0.013381  d :     0.047231
      dxz     :     0.007462
      dyz     :     0.012879
      dx2y2   :     0.005287
      dxy     :     0.008222
  2 C s       :     3.619213  s :     3.619213
      pz      :     1.106843  p :     2.380378
      px      :     0.648603
      py      :     0.624932
      dz2     :     0.009063  d :     0.066213
      dxz     :     0.010086
      dyz     :     0.028165
      dx2y2   :     0.007220
      dxy     :     0.011678
  3 H s       :     0.935053  s :     0.935053
      pz      :     0.009228  p :     0.023863
      px      :     0.005590
      py      :     0.009045
  4 H s       :     0.935148  s :     0.935148
      pz      :     0.010687  p :     0.023865
      px      :     0.005302
      py      :     0.007876
  5 N s       :     3.362801  s :     3.362801
      pz      :     1.129612  p :     3.826633
      px      :     1.531273
      py      :     1.165748
      dz2     :     0.009086  d :     0.032327
      dxz     :     0.005229
      dyz     :     0.009065
      dx2y2   :     0.005375
      dxy     :     0.003573
  6 N s       :     3.363075  s :     3.363075
      pz      :     1.132263  p :     3.826614
      px      :     1.530482
      py      :     1.163870
      dz2     :     0.008967  d :     0.032342
      dxz     :     0.005316
      dyz     :     0.008894
      dx2y2   :     0.005465
      dxy     :     0.003699
  7 C s       :     3.059351  s :     3.059351
      pz      :     1.038873  p :     2.822187
      px      :     0.943655
      py      :     0.839659
      dz2     :     0.004408  d :     0.054069
      dxz     :     0.008105
      dyz     :     0.008185
      dx2y2   :     0.017122
      dxy     :     0.016249
  8 C s       :     3.076115  s :     3.076115
      pz      :     0.953731  p :     2.965886
      px      :     1.064547
      py      :     0.947608
      dz2     :     0.004477  d :     0.043113
      dxz     :     0.007541
      dyz     :     0.006578
      dx2y2   :     0.011875
      dxy     :     0.012642
  9 C s       :     3.076840  s :     3.076840
      pz      :     0.962150  p :     2.972568
      px      :     1.061136
      py      :     0.949282
      dz2     :     0.004479  d :     0.043033
      dxz     :     0.007495
      dyz     :     0.006474
      dx2y2   :     0.012131
      dxy     :     0.012454
 10 C s       :     3.219656  s :     3.219656
      pz      :     1.003922  p :     2.817315
      px      :     0.851650
      py      :     0.961743
      dz2     :     0.003441  d :     0.034110
      dxz     :     0.004558
      dyz     :     0.005240
      dx2y2   :     0.010233
      dxy     :     0.010638
 11 C s       :     3.219386  s :     3.219386
      pz      :     1.007957  p :     2.818263
      px      :     0.850858
      py      :     0.959448
      dz2     :     0.003565  d :     0.034130
      dxz     :     0.004395
      dyz     :     0.005346
      dx2y2   :     0.010377
      dxy     :     0.010448
 12 C s       :     3.137948  s :     3.137948
      pz      :     0.960587  p :     2.800281
      px      :     0.964597
      py      :     0.875097
      dz2     :     0.002716  d :     0.035377
      dxz     :     0.007810
      dyz     :     0.003308
      dx2y2   :     0.011569
      dxy     :     0.009975
 13 H s       :     0.980300  s :     0.980300
      pz      :     0.004798  p :     0.023072
      px      :     0.012238
      py      :     0.006036
 14 H s       :     0.980780  s :     0.980780
      pz      :     0.004661  p :     0.023078
      px      :     0.012665
      py      :     0.005752
 15 H s       :     0.966199  s :     0.966199
      pz      :     0.005658  p :     0.022989
      px      :     0.003049
      py      :     0.014282
 16 C s       :     3.059357  s :     3.059357
      pz      :     1.040918  p :     2.821632
      px      :     0.949794
      py      :     0.830920
      dz2     :     0.005584  d :     0.054071
      dxz     :     0.007144
      dyz     :     0.007956
      dx2y2   :     0.017186
      dxy     :     0.016201
 17 C s       :     3.076930  s :     3.076930
      pz      :     0.973977  p :     2.972920
      px      :     1.051447
      py      :     0.947496
      dz2     :     0.004731  d :     0.043008
      dxz     :     0.006654
      dyz     :     0.007565
      dx2y2   :     0.012066
      dxy     :     0.011991
 18 C s       :     3.076731  s :     3.076731
      pz      :     0.969191  p :     2.966582
      px      :     1.050387
      py      :     0.947004
      dz2     :     0.005029  d :     0.043128
      dxz     :     0.006898
      dyz     :     0.007494
      dx2y2   :     0.011278
      dxy     :     0.012428
 19 C s       :     3.219801  s :     3.219801
      pz      :     0.997637  p :     2.817880
      px      :     0.864628
      py      :     0.955615
      dz2     :     0.004044  d :     0.034124
      dxz     :     0.003871
      dyz     :     0.006116
      dx2y2   :     0.009921
      dxy     :     0.010172
 20 C s       :     3.219608  s :     3.219608
      pz      :     0.986815  p :     2.816713
      px      :     0.871745
      py      :     0.958154
      dz2     :     0.002903  d :     0.034114
      dxz     :     0.004860
      dyz     :     0.005939
      dx2y2   :     0.009998
      dxy     :     0.010415
 21 C s       :     3.137895  s :     3.137895
      pz      :     0.967023  p :     2.800709
      px      :     0.964116
      py      :     0.869570
      dz2     :     0.004029  d :     0.035379
      dxz     :     0.006973
      dyz     :     0.003770
      dx2y2   :     0.011251
      dxy     :     0.009356
 22 H s       :     0.980660  s :     0.980660
      pz      :     0.004601  p :     0.023075
      px      :     0.012704
      py      :     0.005770
 23 H s       :     0.980279  s :     0.980279
      pz      :     0.006447  p :     0.023070
      px      :     0.010461
      py      :     0.006162
 24 H s       :     0.966077  s :     0.966077
      pz      :     0.004820  p :     0.022984
      px      :     0.003317
      py      :     0.014846
 25 C s       :     2.911095  s :     2.911095
      pz      :     1.020511  p :     2.976109
      px      :     0.952438
      py      :     1.003160
      dz2     :     0.006533  d :     0.026616
      dxz     :     0.003041
      dyz     :     0.004926
      dx2y2   :     0.005076
      dxy     :     0.007040
 26 H s       :     0.927009  s :     0.927009
      pz      :     0.007828  p :     0.024308
      px      :     0.004031
      py      :     0.012448
 27 H s       :     0.939197  s :     0.939197
      pz      :     0.014334  p :     0.024173
      px      :     0.004323
      py      :     0.005515
 28 H s       :     0.954638  s :     0.954638
      pz      :     0.005532  p :     0.023536
      px      :     0.010573
      py      :     0.007431
 29 C s       :     2.912627  s :     2.912627
      pz      :     1.027062  p :     2.978142
      px      :     0.949733
      py      :     1.001347
      dz2     :     0.003642  d :     0.026513
      dxz     :     0.004437
      dyz     :     0.007167
      dx2y2   :     0.003755
      dxy     :     0.007511
 30 H s       :     0.945026  s :     0.945026
      pz      :     0.011737  p :     0.024206
      px      :     0.005473
      py      :     0.006996
 31 H s       :     0.909090  s :     0.909090
      pz      :     0.009751  p :     0.024522
      px      :     0.004413
      py      :     0.010358
 32 H s       :     0.958277  s :     0.958277
      pz      :     0.005958  p :     0.023500
      px      :     0.009118
      py      :     0.008424
 33 C s       :     2.913571  s :     2.913571
      pz      :     1.025575  p :     2.978486
      px      :     0.947149
      py      :     1.005763
      dz2     :     0.005875  d :     0.026509
      dxz     :     0.002487
      dyz     :     0.006104
      dx2y2   :     0.004393
      dxy     :     0.007650
 34 H s       :     0.957759  s :     0.957759
      pz      :     0.005052  p :     0.023498
      px      :     0.010192
      py      :     0.008254
 35 H s       :     0.944700  s :     0.944700
      pz      :     0.013741  p :     0.024202
      px      :     0.004145
      py      :     0.006315
 36 H s       :     0.909862  s :     0.909862
      pz      :     0.009145  p :     0.024500
      px      :     0.004046
      py      :     0.011309
 37 C s       :     2.911696  s :     2.911696
      pz      :     1.013884  p :     2.976054
      px      :     0.961938
      py      :     1.000232
      dz2     :     0.006317  d :     0.026609
      dxz     :     0.003273
      dyz     :     0.005495
      dx2y2   :     0.004257
      dxy     :     0.007267
 38 H s       :     0.928540  s :     0.928540
      pz      :     0.007930  p :     0.024316
      px      :     0.004457
      py      :     0.011929
 39 H s       :     0.938499  s :     0.938499
      pz      :     0.013732  p :     0.024144
      px      :     0.004637
      py      :     0.005775
 40 H s       :     0.953861  s :     0.953861
      pz      :     0.004665  p :     0.023534
      px      :     0.011415
      py      :     0.007455


                     *******************************
                     * LOEWDIN POPULATION ANALYSIS *
                     *******************************

----------------------
LOEWDIN ATOMIC CHARGES
----------------------
   0 C :   -0.029004
   1 C :   -0.028680
   2 C :   -0.223999
   3 H :    0.033059
   4 H :    0.033010
   5 N :    0.038078
   6 N :    0.038009
   7 C :    0.009933
   8 C :   -0.015413
   9 C :   -0.021426
  10 C :   -0.039378
  11 C :   -0.040669
  12 C :   -0.021513
  13 H :    0.028185
  14 H :    0.027842
  15 H :    0.031812
  16 C :    0.010034
  17 C :   -0.021898
  18 C :   -0.015314
  19 C :   -0.040621
  20 C :   -0.039226
  21 C :   -0.021702
  22 H :    0.027869
  23 H :    0.028217
  24 H :    0.031817
  25 C :   -0.050352
  26 H :    0.040871
  27 H :    0.034102
  28 H :    0.030802
  29 C :   -0.051548
  30 H :    0.033716
  31 H :    0.044056
  32 H :    0.028834
  33 C :   -0.051505
  34 H :    0.029051
  35 H :    0.033792
  36 H :    0.043922
  37 C :   -0.050445
  38 H :    0.040248
  39 H :    0.034380
  40 H :    0.031054

-------------------------------
LOEWDIN REDUCED ORBITAL CHARGES
-------------------------------
  0 C s       :     2.863161  s :     2.863161
      pz      :     0.931839  p :     3.048101
      px      :     1.059511
      py      :     1.056752
      dz2     :     0.038396  d :     0.117741
      dxz     :     0.016732
      dyz     :     0.032518
      dx2y2   :     0.014336
      dxy     :     0.015760
  1 C s       :     2.862981  s :     2.862981
      pz      :     0.941327  p :     3.047857
      px      :     1.056904
      py      :     1.049626
      dz2     :     0.035581  d :     0.117843
      dxz     :     0.015272
      dyz     :     0.035377
      dx2y2   :     0.014875
      dxy     :     0.016738
  2 C s       :     3.209421  s :     3.209421
      pz      :     1.351852  p :     2.871828
      px      :     0.715465
      py      :     0.804510
      dz2     :     0.014614  d :     0.142750
      dxz     :     0.014957
      dyz     :     0.065807
      dx2y2   :     0.021539
      dxy     :     0.025833
  3 H s       :     0.896104  s :     0.896104
      pz      :     0.027930  p :     0.070837
      px      :     0.017377
      py      :     0.025530
  4 H s       :     0.896149  s :     0.896149
      pz      :     0.031572  p :     0.070841
      px      :     0.016704
      py      :     0.022564
  5 N s       :     3.055651  s :     3.055651
      pz      :     1.196451  p :     3.830160
      px      :     1.441276
      py      :     1.192434
      dz2     :     0.023066  d :     0.076111
      dxz     :     0.010238
      dyz     :     0.024250
      dx2y2   :     0.011615
      dxy     :     0.006943
  6 N s       :     3.055538  s :     3.055538
      pz      :     1.203137  p :     3.830296
      px      :     1.440144
      py      :     1.187016
      dz2     :     0.022673  d :     0.076157
      dxz     :     0.010423
      dyz     :     0.024352
      dx2y2   :     0.011654
      dxy     :     0.007055
  7 C s       :     2.834030  s :     2.834030
      pz      :     1.016507  p :     3.021669
      px      :     1.082337
      py      :     0.922825
      dz2     :     0.009570  d :     0.134369
      dxz     :     0.017786
      dyz     :     0.017984
      dx2y2   :     0.045894
      dxy     :     0.043135
  8 C s       :     2.852692  s :     2.852692
      pz      :     0.953491  p :     3.055784
      px      :     1.046781
      py      :     1.055512
      dz2     :     0.009593  d :     0.106937
      dxz     :     0.015626
      dyz     :     0.014463
      dx2y2   :     0.032612
      dxy     :     0.034644
  9 C s       :     2.852525  s :     2.852525
      pz      :     0.957957  p :     3.062060
      px      :     1.046397
      py      :     1.057706
      dz2     :     0.009568  d :     0.106842
      dxz     :     0.015544
      dyz     :     0.014219
      dx2y2   :     0.033045
      dxy     :     0.034466
 10 C s       :     2.855161  s :     2.855161
      pz      :     1.001982  p :     3.094178
      px      :     1.047068
      py      :     1.045128
      dz2     :     0.007590  d :     0.090039
      dxz     :     0.009917
      dyz     :     0.012156
      dx2y2   :     0.029351
      dxy     :     0.031024
 11 C s       :     2.855105  s :     2.855105
      pz      :     1.004142  p :     3.095440
      px      :     1.046267
      py      :     1.045031
      dz2     :     0.007863  d :     0.090124
      dxz     :     0.009574
      dyz     :     0.012467
      dx2y2   :     0.029779
      dxy     :     0.030441
 12 C s       :     2.856417  s :     2.856417
      pz      :     0.967666  p :     3.073559
      px      :     1.073483
      py      :     1.032409
      dz2     :     0.006172  d :     0.091538
      dxz     :     0.017264
      dyz     :     0.007001
      dx2y2   :     0.032607
      dxy     :     0.028493
 13 H s       :     0.905095  s :     0.905095
      pz      :     0.015123  p :     0.066720
      px      :     0.033401
      py      :     0.018195
 14 H s       :     0.905434  s :     0.905434
      pz      :     0.014822  p :     0.066724
      px      :     0.034470
      py      :     0.017432
 15 H s       :     0.901918  s :     0.901918
      pz      :     0.016819  p :     0.066271
      px      :     0.010947
      py      :     0.038505
 16 C s       :     2.834026  s :     2.834026
      pz      :     1.030167  p :     3.021570
      px      :     1.074261
      py      :     0.917142
      dz2     :     0.011969  d :     0.134370
      dxz     :     0.016648
      dyz     :     0.017820
      dx2y2   :     0.045280
      dxy     :     0.042652
 17 C s       :     2.852574  s :     2.852574
      pz      :     0.960936  p :     3.062549
      px      :     1.037634
      py      :     1.063979
      dz2     :     0.009818  d :     0.106775
      dxz     :     0.014488
      dyz     :     0.016406
      dx2y2   :     0.032684
      dxy     :     0.033379
 18 C s       :     2.852680  s :     2.852680
      pz      :     0.960266  p :     3.055672
      px      :     1.032882
      py      :     1.062524
      dz2     :     0.010862  d :     0.106962
      dxz     :     0.014976
      dyz     :     0.016868
      dx2y2   :     0.030753
      dxy     :     0.033503
 19 C s       :     2.855169  s :     2.855169
      pz      :     1.008061  p :     3.095348
      px      :     1.039472
      py      :     1.047815
      dz2     :     0.008733  d :     0.090104
      dxz     :     0.009007
      dyz     :     0.014726
      dx2y2   :     0.028485
      dxy     :     0.029154
 20 C s       :     2.855175  s :     2.855175
      pz      :     1.002463  p :     3.094005
      px      :     1.043757
      py      :     1.047784
      dz2     :     0.006520  d :     0.090046
      dxz     :     0.011058
      dyz     :     0.013663
      dx2y2   :     0.028349
      dxy     :     0.030456
 21 C s       :     2.856417  s :     2.856417
      pz      :     0.975793  p :     3.073751
      px      :     1.061337
      py      :     1.036620
      dz2     :     0.008800  d :     0.091535
      dxz     :     0.016517
      dyz     :     0.008400
      dx2y2   :     0.031128
      dxy     :     0.026690
 22 H s       :     0.905426  s :     0.905426
      pz      :     0.014688  p :     0.066705
      px      :     0.034554
      py      :     0.017463
 23 H s       :     0.905074  s :     0.905074
      pz      :     0.019225  p :     0.066709
      px      :     0.028995
      py      :     0.018488
 24 H s       :     0.901914  s :     0.901914
      pz      :     0.014813  p :     0.066269
      px      :     0.011540
      py      :     0.039916
 25 C s       :     2.826350  s :     2.826350
      pz      :     1.070116  p :     3.153258
      px      :     1.024368
      py      :     1.058773
      dz2     :     0.017707  d :     0.070744
      dxz     :     0.007142
      dyz     :     0.013017
      dx2y2   :     0.013509
      dxy     :     0.019368
[...]
  8:     55.23   0.000035    0.18  0.000196  (-0.009824  0.002185  0.009732)
  9:     63.64   0.000978    4.94  0.004796  (-0.065455  0.019002 -0.012290)
 10:     90.98   0.000000    0.00  0.000001  (-0.000934  0.000376  0.000104)
 11:     93.71   0.000086    0.44  0.000288  ( 0.016460  0.002559  0.003182)
 12:    124.10   0.000443    2.24  0.001113  (-0.004044 -0.002049  0.033052)
 13:    138.57   0.000239    1.21  0.000539  (-0.011889  0.008268  0.018145)
 14:    147.26   0.000258    1.30  0.000546  ( 0.009578 -0.020615  0.005449)
 15:    156.82   0.000063    0.32  0.000125  (-0.004789  0.009557  0.003268)
 16:    171.26   0.000028    0.14  0.000052  ( 0.001658 -0.005084 -0.004820)
 17:    202.52   0.001080    5.46  0.001665  ( 0.006215 -0.040270 -0.002090)
 18:    210.36   0.000373    1.88  0.000553  ( 0.003285  0.005190 -0.022702)
 19:    238.69   0.000011    0.05  0.000014  ( 0.001218  0.001073  0.003344)
 20:    239.79   0.000019    0.09  0.000024  ( 0.004035  0.002642  0.001090)
 21:    286.12   0.000615    3.11  0.000670  ( 0.002648  0.025753  0.000259)
 22:    308.58   0.001729    8.74  0.001748  (-0.039734  0.010199 -0.008085)
 23:    336.26   0.000916    4.63  0.000850  ( 0.006938 -0.000339 -0.028322)
 24:    358.07   0.000582    2.94  0.000508  ( 0.003598  0.000971 -0.022220)
 25:    362.29   0.000026    0.13  0.000023  ( 0.000794  0.000507 -0.004678)
 26:    398.38   0.000664    3.35  0.000520  (-0.007057 -0.021609 -0.001791)
 27:    437.37   0.000037    0.19  0.000026  ( 0.004175  0.002833  0.000880)
 28:    485.67   0.000101    0.51  0.000065  ( 0.007833 -0.001576  0.001154)
 29:    494.82   0.000001    0.01  0.000001  (-0.000426  0.000314  0.000718)
 30:    535.71   0.000080    0.40  0.000047  ( 0.006397  0.002107  0.001068)
 31:    536.37   0.000013    0.07  0.000008  (-0.002583 -0.000953 -0.000363)
 32:    544.14   0.000093    0.47  0.000053  ( 0.006887  0.002035  0.001332)
 33:    548.60   0.000008    0.04  0.000005  ( 0.000102  0.000269 -0.002146)
 34:    578.42   0.000173    0.87  0.000093  (-0.001546 -0.000576  0.009509)
 35:    596.49   0.000060    0.30  0.000031  (-0.000774  0.000620  0.005500)
 36:    602.07   0.000100    0.50  0.000052  (-0.001269 -0.007073  0.000308)
 37:    629.68   0.001851    9.35  0.000917  ( 0.003117  0.030078  0.001720)
 38:    681.63   0.000883    4.46  0.000404  (-0.017974 -0.007948 -0.004234)
 39:    686.01   0.000053    0.27  0.000024  ( 0.002753  0.001711 -0.003708)
 40:    754.50   0.006583   33.27  0.002723  (-0.051603  0.002504 -0.007325)
 41:    770.84   0.000020    0.10  0.000008  ( 0.000428 -0.000548  0.002739)
 42:    782.80   0.000955    4.83  0.000381  ( 0.000104 -0.019439 -0.001715)
 43:    788.23   0.000299    1.51  0.000118  ( 0.001977  0.000660 -0.010678)
 44:    796.11   0.000719    3.64  0.000282  (-0.004649 -0.015854 -0.003001)
 45:    800.42   0.007076   35.76  0.002759  (-0.014866  0.016431  0.047621)
 46:    805.71   0.005901   29.82  0.002285  (-0.001812  0.024850 -0.040800)
 47:    881.03   0.000018    0.09  0.000006  ( 0.001784  0.000066  0.001816)
 48:    932.16   0.000003    0.01  0.000001  (-0.000179  0.000940  0.000049)
 49:    938.37   0.000008    0.04  0.000003  ( 0.000592  0.001512  0.000061)
 50:    945.65   0.000564    2.85  0.000186  ( 0.012560  0.003247  0.004218)
 51:    945.68   0.000413    2.09  0.000136  (-0.011308 -0.002776  0.000847)
 52:    966.21   0.007617   38.50  0.002460  (-0.002575 -0.049456 -0.002785)
 53:    974.05   0.000436    2.20  0.000140  (-0.001667 -0.001200  0.011641)
 54:   1009.55   0.001274    6.44  0.000394  (-0.000012  0.019783  0.001524)
 55:   1010.02   0.000079    0.40  0.000025  ( 0.000770  0.003618 -0.003292)
 56:   1026.30   0.000030    0.15  0.000009  ( 0.000281 -0.000772  0.002885)
 57:   1028.33   0.000027    0.14  0.000008  ( 0.000827 -0.000152 -0.002744)
 58:   1059.17   0.000577    2.91  0.000170  (-0.000353  0.000736  0.013010)
 59:   1060.68   0.000414    2.09  0.000122  ( 0.001800  0.001410 -0.010794)
 60:   1061.96   0.000692    3.50  0.000203  (-0.000835  0.004523 -0.013496)
 61:   1064.63   0.000250    1.26  0.000073  ( 0.005930  0.004016 -0.004693)
 62:   1064.87   0.000971    4.91  0.000285  ( 0.004085 -0.002952 -0.016099)
 63:   1065.13   0.000144    0.73  0.000042  ( 0.000632  0.002692  0.005872)
 64:   1092.94   0.003171   16.02  0.000905  (-0.004914 -0.002988  0.029534)
 65:   1097.78   0.000146    0.74  0.000041  ( 0.001271 -0.002918 -0.005593)
 66:   1103.65   0.000357    1.80  0.000101  (-0.001713  0.000740  0.009870)
 67:   1130.95   0.004090   20.67  0.001128  (-0.001792 -0.033464 -0.002321)
 68:   1143.35   0.000151    0.76  0.000041  ( 0.000946  0.005423 -0.003291)
 69:   1180.03   0.000324    1.64  0.000086  ( 0.009236  0.000067 -0.000669)
 70:   1180.22   0.000458    2.31  0.000121  (-0.010429  0.000712 -0.003425)
 71:   1267.94   0.004442   22.45  0.001093  (-0.002363 -0.032923 -0.001921)
 72:   1279.40   0.000117    0.59  0.000029  ( 0.001755 -0.005025 -0.000422)
 73:   1281.65   0.000168    0.85  0.000041  ( 0.001776 -0.006135  0.000052)
 74:   1300.97   0.000006    0.03  0.000001  (-0.000064  0.000872  0.000833)
 75:   1304.39   0.000367    1.85  0.000088  ( 0.000054 -0.009354 -0.000544)
 76:   1327.07   0.002602   13.15  0.000612  ( 0.000262 -0.024706 -0.001217)
 77:   1335.72   0.000003    0.02  0.000001  (-0.000877 -0.000018 -0.000128)
 78:   1337.89   0.001076    5.44  0.000251  ( 0.015191  0.003715  0.002543)
 79:   1372.80   0.000897    4.53  0.000204  (-0.001757 -0.000210  0.014168)
 80:   1401.72   0.000116    0.59  0.000026  ( 0.004252  0.000491 -0.002750)
 81:   1402.89   0.000351    1.77  0.000078  ( 0.008691 -0.000333  0.001566)
 82:   1404.19   0.000100    0.50  0.000022  ( 0.004506 -0.000668  0.001179)
 83:   1409.23   0.000468    2.36  0.000104  (-0.001589 -0.010040 -0.000508)
 84:   1425.36   0.000101    0.51  0.000022  (-0.000701  0.000184  0.004646)
 85:   1445.03   0.011334   57.28  0.002448  (-0.003055 -0.048983 -0.006248)
 86:   1454.31   0.002038   10.30  0.000437  ( 0.006366  0.013140 -0.014971)
 87:   1457.03   0.002803   14.17  0.000600  ( 0.008711  0.000757 -0.022891)
 88:   1461.19   0.001156    5.84  0.000247  (-0.003349  0.002238  0.015184)
 89:   1461.79   0.000784    3.96  0.000167  ( 0.005303  0.004723 -0.010814)
 90:   1463.07   0.002321   11.73  0.000495  ( 0.005866 -0.002223 -0.021345)
 91:   1466.76   0.004484   22.66  0.000954  (-0.026618  0.008566 -0.013118)
 92:   1470.96   0.000369    1.87  0.000078  ( 0.002395  0.000232  0.008519)
 93:   1476.79   0.000478    2.42  0.000101  (-0.000906 -0.009889 -0.001557)
 94:   1538.25   0.001600    8.09  0.000325  ( 0.015947 -0.001104  0.008311)
 95:   1538.73   0.004412   22.30  0.000895  (-0.029814  0.001777 -0.001655)
 96:   1560.80   0.040450  204.42  0.008088  ( 0.006750  0.089528  0.005174)
 97:   1566.79   0.001397    7.06  0.000278  (-0.002517 -0.003426  0.016131)
 98:   1655.97   0.000143    0.72  0.000027  ( 0.000872  0.000553 -0.005086)
 99:   1704.91   0.000380    1.92  0.000070  (-0.000113 -0.008331 -0.000362)
100:   1706.52   0.000005    0.02  0.000001  ( 0.000489 -0.000741 -0.000311)
101:   1709.47   0.000058    0.29  0.000011  ( 0.000226 -0.000180  0.003236)
102:   1710.02   0.001901    9.61  0.000347  (-0.018389 -0.000643 -0.002891)
103:   3067.09   0.004273   21.59  0.000435  (-0.020631 -0.002568 -0.001598)
104:   3067.66   0.003761   19.01  0.000383  ( 0.018712  0.001897  0.005373)
105:   3068.55   0.001676    8.47  0.000170  (-0.008114  0.006397 -0.007980)
106:   3069.06   0.002140   10.81  0.000218  ( 0.012184 -0.007299 -0.003983)
107:   3156.64   0.001180    5.96  0.000117  ( 0.003943 -0.000184 -0.010055)
108:   3156.73   0.001603    8.10  0.000158  (-0.000880 -0.001409  0.012477)
109:   3157.69   0.000606    3.06  0.000060  ( 0.002424  0.003588 -0.006414)
110:   3157.90   0.000636    3.22  0.000063  (-0.000536 -0.002964 -0.007336)
111:   3182.60   0.002740   13.85  0.000269  ( 0.015149  0.005281  0.003367)
112:   3182.82   0.003998   20.20  0.000392  ( 0.006018 -0.018308  0.004532)
113:   3183.07   0.001921    9.71  0.000188  ( 0.012693 -0.003884 -0.003478)
114:   3183.38   0.002237   11.31  0.000219  ( 0.005894  0.012341  0.005682)
115:   3204.07   0.000028    0.14  0.000003  ( 0.000745  0.001481  0.000014)
116:   3204.90   0.000026    0.13  0.000003  ( 0.000586  0.001439  0.000330)
117:   3211.85   0.002665   13.47  0.000259  ( 0.015181 -0.000178  0.005334)
118:   3212.75   0.002701   13.65  0.000262  (-0.016196  0.000146  0.000222)
119:   3228.19   0.003696   18.68  0.000357  ( 0.001608  0.018518 -0.003432)
120:   3228.92   0.003048   15.40  0.000295  ( 0.000302  0.016204  0.005650)
121:   3285.60   0.000906    4.58  0.000086  (-0.000036 -0.009270 -0.000283)
122:   3308.43   0.000083    0.42  0.000008  (-0.000414  0.000207  0.002753)

* The epsilon (eps) is given for a Dirac delta lineshape.
** The dipole moment derivative (T) already includes vibrational overlap.

The first frequency considered to be a vibration is 6
The total number of vibrations considered is 117


--------------------------
THERMOCHEMISTRY AT 298.15K
--------------------------

Temperature         ... 298.15 K
Pressure            ... 1.00 atm
Total Mass          ... 276.38 AMU

Throughout the following assumptions are being made:
  (1) The electronic state is orbitally nondegenerate
  (2) There are no thermally accessible electronically excited states
  (3) Hindered rotations indicated by low frequency modes are not
      treated as such but are treated as vibrations and this may
      cause some error
  (4) All equations used are the standard statistical mechanics
      equations for an ideal gas
  (5) All vibrations are strictly harmonic

freq.      14.10  E(vib)   ...       0.57 
freq.      20.08  E(vib)   ...       0.56 
freq.      55.23  E(vib)   ...       0.52 
freq.      63.64  E(vib)   ...       0.51 
freq.      90.98  E(vib)   ...       0.47 
freq.      93.71  E(vib)   ...       0.47 
freq.     124.10  E(vib)   ...       0.43 
freq.     138.57  E(vib)   ...       0.42 
freq.     147.26  E(vib)   ...       0.41 
freq.     156.82  E(vib)   ...       0.40 
freq.     171.26  E(vib)   ...       0.38 
freq.     202.52  E(vib)   ...       0.35 
freq.     210.36  E(vib)   ...       0.34 
freq.     238.69  E(vib)   ...       0.32 
freq.     239.79  E(vib)   ...       0.31 
freq.     286.12  E(vib)   ...       0.27 
freq.     308.58  E(vib)   ...       0.26 
freq.     336.26  E(vib)   ...       0.24 
freq.     358.07  E(vib)   ...       0.22 
freq.     362.29  E(vib)   ...       0.22 
freq.     398.38  E(vib)   ...       0.20 
freq.     437.37  E(vib)   ...       0.17 
freq.     485.67  E(vib)   ...       0.15 
freq.     494.82  E(vib)   ...       0.14 
freq.     535.71  E(vib)   ...       0.12 
freq.     536.37  E(vib)   ...       0.12 
freq.     544.14  E(vib)   ...       0.12 
freq.     548.60  E(vib)   ...       0.12 
freq.     578.42  E(vib)   ...       0.11 
freq.     596.49  E(vib)   ...       0.10 
freq.     602.07  E(vib)   ...       0.10 
freq.     629.68  E(vib)   ...       0.09 
freq.     681.63  E(vib)   ...       0.08 
freq.     686.01  E(vib)   ...       0.07 
freq.     754.50  E(vib)   ...       0.06 
freq.     770.84  E(vib)   ...       0.05 
freq.     782.80  E(vib)   ...       0.05 
freq.     788.23  E(vib)   ...       0.05 
freq.     796.11  E(vib)   ...       0.05 
freq.     800.42  E(vib)   ...       0.05 
freq.     805.71  E(vib)   ...       0.05 
freq.     881.03  E(vib)   ...       0.04 
freq.     932.16  E(vib)   ...       0.03 
freq.     938.37  E(vib)   ...       0.03 
freq.     945.65  E(vib)   ...       0.03 
freq.     945.68  E(vib)   ...       0.03 
freq.     966.21  E(vib)   ...       0.03 
freq.     974.05  E(vib)   ...       0.03 
freq.    1009.55  E(vib)   ...       0.02 
freq.    1010.02  E(vib)   ...       0.02 
freq.    1026.30  E(vib)   ...       0.02 
freq.    1028.33  E(vib)   ...       0.02 
freq.    1059.17  E(vib)   ...       0.02 
freq.    1060.68  E(vib)   ...       0.02 
freq.    1061.96  E(vib)   ...       0.02 
freq.    1064.63  E(vib)   ...       0.02 
freq.    1064.87  E(vib)   ...       0.02 
freq.    1065.13  E(vib)   ...       0.02 
freq.    1092.94  E(vib)   ...       0.02 
freq.    1097.78  E(vib)   ...       0.02 
freq.    1103.65  E(vib)   ...       0.02 
freq.    1130.95  E(vib)   ...       0.01 
freq.    1143.35  E(vib)   ...       0.01 
freq.    1180.03  E(vib)   ...       0.01 
freq.    1180.22  E(vib)   ...       0.01 
freq.    1267.94  E(vib)   ...       0.01 
freq.    1279.40  E(vib)   ...       0.01 
freq.    1281.65  E(vib)   ...       0.01 
freq.    1300.97  E(vib)   ...       0.01 
freq.    1304.39  E(vib)   ...       0.01 
freq.    1327.07  E(vib)   ...       0.01 
freq.    1335.72  E(vib)   ...       0.01 
freq.    1337.89  E(vib)   ...       0.01 
freq.    1372.80  E(vib)   ...       0.01 
freq.    1401.72  E(vib)   ...       0.00 
freq.    1402.89  E(vib)   ...       0.00 
freq.    1404.19  E(vib)   ...       0.00 
freq.    1409.23  E(vib)   ...       0.00 
freq.    1425.36  E(vib)   ...       0.00 
freq.    1445.03  E(vib)   ...       0.00 
freq.    1454.31  E(vib)   ...       0.00 
freq.    1457.03  E(vib)   ...       0.00 
freq.    1461.19  E(vib)   ...       0.00 
freq.    1461.79  E(vib)   ...       0.00 
freq.    1463.07  E(vib)   ...       0.00 
freq.    1466.76  E(vib)   ...       0.00 
freq.    1470.96  E(vib)   ...       0.00 
freq.    1476.79  E(vib)   ...       0.00 
freq.    1538.25  E(vib)   ...       0.00 
freq.    1538.73  E(vib)   ...       0.00 
freq.    1560.80  E(vib)   ...       0.00 
freq.    1566.79  E(vib)   ...       0.00 
freq.    1655.97  E(vib)   ...       0.00 
freq.    1704.91  E(vib)   ...       0.00 
freq.    1706.52  E(vib)   ...       0.00 
freq.    1709.47  E(vib)   ...       0.00 
freq.    1710.02  E(vib)   ...       0.00 
freq.    3067.09  E(vib)   ...       0.00 
freq.    3067.66  E(vib)   ...       0.00 
freq.    3068.55  E(vib)   ...       0.00 
freq.    3069.06  E(vib)   ...       0.00 
freq.    3156.64  E(vib)   ...       0.00 
freq.    3156.73  E(vib)   ...       0.00 
freq.    3157.69  E(vib)   ...       0.00 
freq.    3157.90  E(vib)   ...       0.00 
freq.    3182.60  E(vib)   ...       0.00 
freq.    3182.82  E(vib)   ...       0.00 
freq.    3183.07  E(vib)   ...       0.00 
freq.    3183.38  E(vib)   ...       0.00 
freq.    3204.07  E(vib)   ...       0.00 
freq.    3204.90  E(vib)   ...       0.00 
freq.    3211.85  E(vib)   ...       0.00 
freq.    3212.75  E(vib)   ...       0.00 
freq.    3228.19  E(vib)   ...       0.00 
freq.    3228.92  E(vib)   ...       0.00 
freq.    3285.60  E(vib)   ...       0.00 
freq.    3308.43  E(vib)   ...       0.00 

------------
INNER ENERGY
------------

The inner energy is: U= E(el) + E(ZPE) + E(vib) + E(rot) + E(trans)
    E(el)   - is the total energy from the electronic structure calculation
              = E(kin-el) + E(nuc-el) + E(el-el) + E(nuc-nuc)
    E(ZPE)  - the the zero temperature vibrational energy from the frequency calculation
    E(vib)  - the the finite temperature correction to E(ZPE) due to population
              of excited vibrational states
    E(rot)  - is the rotational thermal energy
    E(trans)- is the translational thermal energy

Summary of contributions to the inner energy U:
Electronic energy                ...   -844.73291408 Eh
Zero point energy                ...      0.34640138 Eh     217.37 kcal/mol
Thermal vibrational correction   ...      0.01649913 Eh      10.35 kcal/mol
Thermal rotational correction    ...      0.00141627 Eh       0.89 kcal/mol
Thermal translational correction ...      0.00141627 Eh       0.89 kcal/mol
-----------------------------------------------------------------------
Total thermal energy                   -844.36718102 Eh


Summary of corrections to the electronic energy:
(perhaps to be used in another calculation)
Total thermal correction                  0.01933167 Eh      12.13 kcal/mol
Non-thermal (ZPE) correction              0.34640138 Eh     217.37 kcal/mol
-----------------------------------------------------------------------
Total correction                          0.36573305 Eh     229.50 kcal/mol


--------
ENTHALPY
--------

The enthalpy is H = U + kB*T
                kB is Boltzmann's constant
Total free energy                 ...   -844.36718102 Eh 
Thermal Enthalpy correction       ...      0.00094421 Eh       0.59 kcal/mol
-----------------------------------------------------------------------
Total Enthalpy                    ...   -844.36623681 Eh


Note: Only C1 symmetry has been detected, increase convergence thresholds 
      if your molecule has a higher symmetry. Symmetry factor of 1.0 is   
      used for the rotational entropy correction. 
 

Note: Rotational entropy computed according to Herzberg 
Infrared and Raman Spectra, Chapter V,1, Van Nostrand Reinhold, 1945 
Point Group:  C1, Symmetry Number:   1  
Rotational constants in cm-1:     0.023796     0.005931     0.005222 

Vibrational entropy computed according to the QRRHO of S. Grimme
Chem.Eur.J. 2012 18 9955


-------
ENTROPY
-------

The entropy contributions are T*S = T*(S(el)+S(vib)+S(rot)+S(trans))
     S(el)   - electronic entropy
     S(vib)  - vibrational entropy
     S(rot)  - rotational entropy
     S(trans)- translational entropy
The entropies will be listed as multiplied by the temperature to get
units of energy

Electronic entropy                ...      0.00000000 Eh      0.00 kcal/mol
Vibrational entropy               ...      0.02949748 Eh     18.51 kcal/mol
Rotational entropy                ...      0.01617708 Eh     10.15 kcal/mol
Translational entropy             ...      0.02031105 Eh     12.75 kcal/mol
-----------------------------------------------------------------------
Final entropy term                ...      0.06598561 Eh     41.41 kcal/mol

In case the symmetry of your molecule has not been determined correctly
or in case you have a reason to use a different symmetry number we print 
out the resulting rotational entropy values for sn=1,12 :
 --------------------------------------------------------
|  sn= 1 | S(rot)=       0.01617708 Eh     10.15 kcal/mol|
|  sn= 2 | S(rot)=       0.01552263 Eh      9.74 kcal/mol|
|  sn= 3 | S(rot)=       0.01513979 Eh      9.50 kcal/mol|
|  sn= 4 | S(rot)=       0.01486817 Eh      9.33 kcal/mol|
|  sn= 5 | S(rot)=       0.01465748 Eh      9.20 kcal/mol|
|  sn= 6 | S(rot)=       0.01448534 Eh      9.09 kcal/mol|
|  sn= 7 | S(rot)=       0.01433979 Eh      9.00 kcal/mol|
|  sn= 8 | S(rot)=       0.01421371 Eh      8.92 kcal/mol|
|  sn= 9 | S(rot)=       0.01410251 Eh      8.85 kcal/mol|
|  sn=10 | S(rot)=       0.01400303 Eh      8.79 kcal/mol|
|  sn=11 | S(rot)=       0.01391304 Eh      8.73 kcal/mol|
|  sn=12 | S(rot)=       0.01383088 Eh      8.68 kcal/mol|
 --------------------------------------------------------


-------------------
GIBBS FREE ENERGY
-------------------

The Gibbs free energy is G = H - T*S

Total enthalpy                    ...   -844.36623681 Eh 
Total entropy correction          ...     -0.06598561 Eh    -41.41 kcal/mol
-----------------------------------------------------------------------
Final Gibbs free energy         ...   -844.43222242 Eh

For completeness - the Gibbs free energy minus the electronic energy
G-E(el)                           ...      0.30069165 Eh    188.69 kcal/mol


Timings for individual modules:

Sum of individual times         ...     6638.998 sec (= 110.650 min)
GTO integral calculation        ...        0.696 sec (=   0.012 min)   0.0 %
SCF iterations                  ...     1163.366 sec (=  19.389 min)  17.5 %
Analytical frequency calculation...     5474.937 sec (=  91.249 min)  82.5 %
                             ****ORCA TERMINATED NORMALLY****
TOTAL RUN TIME: 0 days 1 hours 50 minutes 39 seconds 810 msec
