
                                 *****************
                                 * O   R   C   A *
                                 *****************

                                            #,                                       
                                            ###                                      
                                            ####                                     
                                            #####                                    
                                            ######                                   
                                           ########,                                 
                                     ,,################,,,,,                         
                               ,,#################################,,                 
                          ,,##########################################,,             
                       ,#########################################, ''#####,          
                    ,#############################################,,   '####,        
                  ,##################################################,,,,####,       
                ,###########''''           ''''###############################       
              ,#####''   ,,,,##########,,,,          '''####'''          '####       
            ,##' ,,,,###########################,,,                        '##       
           ' ,,###''''                  '''############,,,                           
         ,,##''                                '''############,,,,        ,,,,,,###''
      ,#''                                            '''#######################'''  
     '                                                          ''''####''''         
             ,#######,   #######,   ,#######,      ##                                
            ,#'     '#,  ##    ##  ,#'     '#,    #''#        ######   ,####,        
            ##       ##  ##   ,#'  ##            #'  '#       #        #'  '#        
            ##       ##  #######   ##           ,######,      #####,   #    #        
            '#,     ,#'  ##    ##  '#,     ,#' ,#      #,         ##   #,  ,#        
             '#######'   ##     ##  '#######'  #'      '#     #####' # '####'        



                  #######################################################
                  #                        -***-                        #
                  #          Department of theory and spectroscopy      #
                  #    Directorship and core code : Frank Neese         #
                  #        Max Planck Institute fuer Kohlenforschung    #
                  #                Kaiser Wilhelm Platz 1               #
                  #                 D-45470 Muelheim/Ruhr               #
                  #                      Germany                        #
                  #                                                     #
                  #                  All rights reserved                #
                  #                        -***-                        #
                  #######################################################


                         Program Version 5.0.4 -  RELEASE  -


 With contributions from (in alphabetic order):
   Daniel Aravena         : Magnetic Suceptibility
   Michael Atanasov       : Ab Initio Ligand Field Theory (pilot matlab implementation)
   Alexander A. Auer      : GIAO ZORA, VPT2 properties, NMR spectrum
   Ute Becker             : Parallelization
   Giovanni Bistoni       : ED, misc. LED, open-shell LED, HFLD
   Martin Brehm           : Molecular dynamics
   Dmytro Bykov           : SCF Hessian
   Vijay G. Chilkuri      : MRCI spin determinant printing, contributions to CSF-ICE
   Dipayan Datta          : RHF DLPNO-CCSD density
   Achintya Kumar Dutta   : EOM-CC, STEOM-CC
   Dmitry Ganyushin       : Spin-Orbit,Spin-Spin,Magnetic field MRCI
   Miquel Garcia          : C-PCM and meta-GGA Hessian, CC/C-PCM, Gaussian charge scheme
   Yang Guo               : DLPNO-NEVPT2, F12-NEVPT2, CIM, IAO-localization
   Andreas Hansen         : Spin unrestricted coupled pair/coupled cluster methods
   Benjamin Helmich-Paris : MC-RPA, TRAH-SCF, COSX integrals
   Lee Huntington         : MR-EOM, pCC
   Robert Izsak           : Overlap fitted RIJCOSX, COSX-SCS-MP3, EOM
   Marcus Kettner         : VPT2
   Christian Kollmar      : KDIIS, OOCD, Brueckner-CCSD(T), CCSD density, CASPT2, CASPT2-K
   Simone Kossmann        : Meta GGA functionals, TD-DFT gradient, OOMP2, MP2 Hessian
   Martin Krupicka        : Initial AUTO-CI
   Lucas Lang             : DCDCAS
   Marvin Lechner         : AUTO-CI (C++ implementation), FIC-MRCC
   Dagmar Lenk            : GEPOL surface, SMD
   Dimitrios Liakos       : Extrapolation schemes; Compound Job, initial MDCI parallelization
   Dimitrios Manganas     : Further ROCIS development; embedding schemes
   Dimitrios Pantazis     : SARC Basis sets
   Anastasios Papadopoulos: AUTO-CI, single reference methods and gradients
   Taras Petrenko         : DFT Hessian,TD-DFT gradient, ASA, ECA, R-Raman, ABS, FL, XAS/XES, NRVS
   Peter Pinski           : DLPNO-MP2, DLPNO-MP2 Gradient
   Christoph Reimann      : Effective Core Potentials
   Marius Retegan         : Local ZFS, SOC
   Christoph Riplinger    : Optimizer, TS searches, QM/MM, DLPNO-CCSD(T), (RO)-DLPNO pert. Triples
   Tobias Risthaus        : Range-separated hybrids, TD-DFT gradient, RPA, STAB
   Michael Roemelt        : Original ROCIS implementation
   Masaaki Saitow         : Open-shell DLPNO-CCSD energy and density
   Barbara Sandhoefer     : DKH picture change effects
   Avijit Sen             : IP-ROCIS
   Kantharuban Sivalingam : CASSCF convergence, NEVPT2, FIC-MRCI
   Bernardo de Souza      : ESD, SOC TD-DFT
   Georgi Stoychev        : AutoAux, RI-MP2 NMR, DLPNO-MP2 response
   Willem Van den Heuvel  : Paramagnetic NMR
   Boris Wezisla          : Elementary symmetry handling
   Frank Wennmohs         : Technical directorship


 We gratefully acknowledge several colleagues who have allowed us to
 interface, adapt or use parts of their codes:
   Stefan Grimme, W. Hujo, H. Kruse, P. Pracht,  : VdW corrections, initial TS optimization,
                  C. Bannwarth, S. Ehlert          DFT functionals, gCP, sTDA/sTD-DF
   Ed Valeev, F. Pavosevic, A. Kumar             : LibInt (2-el integral package), F12 methods
   Garnet Chan, S. Sharma, J. Yang, R. Olivares  : DMRG
   Ulf Ekstrom                                   : XCFun DFT Library
   Mihaly Kallay                                 : mrcc  (arbitrary order and MRCC methods)
   Jiri Pittner, Ondrej Demel                    : Mk-CCSD
   Frank Weinhold                                : gennbo (NPA and NBO analysis)
   Christopher J. Cramer and Donald G. Truhlar   : smd solvation model
   Lars Goerigk                                  : TD-DFT with DH, B97 family of functionals
   V. Asgeirsson, H. Jonsson                     : NEB implementation
   FAccTs GmbH                                   : IRC, NEB, NEB-TS, DLPNO-Multilevel, CI-OPT
                                                   MM, QMMM, 2- and 3-layer-ONIOM, Crystal-QMMM,
                                                   LR-CPCM, SF, NACMEs, symmetry and pop. for TD-DFT,
                                                   nearIR, NL-DFT gradient (VV10), updates on ESD,
                                                   ML-optimized integration grids
   S Lehtola, MJT Oliveira, MAL Marques          : LibXC Library
   Liviu Ungur et al                             : ANISO software


 Your calculation uses the libint2 library for the computation of 2-el integrals
 For citations please refer to: http://libint.valeyev.net

 Your ORCA version has been built with support for libXC version: 5.1.0
 For citations please refer to: https://tddft.org/programs/libxc/

 This ORCA versions uses:
   CBLAS   interface :  Fast vector & matrix operations
   LAPACKE interface :  Fast linear algebra routines
   SCALAPACK package :  Parallel linear algebra routines
   Shared memory     :  Shared parallel matrices
   BLAS/LAPACK       :  OpenBLAS 0.3.15  USE64BITINT DYNAMIC_ARCH NO_AFFINITY SkylakeX SINGLE_THREADED
        Core in use  :  SkylakeX
   Copyright (c) 2011-2014, The OpenBLAS Project




***************************************
The coordinates will be read from file: 9+.xyz
***************************************


Your calculation utilizes the atom-pairwise dispersion correction
based on tight binding partial charges (D4)
Cite in your paper:
E.Caldeweyher, C.Bannwarth, S.Grimme, J.Chem.Phys., (2017), 147, 034112.
E.Caldeweyher, S.Ehlert, A.Hansen, H.Neugebauer, S.Grimme, J.Chem.Phys., (2018), in progress.
   

XCFun DFT library Copyright 2009-2010 Ulf Ekstrom and contributors.
See http://admol.org/xcfun for more information.
This is free software; see the source code for copying conditions.
There is ABSOLUTELY NO WARRANTY; not even for MERCHANTABILITY or FITNESS FOR A PARTICULAR PURPOSE.
For details see the documentation.
Scientific users of this library should cite U. Ekstrom, L. Visscher, R. Bast, A. J. Thorvaldsen and K. Ruud;
J.Chem.Theor.Comp. 2010, DOI: 10.1021/ct100117s
XCFun Version 0.99 

================================================================================

----- Orbital basis set information -----
Your calculation utilizes the basis: def2-SVP
   F. Weigend and R. Ahlrichs, Phys. Chem. Chem. Phys. 7, 3297 (2005).

----- AuxJ basis set information -----
Your calculation utilizes the auxiliary basis: def2/J
   F. Weigend, Phys. Chem. Chem. Phys. 8, 1057 (2006).

================================================================================
                                        WARNINGS
                       Please study these warnings very carefully!
================================================================================


INFO   : the flag for use of the SHARK integral package has been found!

================================================================================
                                       INPUT FILE
================================================================================
NAME = 9+.inp
|  1> # ORCA 5.0.4 - 9+.inp # write input file
|  2> # Basic Mode
|  3> #
|  4> ! Freq wB97X Def2-SVP D4 SlowConv TightSCF DEFGRID2 Def2/J RIJCOSX 
|  5> 
|  6> 
|  7> 
|  8> %maxcore 4500
|  9> 
| 10> %geom
| 11> Maxiter 150
| 12> END
| 13> 
| 14> * xyzfile 1 1 9+.xyz
| 15> 
| 16>                          ****END OF INPUT****
================================================================================

                       ****************************
                       * Single Point Calculation *
                       ****************************

---------------------------------
CARTESIAN COORDINATES (ANGSTROEM)
---------------------------------
  C      0.028637    0.770267   -1.265357
  C     -0.028640   -0.770268   -1.265357
  N      0.014269    1.098333    0.165370
  N     -0.014271   -1.098333    0.165369
  C      0.000000   -0.000001    0.882870
  H     -0.837293    1.231863   -1.762334
  H     -0.948400   -1.164803   -1.723110
  H      0.837289   -1.231864   -1.762335
  H      0.948396    1.164803   -1.723111
  C      0.045145    2.458850    0.657943
  C     -0.045143   -2.458849    0.657942
  H     -0.845330    3.003445    0.310876
  H     -0.946486   -2.968482    0.286579
  H      0.845335   -3.003441    0.310880
  H      0.946492    2.968480    0.286586
  H      0.060033    2.448843    1.755198
  H     -0.060038   -2.448841    1.755197
  H      0.000001   -0.000001    1.977484

----------------------------
CARTESIAN COORDINATES (A.U.)
----------------------------
  NO LB      ZA    FRAG     MASS         X           Y           Z
   0 C     6.0000    0    12.011    0.054116    1.455594   -2.391178
   1 C     6.0000    0    12.011   -0.054122   -1.455596   -2.391178
   2 N     7.0000    0    14.007    0.026965    2.075549    0.312504
   3 N     7.0000    0    14.007   -0.026968   -2.075549    0.312502
   4 C     6.0000    0    12.011    0.000000   -0.000002    1.668383
   5 H     1.0000    0     1.008   -1.582254    2.327884   -3.330329
   6 H     1.0000    0     1.008   -1.792216   -2.201159   -3.256206
   7 H     1.0000    0     1.008    1.582247   -2.327886   -3.330331
   8 H     1.0000    0     1.008    1.792209    2.201159   -3.256208
   9 C     6.0000    0    12.011    0.085312    4.646553    1.243332
  10 C     6.0000    0    12.011   -0.085308   -4.646551    1.243330
  11 H     1.0000    0     1.008   -1.597442    5.675689    0.587471
  12 H     1.0000    0     1.008   -1.788599   -5.609618    0.541556
  13 H     1.0000    0     1.008    1.597452   -5.675681    0.587478
  14 H     1.0000    0     1.008    1.788611    5.609614    0.541569
  15 H     1.0000    0     1.008    0.113446    4.627643    3.316844
  16 H     1.0000    0     1.008   -0.113455   -4.627639    3.316842
  17 H     1.0000    0     1.008    0.000002   -0.000002    3.736903

--------------------------------
INTERNAL COORDINATES (ANGSTROEM)
--------------------------------
 C      0   0   0     0.000000000000     0.00000000     0.00000000
 C      1   0   0     1.541599410014     0.00000000     0.00000000
 N      1   2   0     1.467928298082   102.88360274     0.00000000
 N      2   1   3     1.467927109724   102.88357185   357.87395892
 C      4   2   1     1.312000201473   110.24473994     1.85534326
 H      1   2   3     1.099950803739   112.96148454   241.67661680
 H      2   1   3     1.100524480797   112.91103067   115.78110269
 H      2   1   3     1.099950468313   112.96149404   239.55053794
 H      1   2   3     1.100524419490   112.91108640   117.90718140
 C      3   1   2     1.447269150847   122.79297372   180.49698260
 C      4   2   1     1.447268125459   122.79296063   180.49715345
 H     10   3   1     1.099993155496   109.92300851    61.79678908
 H     11   4   2     1.100025216123   109.76119233   301.77843482
 H     11   4   2     1.099992521244   109.92308519    61.79705828
 H     10   3   1     1.100025078240   109.76129935   301.77808409
 H     10   3   1     1.097401625485   109.39132083   181.84904905
 H     11   4   2     1.097401729593   109.39128755   181.84943747
 H      5   4   2     1.094614000000   123.15293502   179.22499390

---------------------------
INTERNAL COORDINATES (A.U.)
---------------------------
 C      0   0   0     0.000000000000     0.00000000     0.00000000
 C      1   0   0     2.913200693140     0.00000000     0.00000000
 N      1   2   0     2.773982467608   102.88360274     0.00000000
 N      2   1   3     2.773980221937   102.88357185   357.87395892
 C      4   2   1     2.479321068434   110.24473994     1.85534326
 H      1   2   3     2.078605779852   112.96148454   241.67661680
 H      2   1   3     2.079689872383   112.91103067   115.78110269
 H      2   1   3     2.078605145989   112.96149404   239.55053794
 H      1   2   3     2.079689756528   112.91108640   117.90718140
 C      3   1   2     2.734942337174   122.79297372   180.49698260
 C      4   2   1     2.734940399471   122.79296063   180.49715345
 H     10   3   1     2.078685813076   109.92300851    61.79678908
 H     11   4   2     2.078746398880   109.76119233   301.77843482
 H     11   4   2     2.078684614512   109.92308519    61.79705828
 H     10   3   1     2.078746138320   109.76129935   301.77808409
 H     10   3   1     2.073788531087   109.39132083   181.84904905
 H     11   4   2     2.073788727823   109.39128755   181.84943747
 H      5   4   2     2.068520682357   123.15293502   179.22499390

---------------------
BASIS SET INFORMATION
---------------------
There are 3 groups of distinct atoms

 Group   1 Type C   : 7s4p1d contracted to 3s2p1d pattern {511/31/1}
 Group   2 Type N   : 7s4p1d contracted to 3s2p1d pattern {511/31/1}
 Group   3 Type H   : 4s1p contracted to 2s1p pattern {31/1}

Atom   0C    basis set group =>   1
Atom   1C    basis set group =>   1
Atom   2N    basis set group =>   2
Atom   3N    basis set group =>   2
Atom   4C    basis set group =>   1
Atom   5H    basis set group =>   3
Atom   6H    basis set group =>   3
Atom   7H    basis set group =>   3
Atom   8H    basis set group =>   3
Atom   9C    basis set group =>   1
Atom  10C    basis set group =>   1
Atom  11H    basis set group =>   3
Atom  12H    basis set group =>   3
Atom  13H    basis set group =>   3
Atom  14H    basis set group =>   3
Atom  15H    basis set group =>   3
Atom  16H    basis set group =>   3
Atom  17H    basis set group =>   3
---------------------------------
AUXILIARY/J BASIS SET INFORMATION
---------------------------------
There are 3 groups of distinct atoms

 Group   1 Type C   : 12s5p4d2f1g contracted to 6s4p3d1f1g pattern {711111/2111/211/2/1}
 Group   2 Type N   : 12s5p4d2f1g contracted to 6s4p3d1f1g pattern {711111/2111/211/2/1}
 Group   3 Type H   : 5s2p1d contracted to 3s1p1d pattern {311/2/1}

Atom   0C    basis set group =>   1
Atom   1C    basis set group =>   1
Atom   2N    basis set group =>   2
Atom   3N    basis set group =>   2
Atom   4C    basis set group =>   1
Atom   5H    basis set group =>   3
Atom   6H    basis set group =>   3
Atom   7H    basis set group =>   3
Atom   8H    basis set group =>   3
Atom   9C    basis set group =>   1
Atom  10C    basis set group =>   1
Atom  11H    basis set group =>   3
Atom  12H    basis set group =>   3
Atom  13H    basis set group =>   3
Atom  14H    basis set group =>   3
Atom  15H    basis set group =>   3
Atom  16H    basis set group =>   3
Atom  17H    basis set group =>   3
------------------------------------------------------------------------------
                           ORCA GTO INTEGRAL CALCULATION
                           -- RI-GTO INTEGRALS CHOSEN --
------------------------------------------------------------------------------
------------------------------------------------------------------------------
                   ___                                                        
                  /   \      - P O W E R E D   B Y -                         
                 /     \                                                     
                 |  |  |   _    _      __       _____    __    __             
                 |  |  |  | |  | |    /  \     |  _  \  |  |  /  |          
                  \  \/   | |  | |   /    \    | | | |  |  | /  /          
                 / \  \   | |__| |  /  /\  \   | |_| |  |  |/  /          
                |  |  |   |  __  | /  /__\  \  |    /   |      \           
                |  |  |   | |  | | |   __   |  |    \   |  |\   \          
                \     /   | |  | | |  |  |  |  | |\  \  |  | \   \       
                 \___/    |_|  |_| |__|  |__|  |_| \__\ |__|  \__/        
                                                                              
                      - O R C A' S   B I G   F R I E N D -                    
                                      &                                       
                       - I N T E G R A L  F E E D E R -                       
                                                                              
 v1 FN, 2020, v2 2021                                                         
------------------------------------------------------------------------------


Reading SHARK input file 9+.SHARKINP.tmp ... ok
----------------------
SHARK INTEGRAL PACKAGE
----------------------

Number of atoms                             ...     18
Number of basis functions                   ...    153
Number of shells                            ...     75
Maximum angular momentum                    ...      2
Integral batch strategy                     ... SHARK/LIBINT Hybrid
RI-J (if used) integral strategy            ... SPLIT-RIJ (Revised 2003 algorithm where possible)
Printlevel                                  ...      1
Contraction scheme used                     ... SEGMENTED contraction
Coulomb Range Separation                    ... NOT USED
Exchange Range Separation                   ... Long Range
   Mu parameter                             ...  0.300000
   Scaling (regular/separated)              ...  0.157706  0.842294
Finite Nucleus Model                        ... NOT USED
Auxiliary Coulomb fitting basis             ... AVAILABLE
   # of basis functions in Aux-J            ...    464
   # of shells in Aux-J                     ...    160
   Maximum angular momentum in Aux-J        ...      4
Auxiliary J/K fitting basis                 ... NOT available
Auxiliary Correlation fitting basis         ... NOT available
Auxiliary 'external' fitting basis          ... NOT available
Integral threshold                          ...     2.500000e-11
Primitive cut-off                           ...     2.500000e-12
Primitive pair pre-selection threshold      ...     2.500000e-12

Calculating pre-screening integrals         ... done (  0.0 sec) Dimension = 75
Organizing shell pair data                  ... done (  0.0 sec)
Shell pair information
Total number of shell pairs                 ...      2850
Shell pairs after pre-screening             ...      2722
Total number of primitive shell pairs       ...      9854
Primitive shell pairs kept                  ...      7137
          la=0 lb=0:    910 shell pairs
          la=1 lb=0:   1029 shell pairs
          la=1 lb=1:    300 shell pairs
          la=2 lb=0:    287 shell pairs
          la=2 lb=1:    169 shell pairs
          la=2 lb=2:     27 shell pairs

Calculating one electron integrals          ... done (  0.0 sec)
Calculating RI/J V-Matrix + Cholesky decomp.... done (  0.0 sec)
Calculating Nuclear repulsion               ... done (  0.0 sec) ENN=    325.433997578303 Eh

SHARK setup successfully completed in   0.2 seconds

Maximum memory used throughout the entire GTOINT-calculation: 19.4 MB
-------------------------------------------------------------------------------
                                 ORCA SCF
-------------------------------------------------------------------------------

------------
SCF SETTINGS
------------
Hamiltonian:
 Density Functional     Method          .... DFT(GTOs)
 Exchange Functional    Exchange        .... WB97X
 Correlation Functional Correlation     .... WB97X
 Gradients option       PostSCFGGA      .... off
 Hybrid DFT is turned on
   Fraction HF Exchange ScalHFX         ....  0.157706
   Scaling of DF-GGA-X  ScalDFX         ....  0.000000
   Scaling of DF-GGA-C  ScalDFC         ....  1.000000
   Scaling of DF-LDA-C  ScalLDAC        ....  1.000000
   Perturbative correction              ....  0.000000
   Density functional embedding theory  .... OFF
 Long-range corrected/Screened/Range-Separated Hybrid DFT is turned on
   Amount of maximum screened exact exchange              ....  0.842294
   Range separation parameter mu (erf(mu*r12)/r12)        ....  0.300000
 RI-approximation to the Coulomb term is turned on
   Number of AuxJ basis functions       .... 464
   RIJ-COSX (HFX calculated with COS-X)).... on


General Settings:
 Integral files         IntName         .... 9+
 Hartree-Fock type      HFTyp           .... RHF
 Total Charge           Charge          ....    1
 Multiplicity           Mult            ....    1
 Number of Electrons    NEL             ....   54
 Basis Dimension        Dim             ....  153
 Nuclear Repulsion      ENuc            ....    325.4339975783 Eh

Convergence Acceleration:
 DIIS                   CNVDIIS         .... on
   Start iteration      DIISMaxIt       ....     0
   Startup error        DIISStart       ....  0.200000
   # of expansion vecs  DIISMaxEq       ....     5
   Bias factor          DIISBfac        ....   1.050
   Max. coefficient     DIISMaxC        ....  10.000
 Trust-Rad. Augm. Hess. CNVTRAH         .... auto
   Auto Start mean grad. ratio tolernc. ....  1.125000
   Auto Start start iteration           ....    20
   Auto Start num. interpolation iter.  ....    10
   Max. Number of Micro iterations      ....    16
   Max. Number of Macro iterations      .... Maxiter - #DIIS iter
   Number of Davidson start vectors     ....     2
   Converg. threshold I  (grad. norm)   ....   1.000e-05
   Converg. threshold II (energy diff.) ....   1.000e-08
   Grad. Scal. Fac. for Micro threshold ....   0.100
   Minimum threshold for Micro iter.    ....   0.010
   NR start threshold (gradient norm)   ....   0.001
   Initial trust radius                 ....   0.400
   Minimum AH scaling param. (alpha)    ....   1.000
   Maximum AH scaling param. (alpha)    .... 1000.000
   Orbital update algorithm             .... Taylor
   White noise on init. David. guess    .... on
   Maximum white noise                  ....   0.010
   Quad. conv. algorithm                .... NR
 SOSCF                  CNVSOSCF        .... on
   Start iteration      SOSCFMaxIt      ....   150
   Startup grad/error   SOSCFStart      ....  0.001000
 Level Shifting         CNVShift        .... on
   Level shift para.    LevelShift      ....    0.2500
   Turn off err/grad.   ShiftErr        ....    0.0000
 Zerner damping         CNVZerner       .... off
 Static damping         CNVDamp         .... on
   Fraction old density DampFac         ....    0.8500
   Max. Damping (<1)    DampMax         ....    0.9800
   Min. Damping (>=0)   DampMin         ....    0.0000
   Turn off err/grad.   DampErr         ....    0.0300
 Fernandez-Rico         CNVRico         .... off

SCF Procedure:
 Maximum # iterations   MaxIter         ....   125
 SCF integral mode      SCFMode         .... Direct
   Integral package                     .... SHARK and LIBINT hybrid scheme
 Reset frequency        DirectResetFreq ....    20
 Integral Threshold     Thresh          ....  2.500e-11 Eh
 Primitive CutOff       TCut            ....  2.500e-12 Eh

Convergence Tolerance:
 Convergence Check Mode ConvCheckMode   .... Total+1el-Energy
 Convergence forced     ConvForced      .... 0
 Energy Change          TolE            ....  1.000e-08 Eh
 1-El. energy change                    ....  1.000e-05 Eh
 Orbital Gradient       TolG            ....  1.000e-05
 Orbital Rotation angle TolX            ....  1.000e-05
 DIIS Error             TolErr          ....  5.000e-07


Diagonalization of the overlap matrix:
Smallest eigenvalue                        ... 1.653e-03
Time for diagonalization                   ...    0.004 sec
Threshold for overlap eigenvalues          ... 1.000e-08
Number of eigenvalues below threshold      ... 0
Time for construction of square roots      ...    0.002 sec
Total time needed                          ...    0.007 sec

Time for model grid setup =    0.208 sec

------------------------------
INITIAL GUESS: MODEL POTENTIAL
------------------------------
Loading Hartree-Fock densities                     ... done
Calculating cut-offs                               ... done
Initializing the effective Hamiltonian             ... done
Setting up the integral package (SHARK)            ... done
Starting the Coulomb interaction                   ... done (   0.2 sec)
Reading the grid                                   ... done
Mapping shells                                     ... done
Starting the XC term evaluation                    ... done (   0.3 sec)
  promolecular density results
     # of electrons  =     54.996573928
     EX              =    -41.959592053
     EC              =     -1.820652100
     EX+EC           =    -43.780244153
Transforming the Hamiltonian                       ... done (   0.0 sec)
Diagonalizing the Hamiltonian                      ... done (   0.0 sec)
Back transforming the eigenvectors                 ... done (   0.0 sec)
Now organizing SCF variables                       ... done
                      ------------------
                      INITIAL GUESS DONE (   0.6 sec)
                      ------------------
-------------------
DFT GRID GENERATION
-------------------

General Integration Accuracy     IntAcc      ... 4.388
Radial Grid Type                 RadialGrid  ... OptM3 with GC (2021)
Angular Grid (max. ang.)         AngularGrid ... 4 (Lebedev-302)
Angular grid pruning method      GridPruning ... 4 (adaptive)
Weight generation scheme         WeightScheme... Becke
Basis function cutoff            BFCut       ... 1.0000e-11
Integration weight cutoff        WCut        ... 1.0000e-14
Angular grids for H and He will be reduced by one unit
Partially contracted basis set               ... off
Rotationally invariant grid construction     ... off

Total number of grid points                  ...    77391
Total number of batches                      ...     1219
Average number of points per batch           ...       63
Average number of grid points per atom       ...     4300
Time for grid setup =    0.844 sec

--------------------
COSX GRID GENERATION
--------------------

GRIDX 1
-------
General Integration Accuracy     IntAcc      ... 3.816
Radial Grid Type                 RadialGrid  ... OptM3 with GC (2021)
Angular Grid (max. ang.)         AngularGrid ... 1 (Lebedev-50)
Angular grid pruning method      GridPruning ... 4 (adaptive)
Weight generation scheme         WeightScheme... Becke
Basis function cutoff            BFCut       ... 1.0000e-11
Integration weight cutoff        WCut        ... 1.0000e-14
Angular grids for H and He will be reduced by one unit
Partially contracted basis set               ... on
Rotationally invariant grid construction     ... off

Total number of grid points                  ...     9930
Total number of batches                      ...      165
Average number of points per batch           ...       60
Average number of grid points per atom       ...      552
UseSFitting                                  ... on

GRIDX 2
-------
General Integration Accuracy     IntAcc      ... 4.020
Radial Grid Type                 RadialGrid  ... OptM3 with GC (2021)
Angular Grid (max. ang.)         AngularGrid ... 2 (Lebedev-110)
Angular grid pruning method      GridPruning ... 4 (adaptive)
Weight generation scheme         WeightScheme... Becke
Basis function cutoff            BFCut       ... 1.0000e-11
Integration weight cutoff        WCut        ... 1.0000e-14
Angular grids for H and He will be reduced by one unit
Partially contracted basis set               ... on
Rotationally invariant grid construction     ... off

Total number of grid points                  ...    20885
Total number of batches                      ...      334
Average number of points per batch           ...       62
Average number of grid points per atom       ...     1160
UseSFitting                                  ... on

GRIDX 3
-------
General Integration Accuracy     IntAcc      ... 4.338
Radial Grid Type                 RadialGrid  ... OptM3 with GC (2021)
Angular Grid (max. ang.)         AngularGrid ... 3 (Lebedev-194)
Angular grid pruning method      GridPruning ... 4 (adaptive)
Weight generation scheme         WeightScheme... Becke
Basis function cutoff            BFCut       ... 1.0000e-11
Integration weight cutoff        WCut        ... 1.0000e-14
Angular grids for H and He will be reduced by one unit
Partially contracted basis set               ... on
Rotationally invariant grid construction     ... off

Total number of grid points                  ...    45666
Total number of batches                      ...      723
Average number of points per batch           ...       63
Average number of grid points per atom       ...     2537
UseSFitting                                  ... on

Time for X-Grid setup             =    1.048 sec

--------------
SCF ITERATIONS
--------------
ITER       Energy         Delta-E        Max-DP      RMS-DP      [F,P]     Damp
               ***  Starting incremental Fock matrix formation  ***
  0   -306.0537577553   0.000000000000 0.02295794  0.00066332  0.1047298 0.8500
  1   -306.0702221081  -0.016464352731 0.02094839  0.00061058  0.0848828 0.8500
                               ***Turning on DIIS***
  2   -306.0827733464  -0.012551238339 0.01660988  0.00049620  0.0657020 0.8500
  3   -306.0921927313  -0.009419384883 0.01086114  0.00036149  0.0502725 0.8500
  4   -306.0995317579  -0.007339026624 0.00750430  0.00028390  0.0402026 0.8500
  5   -306.1053547404  -0.005822982491 0.00579442  0.00023662  0.0333505 0.8500
  6   -306.1101165347  -0.004761794261 0.03172289  0.00133966  0.0281402 0.0000
                      *** Initiating the SOSCF procedure ***
                           *** Shutting down DIIS ***
                      *** Re-Reading the Fockian *** 
                      *** Removing any level shift *** 
ITER      Energy       Delta-E        Grad      Rot      Max-DP    RMS-DP
  7   -306.13536652  -0.0252499885  0.000653  0.000653  0.001364  0.000043
               *** Restarting incremental Fock matrix formation ***
  8   -306.13540555  -0.0000390267  0.000477  0.000890  0.000961  0.000027
  9   -306.13540760  -0.0000020526  0.000257  0.000281  0.000400  0.000013
 10   -306.13540844  -0.0000008354  0.000020  0.000023  0.000042  0.000002
 11   -306.13540845  -0.0000000129  0.000011  0.000018  0.000021  0.000001
                 **** Energy Check signals convergence ****
              ***Rediagonalizing the Fockian in SOSCF/NRSCF***

               *****************************************************
               *                     SUCCESS                       *
               *           SCF CONVERGED AFTER  12 CYCLES          *
               *****************************************************

Old exchange energy                            =    -13.868249548 Eh
New exchange energy                            =    -13.868242933 Eh
Exchange energy change after final integration =      0.000006615 Eh
Total energy after final integration           =   -306.135401845 Eh
Final COS-X integration done in                =    20.770 sec

----------------
TOTAL SCF ENERGY
----------------

Total Energy       :         -306.13540184 Eh           -8330.36779 eV

Components:
Nuclear Repulsion  :          325.43399758 Eh            8855.50928 eV
Electronic Energy  :         -631.56939942 Eh          -17185.87707 eV
One Electron Energy:        -1045.86573399 Eh          -28459.45347 eV
Two Electron Energy:          414.29633457 Eh           11273.57640 eV
Max COSX asymmetry :            0.00000175 Eh               0.00005 eV

Virial components:
Potential Energy   :         -608.68246775 Eh          -16563.09200 eV
Kinetic Energy     :          302.54706590 Eh            8232.72421 eV
Virial Ratio       :            2.01186042


DFT components:
N(Alpha)           :       26.999987620799 electrons
N(Beta)            :       26.999987620799 electrons
N(Total)           :       53.999975241597 electrons
E(XC)              :      -30.838185959889 Eh       
DFET-embed. en.    :        0.000000000000 Eh       

---------------
SCF CONVERGENCE
---------------

  Last Energy change         ...   -8.6245e-09  Tolerance :   1.0000e-08
  Last MAX-Density change    ...    2.7192e-15  Tolerance :   1.0000e-07
  Last RMS-Density change    ...    4.5397e-17  Tolerance :   5.0000e-09
  Last Orbital Gradient      ...    1.7204e-06  Tolerance :   1.0000e-05
  Last Orbital Rotation      ...    2.8068e-06  Tolerance :   1.0000e-05

             **** THE GBW FILE WAS UPDATED (9+.gbw) ****
             **** DENSITY 9+.scfp WAS UPDATED ****
             **** ENERGY FILE WAS UPDATED (9+.en.tmp) ****
             **** THE GBW FILE WAS UPDATED (9+.gbw) ****
             **** DENSITY 9+.scfp WAS UPDATED ****
----------------
ORBITAL ENERGIES
----------------

  NO   OCC          E(Eh)            E(eV) 
   0   2.0000     -14.643260      -398.4634 
   1   2.0000     -14.643230      -398.4625 
   2   2.0000     -10.563653      -287.4516 
   3   2.0000     -10.491535      -285.4892 
   4   2.0000     -10.491510      -285.4885 
   5   2.0000     -10.475471      -285.0521 
   6   2.0000     -10.475445      -285.0513 
   7   2.0000      -1.347085       -36.6560 
   8   2.0000      -1.235670       -33.6243 
   9   2.0000      -1.085240       -29.5309 
  10   2.0000      -1.054007       -28.6810 
  11   2.0000      -0.983687       -26.7675 
  12   2.0000      -0.942811       -25.6552 
  13   2.0000      -0.892892       -24.2968 
  14   2.0000      -0.823188       -22.4001 
  15   2.0000      -0.811966       -22.0947 
  16   2.0000      -0.769459       -20.9381 
  17   2.0000      -0.736947       -20.0534 
  18   2.0000      -0.732414       -19.9300 
  19   2.0000      -0.723028       -19.6746 
  20   2.0000      -0.708545       -19.2805 
  21   2.0000      -0.693146       -18.8615 
  22   2.0000      -0.665134       -18.0992 
  23   2.0000      -0.655125       -17.8269 
  24   2.0000      -0.653296       -17.7771 
  25   2.0000      -0.639279       -17.3957 
  26   2.0000      -0.509501       -13.8642 
  27   0.0000      -0.102845        -2.7986 
  28   0.0000      -0.016868        -0.4590 
  29   0.0000      -0.003546        -0.0965 
  30   0.0000       0.002373         0.0646 
  31   0.0000       0.038502         1.0477 
  32   0.0000       0.043460         1.1826 
  33   0.0000       0.050433         1.3723 
  34   0.0000       0.056647         1.5414 
  35   0.0000       0.081566         2.2195 
  36   0.0000       0.087326         2.3762 
  37   0.0000       0.089790         2.4433 
  38   0.0000       0.099760         2.7146 
  39   0.0000       0.102522         2.7898 
  40   0.0000       0.120126         3.2688 
  41   0.0000       0.121901         3.3171 
  42   0.0000       0.134861         3.6698 
  43   0.0000       0.171398         4.6640 
  44   0.0000       0.204039         5.5522 
  45   0.0000       0.258001         7.0206 
  46   0.0000       0.302795         8.2395 
  47   0.0000       0.306240         8.3332 
  48   0.0000       0.328302         8.9336 
  49   0.0000       0.362056         9.8520 
  50   0.0000       0.380203        10.3458 
  51   0.0000       0.403318        10.9748 
  52   0.0000       0.407735        11.0950 
  53   0.0000       0.415181        11.2976 
  54   0.0000       0.479132        13.0378 
  55   0.0000       0.498480        13.5643 
  56   0.0000       0.522490        14.2177 
  57   0.0000       0.522740        14.2245 
  58   0.0000       0.554040        15.0762 
  59   0.0000       0.557114        15.1598 
  60   0.0000       0.573622        15.6090 
  61   0.0000       0.580918        15.8076 
  62   0.0000       0.588041        16.0014 
  63   0.0000       0.603669        16.4267 
  64   0.0000       0.608930        16.5698 
  65   0.0000       0.610260        16.6060 
  66   0.0000       0.622162        16.9299 
  67   0.0000       0.624435        16.9917 
  68   0.0000       0.626221        17.0403 
  69   0.0000       0.629169        17.1206 
  70   0.0000       0.643852        17.5201 
  71   0.0000       0.648450        17.6452 
  72   0.0000       0.657501        17.8915 
  73   0.0000       0.672309        18.2945 
  74   0.0000       0.750243        20.4152 
  75   0.0000       0.763547        20.7772 
  76   0.0000       0.840524        22.8718 
  77   0.0000       0.894200        24.3324 
  78   0.0000       0.901155        24.5217 
  79   0.0000       0.945608        25.7313 
  80   0.0000       1.022913        27.8349 
  81   0.0000       1.063180        28.9306 
  82   0.0000       1.068148        29.0658 
  83   0.0000       1.135446        30.8970 
  84   0.0000       1.157859        31.5070 
  85   0.0000       1.162585        31.6355 
  86   0.0000       1.163604        31.6633 
  87   0.0000       1.268862        34.5275 
  88   0.0000       1.306353        35.5477 
  89   0.0000       1.371370        37.3169 
  90   0.0000       1.425303        38.7845 
  91   0.0000       1.442266        39.2460 
  92   0.0000       1.467599        39.9354 
  93   0.0000       1.473510        40.0962 
  94   0.0000       1.497224        40.7415 
  95   0.0000       1.525011        41.4977 
  96   0.0000       1.561449        42.4892 
  97   0.0000       1.602452        43.6049 
  98   0.0000       1.644324        44.7443 
  99   0.0000       1.652624        44.9702 
 100   0.0000       1.678772        45.6817 
 101   0.0000       1.689957        45.9861 
 102   0.0000       1.695575        46.1390 
 103   0.0000       1.710240        46.5380 
 104   0.0000       1.714217        46.6462 
 105   0.0000       1.724976        46.9390 
 106   0.0000       1.735421        47.2232 
 107   0.0000       1.758110        47.8406 
 108   0.0000       1.758484        47.8508 
 109   0.0000       1.776581        48.3432 
 110   0.0000       1.834038        49.9067 
 111   0.0000       1.848666        50.3048 
 112   0.0000       1.861153        50.6446 
 113   0.0000       1.872456        50.9521 
 114   0.0000       1.898319        51.6559 
 115   0.0000       1.952023        53.1172 
 116   0.0000       1.956413        53.2367 
 117   0.0000       1.975593        53.7586 
 118   0.0000       1.976197        53.7750 
 119   0.0000       2.043685        55.6115 
 120   0.0000       2.044928        55.6453 
 121   0.0000       2.165691        58.9314 
 122   0.0000       2.172431        59.1149 
 123   0.0000       2.207264        60.0627 
 124   0.0000       2.213871        60.2425 
 125   0.0000       2.258971        61.4697 
 126   0.0000       2.261358        61.5347 
 127   0.0000       2.293827        62.4182 
 128   0.0000       2.330719        63.4221 
 129   0.0000       2.377276        64.6890 
 130   0.0000       2.416832        65.7653 
 131   0.0000       2.429024        66.0971 
 132   0.0000       2.510706        68.3198 
 133   0.0000       2.513827        68.4047 
 134   0.0000       2.593435        70.5710 
 135   0.0000       2.616893        71.2093 
 136   0.0000       2.621843        71.3440 
 137   0.0000       2.681808        72.9757 
 138   0.0000       2.690864        73.2221 
 139   0.0000       2.714917        73.8766 
 140   0.0000       2.716513        73.9201 
 141   0.0000       2.791849        75.9701 
 142   0.0000       2.797565        76.1256 
 143   0.0000       2.826141        76.9032 
 144   0.0000       2.863324        77.9150 
 145   0.0000       2.879846        78.3646 
 146   0.0000       2.892669        78.7135 
 147   0.0000       2.900183        78.9180 
 148   0.0000       2.981342        81.1264 
 149   0.0000       3.009103        81.8818 
 150   0.0000       3.057047        83.1865 
 151   0.0000       3.261891        88.7606 
 152   0.0000       3.399168        92.4961 

                    ********************************
                    * MULLIKEN POPULATION ANALYSIS *
                    ********************************

-----------------------
MULLIKEN ATOMIC CHARGES
-----------------------
   0 C :    0.099692
   1 C :    0.099693
   2 N :   -0.340919
   3 N :   -0.340917
   4 C :    0.283294
   5 H :    0.098444
   6 H :    0.098019
   7 H :    0.098444
   8 H :    0.098019
   9 C :    0.069421
  10 C :    0.069422
  11 H :    0.094657
  12 H :    0.093274
  13 H :    0.094657
  14 H :    0.093274
  15 H :    0.084473
  16 H :    0.084473
  17 H :    0.122580
Sum of atomic charges:    1.0000000

--------------------------------
MULLIKEN REDUCED ORBITAL CHARGES
--------------------------------
  0 C s       :     3.008360  s :     3.008360
      pz      :     0.770785  p :     2.847628
      px      :     1.089006
      py      :     0.987837
      dz2     :     0.014412  d :     0.044320
      dxz     :     0.009993
      dyz     :     0.006485
      dx2y2   :     0.007000
      dxy     :     0.006429
  1 C s       :     3.008359  s :     3.008359
      pz      :     0.770784  p :     2.847627
      px      :     1.089006
      py      :     0.987837
      dz2     :     0.014412  d :     0.044320
      dxz     :     0.009993
      dyz     :     0.006485
      dx2y2   :     0.007000
      dxy     :     0.006429
  2 N s       :     3.428912  s :     3.428912
      pz      :     1.173859  p :     3.882194
      px      :     1.567805
      py      :     1.140530
      dz2     :     0.006361  d :     0.029812
      dxz     :     0.003769
      dyz     :     0.009756
      dx2y2   :     0.004081
      dxy     :     0.005845
  3 N s       :     3.428911  s :     3.428911
      pz      :     1.173859  p :     3.882194
      px      :     1.567804
      py      :     1.140530
      dz2     :     0.006361  d :     0.029812
      dxz     :     0.003769
      dyz     :     0.009756
      dx2y2   :     0.004081
      dxy     :     0.005845
  4 C s       :     3.080416  s :     3.080416
      pz      :     0.926148  p :     2.558949
      px      :     0.800245
      py      :     0.832556
      dz2     :     0.013700  d :     0.077341
      dxz     :     0.006184
      dyz     :     0.021470
      dx2y2   :     0.010177
      dxy     :     0.025811
  5 H s       :     0.879349  s :     0.879349
      pz      :     0.005227  p :     0.022207
      px      :     0.011767
      py      :     0.005213
  6 H s       :     0.879836  s :     0.879836
      pz      :     0.004826  p :     0.022146
      px      :     0.012672
      py      :     0.004648
  7 H s       :     0.879349  s :     0.879349
      pz      :     0.005227  p :     0.022207
      px      :     0.011767
      py      :     0.005213
  8 H s       :     0.879836  s :     0.879836
      pz      :     0.004826  p :     0.022146
      px      :     0.012672
      py      :     0.004648
  9 C s       :     3.030850  s :     3.030850
      pz      :     1.025709  p :     2.861712
      px      :     1.073591
      py      :     0.762412
      dz2     :     0.007945  d :     0.038016
      dxz     :     0.002840
      dyz     :     0.006391
      dx2y2   :     0.010126
      dxy     :     0.010714
 10 C s       :     3.030850  s :     3.030850
      pz      :     1.025708  p :     2.861713
      px      :     1.073591
      py      :     0.762413
      dz2     :     0.007945  d :     0.038016
      dxz     :     0.002840
      dyz     :     0.006391
      dx2y2   :     0.010126
      dxy     :     0.010714
 11 H s       :     0.882223  s :     0.882223
      pz      :     0.005210  p :     0.023120
      px      :     0.012120
      py      :     0.005789
 12 H s       :     0.883587  s :     0.883587
      pz      :     0.005354  p :     0.023140
      px      :     0.012356
      py      :     0.005430
 13 H s       :     0.882224  s :     0.882224
      pz      :     0.005210  p :     0.023120
      px      :     0.012120
      py      :     0.005789
 14 H s       :     0.883586  s :     0.883586
      pz      :     0.005354  p :     0.023140
      px      :     0.012356
      py      :     0.005430
 15 H s       :     0.892082  s :     0.892082
      pz      :     0.015896  p :     0.023445
      px      :     0.004846
      py      :     0.002704
 16 H s       :     0.892081  s :     0.892081
      pz      :     0.015896  p :     0.023445
      px      :     0.004846
      py      :     0.002704
 17 H s       :     0.855158  s :     0.855158
      pz      :     0.018061  p :     0.022263
      px      :     0.002843
      py      :     0.001359


                     *******************************
                     * LOEWDIN POPULATION ANALYSIS *
                     *******************************

----------------------
LOEWDIN ATOMIC CHARGES
----------------------
   0 C :    0.064842
   1 C :    0.064842
   2 N :    0.013653
   3 N :    0.013654
   4 C :    0.178768
   5 H :    0.051192
   6 H :    0.050390
   7 H :    0.051192
   8 H :    0.050390
   9 C :    0.047594
  10 C :    0.047594
  11 H :    0.049987
  12 H :    0.049788
  13 H :    0.049987
  14 H :    0.049788
  15 H :    0.050427
  16 H :    0.050427
  17 H :    0.065483

-------------------------------
LOEWDIN REDUCED ORBITAL CHARGES
-------------------------------
  0 C s       :     2.840350  s :     2.840350
      pz      :     0.868837  p :     2.988585
      px      :     1.103859
      py      :     1.015889
      dz2     :     0.034251  d :     0.106223
      dxz     :     0.025183
      dyz     :     0.014227
      dx2y2   :     0.018267
      dxy     :     0.014295
  1 C s       :     2.840350  s :     2.840350
      pz      :     0.868837  p :     2.988585
      px      :     1.103858
      py      :     1.015889
      dz2     :     0.034251  d :     0.106223
      dxz     :     0.025183
      dyz     :     0.014227
      dx2y2   :     0.018268
      dxy     :     0.014295
  2 N s       :     3.056297  s :     3.056297
      pz      :     1.184868  p :     3.862546
      px      :     1.496521
      py      :     1.181157
      dz2     :     0.016418  d :     0.067503
      dxz     :     0.006439
      dyz     :     0.025249
      dx2y2   :     0.009681
      dxy     :     0.009716
  3 N s       :     3.056296  s :     3.056296
      pz      :     1.184868  p :     3.862546
      px      :     1.496520
      py      :     1.181157
      dz2     :     0.016418  d :     0.067504
      dxz     :     0.006439
      dyz     :     0.025249
      dx2y2   :     0.009681
      dxy     :     0.009716
  4 C s       :     2.840165  s :     2.840165
      pz      :     1.036800  p :     2.801415
      px      :     0.820006
      py      :     0.944609
      dz2     :     0.033584  d :     0.179653
      dxz     :     0.009719
      dyz     :     0.057772
      dx2y2   :     0.025516
      dxy     :     0.053062
  5 H s       :     0.882113  s :     0.882113
      pz      :     0.016448  p :     0.066694
      px      :     0.033117
      py      :     0.017129
  6 H s       :     0.882962  s :     0.882962
      pz      :     0.015393  p :     0.066648
      px      :     0.035641
      py      :     0.015613
  7 H s       :     0.882113  s :     0.882113
      pz      :     0.016448  p :     0.066694
      px      :     0.033117
      py      :     0.017129
  8 H s       :     0.882963  s :     0.882963
      pz      :     0.015393  p :     0.066648
      px      :     0.035641
      py      :     0.015613
  9 C s       :     2.831477  s :     2.831477
      pz      :     1.061213  p :     3.025005
      px      :     1.097257
      py      :     0.866535
      dz2     :     0.021708  d :     0.095924
      dxz     :     0.006260
      dyz     :     0.015636
      dx2y2   :     0.023848
      dxy     :     0.028472
 10 C s       :     2.831477  s :     2.831477
      pz      :     1.061212  p :     3.025005
      px      :     1.097257
      py      :     0.866536
      dz2     :     0.021708  d :     0.095925
      dxz     :     0.006260
      dyz     :     0.015637
      dx2y2   :     0.023848
      dxy     :     0.028472
 11 H s       :     0.884408  s :     0.884408
      pz      :     0.014545  p :     0.065604
      px      :     0.033633
      py      :     0.017427
 12 H s       :     0.884610  s :     0.884610
      pz      :     0.014953  p :     0.065602
      px      :     0.034271
      py      :     0.016378
 13 H s       :     0.884408  s :     0.884408
      pz      :     0.014545  p :     0.065605
      px      :     0.033633
      py      :     0.017427
 14 H s       :     0.884610  s :     0.884610
      pz      :     0.014953  p :     0.065602
      px      :     0.034271
      py      :     0.016378
 15 H s       :     0.883905  s :     0.883905
      pz      :     0.044275  p :     0.065667
      px      :     0.012960
      py      :     0.008433
 16 H s       :     0.883905  s :     0.883905
      pz      :     0.044275  p :     0.065667
      px      :     0.012960
      py      :     0.008433
 17 H s       :     0.866648  s :     0.866648
      pz      :     0.051723  p :     0.067869
      px      :     0.009015
      py      :     0.007131


                      *****************************
                      * MAYER POPULATION ANALYSIS *
                      *****************************

  NA   - Mulliken gross atomic population
  ZA   - Total nuclear charge
  QA   - Mulliken gross atomic charge
  VA   - Mayer's total valence
  BVA  - Mayer's bonded valence
  FA   - Mayer's free valence

  ATOM       NA         ZA         QA         VA         BVA        FA
  0 C      5.9003     6.0000     0.0997     3.9435     3.9435     0.0000
  1 C      5.9003     6.0000     0.0997     3.9435     3.9435    -0.0000
  2 N      7.3409     7.0000    -0.3409     3.3895     3.3895     0.0000
  3 N      7.3409     7.0000    -0.3409     3.3895     3.3895    -0.0000
  4 C      5.7167     6.0000     0.2833     3.8587     3.8587     0.0000
  5 H      0.9016     1.0000     0.0984     0.9844     0.9844     0.0000
  6 H      0.9020     1.0000     0.0980     0.9839     0.9839    -0.0000
  7 H      0.9016     1.0000     0.0984     0.9844     0.9844     0.0000
  8 H      0.9020     1.0000     0.0980     0.9839     0.9839     0.0000
  9 C      5.9306     6.0000     0.0694     3.8628     3.8628    -0.0000
 10 C      5.9306     6.0000     0.0694     3.8628     3.8628    -0.0000
 11 H      0.9053     1.0000     0.0947     0.9901     0.9901    -0.0000
 12 H      0.9067     1.0000     0.0933     0.9907     0.9907    -0.0000
 13 H      0.9053     1.0000     0.0947     0.9901     0.9901     0.0000
 14 H      0.9067     1.0000     0.0933     0.9907     0.9907     0.0000
 15 H      0.9155     1.0000     0.0845     0.9970     0.9970    -0.0000
 16 H      0.9155     1.0000     0.0845     0.9970     0.9970    -0.0000
 17 H      0.8774     1.0000     0.1226     0.9952     0.9952    -0.0000

  Mayer bond orders larger than 0.100000
B(  0-C ,  1-C ) :   1.0852 B(  0-C ,  2-N ) :   0.9206 B(  0-C ,  5-H ) :   0.9546 
B(  0-C ,  8-H ) :   0.9538 B(  1-C ,  3-N ) :   0.9206 B(  1-C ,  6-H ) :   0.9538 
B(  1-C ,  7-H ) :   0.9546 B(  2-N ,  3-N ) :   0.1012 B(  2-N ,  4-C ) :   1.4145 
B(  2-N ,  9-C ) :   0.9122 B(  3-N ,  4-C ) :   1.4145 B(  3-N , 10-C ) :   0.9122 
B(  4-C , 17-H ) :   0.9643 B(  9-C , 11-H ) :   0.9717 B(  9-C , 14-H ) :   0.9714 
B(  9-C , 15-H ) :   0.9729 B( 10-C , 12-H ) :   0.9714 B( 10-C , 13-H ) :   0.9717 
B( 10-C , 16-H ) :   0.9729 

-------
TIMINGS
-------

Total SCF time: 0 days 0 hours 2 min 3 sec 

Total time                  ....     123.239 sec
Sum of individual times     ....     123.066 sec  ( 99.9%)

Fock matrix formation       ....     120.451 sec  ( 97.7%)
  Split-RI-J                ....       4.399 sec  (  3.7% of F)
  Chain of spheres X        ....     101.324 sec  ( 84.1% of F)
  XC integration            ....      14.614 sec  ( 12.1% of F)
    Basis function eval.    ....       5.103 sec  ( 34.9% of XC)
    Density eval.           ....       3.005 sec  ( 20.6% of XC)
    XC-Functional eval.     ....       2.802 sec  ( 19.2% of XC)
    XC-Potential eval.      ....       3.356 sec  ( 23.0% of XC)
Diagonalization             ....       0.036 sec  (  0.0%)
Density matrix formation    ....       0.005 sec  (  0.0%)
Population analysis         ....       0.006 sec  (  0.0%)
Initial guess               ....       0.441 sec  (  0.4%)
Orbital Transformation      ....       0.000 sec  (  0.0%)
Orbital Orthonormalization  ....       0.000 sec  (  0.0%)
DIIS solution               ....       0.011 sec  (  0.0%)
SOSCF solution              ....       0.016 sec  (  0.0%)
Grid generation             ....       2.099 sec  (  1.7%)

Maximum memory used throughout the entire SCF-calculation: 66.9 MB


-------------------------------------------------------------------------------
                          DFT DISPERSION CORRECTION                            
                                                                               
                                 DFTD4 V2.5                                    
-------------------------------------------------------------------------------
The WB97X functional is recognized
Active option DFTDOPT                   ...         5   

Starting D4
-------------------------   ----------------
Dispersion correction           -0.001840628
-------------------------   ----------------


-------------------------   --------------------
FINAL SINGLE POINT ENERGY      -306.137242472392
-------------------------   --------------------


                            ***************************************
                            *     ORCA property calculations      *
                            ***************************************

                                    ---------------------
                                    Active property flags
                                    ---------------------
   (+) Dipole Moment


------------------------------------------------------------------------------
                       ORCA ELECTRIC PROPERTIES CALCULATION
------------------------------------------------------------------------------

Dipole Moment Calculation                       ... on
Quadrupole Moment Calculation                   ... off
Polarizability Calculation                      ... off
GBWName                                         ... 9+.gbw
Electron density                                ... 9+.scfp
The origin for moment calculation is the CENTER OF MASS  = (-0.000001, -0.000000  0.006768)

-------------
DIPOLE MOMENT
-------------
                                X             Y             Z
Electronic contribution:     -0.00000      -0.00000       0.56493
Nuclear contribution   :      0.00000       0.00000      -0.30546
                        -----------------------------------------
Total Dipole Moment    :      0.00000      -0.00000       0.25948
                        -----------------------------------------
Magnitude (a.u.)       :      0.25948
Magnitude (Debye)      :      0.65954



--------------------
Rotational spectrum 
--------------------
 
Rotational constants in cm-1:     0.191099     0.066455     0.051246 
Rotational constants in MHz :  5729.017726  1992.257069  1536.323467 

 Dipole components along the rotational axes: 
x,y,z [a.u.] :     0.000001    -0.259477     0.000001 
x,y,z [Debye]:     0.000003    -0.659537     0.000003 

 

-------------------------------------------------------------------------------
                               ORCA SCF HESSIAN
-------------------------------------------------------------------------------

                   --------- SHARK INITIALIZATION DONE ---------

Hessian of the Kohn-Sham DFT energy:
Kohn-Sham wavefunction type                      ... RKS
Hartree-Fock exchange scaling                    ...    0.158
Number of operators                              ...    1
Number of atoms                                  ...   18
Basis set dimensions                             ...  153
Integral neglect threshold                       ... 2.5e-11
Integral primitive cutoff                        ... 2.5e-12

Setting up DFT Hessian calculations              ... 

HESS GRID
---------

General Integration Accuracy     IntAcc      ... 4.629
Radial Grid Type                 RadialGrid  ... OptM3 with GC (2021)
Angular Grid (max. ang.)         AngularGrid ... 5 (Lebedev-434)
Angular grid pruning method      GridPruning ... 4 (adaptive)
Weight generation scheme         WeightScheme... Becke
Basis function cutoff            BFCut       ... 1.0000e-11
Integration weight cutoff        WCut        ... 1.0000e-14
Angular grids for H and He will be reduced by one unit
Partially contracted basis set               ... off
Rotationally invariant grid construction     ... off

Total number of grid points                  ...   119885
Total number of batches                      ...     1882
Average number of points per batch           ...       63
Average number of grid points per atom       ...     6660

Building densities                               ... done   (      0.0 sec)
Calculating rho(r) on the grid                   ... done   (      1.0 sec)
Building xc-kernel on the grid                   ... done   (      1.1 sec)
                                                     done   (      3.7 sec)

Nuclear repulsion Hessian  (SHARK)               ... done   (      0.0 sec)

----------------------------------------------
Forming right-hand sides of CP-SCF equations     ...
----------------------------------------------
One electron integral derivatives  (SHARK)       ... done   (      0.2 sec)
Transforming the overlap derivative matrices     ... done   (      0.1 sec)
Making the Q(x) pseudodensities                  ... done   (      0.0 sec)
Adding the E*S(x)*S(y) terms to the Hessian      ... done   (      0.0 sec)
Calculating energy weighted overlap derivatives  ... done   (      0.0 sec)
Two electron integral derivatives (SHARK-RI)     ... done   (     24.0 sec)
Exchange-correlation integral derivatives        ... done   (     95.1 sec)
tr(F(y)Q(x)) contribution to the Hessian         ... done   (      0.0 sec)
Response fock operator R(S(x)) (SHARK-RIJCOSX)   ... done   (     24.4 sec)
XC Response fock operator R(S(x))                ... done   (     35.7 sec)
tr(F(y)S(x)) contribution to the Hessian         ... done   (      0.0 sec)
Transforming and finalizing RHSs                 ... done   (      0.0 sec)

----------------------------------------------
Solving the CP-SCF equations (RIJCOSX)           ...
----------------------------------------------
     CP-SCF ITERATION   0:   1.5112e-01 (  12.5 sec   0/ 54 done)
     CP-SCF ITERATION   1:   1.0588e-01 (  12.5 sec   0/ 54 done)
     CP-SCF ITERATION   2:   2.3157e-02 (  12.5 sec   0/ 54 done)
     CP-SCF ITERATION   3:   1.1086e-02 (  12.6 sec   0/ 54 done)
     CP-SCF ITERATION   4:   4.8902e-03 (  12.7 sec   0/ 54 done)
     CP-SCF ITERATION   5:   1.3915e-03 (  12.6 sec   4/ 54 done)
     CP-SCF ITERATION   6:   4.5495e-04 (  11.9 sec  35/ 54 done)
     CP-SCF ITERATION   7:   1.6747e-04 (   7.4 sec  48/ 54 done)
     CP-SCF ITERATION   8:   5.1343e-05 (   4.3 sec  54/ 54 done)
                    *** THE CP-SCF HAS CONVERGED ***

                                                 ... done   (     99.4 sec)
Forming perturbed density Hessian contributions  ... done   (      0.0 sec)
2nd integral derivative contribs (SHARK-RI)      ... done   (    105.9 sec)
Exchange-correlation Hessian                     ... done   (     77.0 sec)
Dispersion correction in the Hessian             ... Starting D4


------------------- 
Dispersion Gradient 
------------------- 
   1  :    0.000000408    0.000010012   -0.000018796
   2  :   -0.000000438   -0.000010010   -0.000018796
   3  :    0.000000178    0.000012720    0.000000639
   4  :   -0.000000190   -0.000012720    0.000000639
   5  :    0.000000001    0.000000000    0.000008569
   6  :   -0.000000984    0.000002719   -0.000002850
   7  :   -0.000001093   -0.000002610   -0.000002755
   8  :    0.000001009   -0.000002724   -0.000002856
   9  :    0.000001118    0.000002613   -0.000002760
  10  :    0.000000759    0.000035081    0.000009903
  11  :   -0.000000763   -0.000035081    0.000009903
  12  :    0.000000566    0.000007319    0.000002723
  13  :    0.000000323   -0.000007336    0.000002726
  14  :   -0.000000568   -0.000007317    0.000002722
  15  :   -0.000000325    0.000007334    0.000002725
  16  :    0.000000140    0.000008751    0.000002280
  17  :   -0.000000142   -0.000008751    0.000002280
  18  :   -0.000000000   -0.000000000    0.000003706

  |G| =    0.000058215

Starting D4


------------------- 
Dispersion Gradient 
------------------- 
   1  :    0.000000468    0.000010009   -0.000018796
   2  :   -0.000000438   -0.000010011   -0.000018796
   3  :    0.000000196    0.000012720    0.000000639
   4  :   -0.000000183   -0.000012720    0.000000639
   5  :   -0.000000001    0.000000000    0.000008570
   6  :   -0.000001033    0.000002733   -0.000002863
   7  :   -0.000001093   -0.000002605   -0.000002753
   8  :    0.000001008   -0.000002728   -0.000002858
   9  :    0.000001067    0.000002601   -0.000002748
  10  :    0.000000761    0.000035081    0.000009903
  11  :   -0.000000757   -0.000035081    0.000009903
  12  :    0.000000567    0.000007316    0.000002721
  13  :    0.000000326   -0.000007335    0.000002726
  14  :   -0.000000565   -0.000007317    0.000002722
  15  :   -0.000000324    0.000007337    0.000002727
  16  :    0.000000141    0.000008751    0.000002280
  17  :   -0.000000139   -0.000008751    0.000002280
  18  :    0.000000000    0.000000000    0.000003705

  |G| =    0.000058209

Starting D4


------------------- 
Dispersion Gradient 
------------------- 
   1  :    0.000000439    0.000010023   -0.000018785
   2  :   -0.000000438   -0.000009999   -0.000018795
   3  :    0.000000187    0.000012709    0.000000644
   4  :   -0.000000187   -0.000012725    0.000000644
   5  :    0.000000000    0.000000003    0.000008556
   6  :   -0.000001010    0.000002737   -0.000002856
   7  :   -0.000001093   -0.000002609   -0.000002754
   8  :    0.000001008   -0.000002729   -0.000002857
   9  :    0.000001094    0.000002617   -0.000002753
  10  :    0.000000760    0.000035074    0.000009897
  11  :   -0.000000760   -0.000035088    0.000009905
  12  :    0.000000566    0.000007315    0.000002719
  13  :    0.000000324   -0.000007337    0.000002726
  14  :   -0.000000566   -0.000007319    0.000002722
  15  :   -0.000000324    0.000007333    0.000002723
  16  :    0.000000141    0.000008749    0.000002280
  17  :   -0.000000141   -0.000008751    0.000002279
  18  :   -0.000000000   -0.000000002    0.000003706

  |G| =    0.000058211

Starting D4


------------------- 
Dispersion Gradient 
------------------- 
   1  :    0.000000437    0.000009997   -0.000018808
   2  :   -0.000000438   -0.000010021   -0.000018797
   3  :    0.000000187    0.000012731    0.000000634
   4  :   -0.000000187   -0.000012715    0.000000634
   5  :   -0.000000000   -0.000000003    0.000008584
   6  :   -0.000001007    0.000002716   -0.000002857
   7  :   -0.000001093   -0.000002605   -0.000002754
   8  :    0.000001009   -0.000002724   -0.000002857
   9  :    0.000001092    0.000002597   -0.000002755
  10  :    0.000000760    0.000035088    0.000009909
  11  :   -0.000000760   -0.000035074    0.000009901
  12  :    0.000000567    0.000007320    0.000002725
  13  :    0.000000325   -0.000007334    0.000002726
  14  :   -0.000000566   -0.000007316    0.000002722
  15  :   -0.000000325    0.000007338    0.000002729
  16  :    0.000000141    0.000008752    0.000002279
  17  :   -0.000000141   -0.000008750    0.000002280
  18  :    0.000000000    0.000000002    0.000003704

  |G| =    0.000058212

Starting D4


------------------- 
Dispersion Gradient 
------------------- 
   1  :    0.000000438    0.000010022   -0.000018828
   2  :   -0.000000438   -0.000010012   -0.000018794
   3  :    0.000000187    0.000012726    0.000000657
   4  :   -0.000000187   -0.000012722    0.000000639
   5  :   -0.000000000   -0.000000014    0.000008592
   6  :   -0.000001016    0.000002731   -0.000002852
   7  :   -0.000001093   -0.000002611   -0.000002753
   8  :    0.000001008   -0.000002730   -0.000002855
   9  :    0.000001101    0.000002612   -0.000002749
  10  :    0.000000760    0.000035077    0.000009896
  11  :   -0.000000760   -0.000035079    0.000009899
  12  :    0.000000567    0.000007317    0.000002722
  13  :    0.000000325   -0.000007335    0.000002725
  14  :   -0.000000567   -0.000007317    0.000002721
  15  :   -0.000000325    0.000007335    0.000002725
  16  :    0.000000141    0.000008750    0.000002276
  17  :   -0.000000141   -0.000008751    0.000002278
  18  :    0.000000000    0.000000001    0.000003701

  |G| =    0.000058213

Starting D4


------------------- 
Dispersion Gradient 
------------------- 
   1  :    0.000000438    0.000009999   -0.000018765
   2  :   -0.000000438   -0.000010009   -0.000018798
   3  :    0.000000187    0.000012714    0.000000621
   4  :   -0.000000187   -0.000012719    0.000000639
   5  :    0.000000000    0.000000013    0.000008549
   6  :   -0.000001002    0.000002721   -0.000002862
   7  :   -0.000001093   -0.000002603   -0.000002756
   8  :    0.000001009   -0.000002722   -0.000002858
   9  :    0.000001085    0.000002602   -0.000002759
  10  :    0.000000760    0.000035084    0.000009910
  11  :   -0.000000760   -0.000035083    0.000009906
  12  :    0.000000566    0.000007318    0.000002723
  13  :    0.000000324   -0.000007336    0.000002727
  14  :   -0.000000566   -0.000007318    0.000002723
  15  :   -0.000000324    0.000007336    0.000002726
  16  :    0.000000141    0.000008751    0.000002283
  17  :   -0.000000141   -0.000008750    0.000002281
  18  :   -0.000000000   -0.000000001    0.000003710

  |G| =    0.000058210

Starting D4


------------------- 
Dispersion Gradient 
------------------- 
   1  :    0.000000438    0.000010011   -0.000018796
   2  :   -0.000000468   -0.000010009   -0.000018796
   3  :    0.000000183    0.000012720    0.000000639
   4  :   -0.000000196   -0.000012720    0.000000639
   5  :    0.000000001   -0.000000000    0.000008570
   6  :   -0.000001008    0.000002728   -0.000002858
   7  :   -0.000001067   -0.000002601   -0.000002748
   8  :    0.000001033   -0.000002733   -0.000002863
   9  :    0.000001093    0.000002605   -0.000002753
  10  :    0.000000757    0.000035081    0.000009903
  11  :   -0.000000761   -0.000035081    0.000009903
  12  :    0.000000565    0.000007317    0.000002722
  13  :    0.000000324   -0.000007337    0.000002727
  14  :   -0.000000567   -0.000007316    0.000002721
  15  :   -0.000000326    0.000007335    0.000002726
  16  :    0.000000139    0.000008751    0.000002280
  17  :   -0.000000141   -0.000008751    0.000002280
  18  :   -0.000000000   -0.000000000    0.000003705

  |G| =    0.000058215

Starting D4


------------------- 
Dispersion Gradient 
------------------- 
   1  :    0.000000437    0.000010010   -0.000018796
   2  :   -0.000000408   -0.000010012   -0.000018796
   3  :    0.000000190    0.000012720    0.000000639
   4  :   -0.000000178   -0.000012720    0.000000639
   5  :   -0.000000001   -0.000000000    0.000008569
   6  :   -0.000001009    0.000002724   -0.000002856
   7  :   -0.000001118   -0.000002613   -0.000002760
   8  :    0.000000984   -0.000002719   -0.000002850
   9  :    0.000001093    0.000002610   -0.000002755
  10  :    0.000000763    0.000035081    0.000009903
  11  :   -0.000000759   -0.000035081    0.000009903
  12  :    0.000000568    0.000007317    0.000002722
  13  :    0.000000325   -0.000007334    0.000002725
  14  :   -0.000000566   -0.000007319    0.000002723
  15  :   -0.000000323    0.000007336    0.000002726
  16  :    0.000000142    0.000008751    0.000002280
  17  :   -0.000000140   -0.000008751    0.000002280
  18  :    0.000000000    0.000000000    0.000003706

  |G| =    0.000058209

Starting D4


------------------- 
Dispersion Gradient 
------------------- 
   1  :    0.000000438    0.000010021   -0.000018797
   2  :   -0.000000437   -0.000009997   -0.000018808
   3  :    0.000000187    0.000012715    0.000000634
   4  :   -0.000000187   -0.000012731    0.000000634
   5  :    0.000000000    0.000000003    0.000008584
   6  :   -0.000001009    0.000002724   -0.000002857
   7  :   -0.000001092   -0.000002597   -0.000002755
   8  :    0.000001007   -0.000002716   -0.000002857
   9  :    0.000001093    0.000002605   -0.000002754
  10  :    0.000000760    0.000035074    0.000009901
  11  :   -0.000000760   -0.000035088    0.000009909
  12  :    0.000000566    0.000007316    0.000002722
  13  :    0.000000325   -0.000007338    0.000002729
  14  :   -0.000000567   -0.000007320    0.000002725
  15  :   -0.000000325    0.000007334    0.000002726
  16  :    0.000000141    0.000008750    0.000002280
  17  :   -0.000000141   -0.000008752    0.000002279
  18  :   -0.000000000   -0.000000002    0.000003704

  |G| =    0.000058211

Starting D4


------------------- 
Dispersion Gradient 
------------------- 
   1  :    0.000000438    0.000009999   -0.000018795
   2  :   -0.000000439   -0.000010023   -0.000018785
   3  :    0.000000187    0.000012725    0.000000644
   4  :   -0.000000187   -0.000012709    0.000000644
   5  :   -0.000000000   -0.000000003    0.000008556
   6  :   -0.000001008    0.000002729   -0.000002857
   7  :   -0.000001094   -0.000002617   -0.000002753
   8  :    0.000001010   -0.000002737   -0.000002856
   9  :    0.000001093    0.000002609   -0.000002754
  10  :    0.000000760    0.000035088    0.000009905
  11  :   -0.000000760   -0.000035074    0.000009897
  12  :    0.000000566    0.000007319    0.000002722
  13  :    0.000000324   -0.000007333    0.000002723
  14  :   -0.000000566   -0.000007315    0.000002719
  15  :   -0.000000324    0.000007337    0.000002726
  16  :    0.000000141    0.000008751    0.000002279
  17  :   -0.000000141   -0.000008749    0.000002280
  18  :    0.000000000    0.000000002    0.000003706

  |G| =    0.000058212

Starting D4


------------------- 
Dispersion Gradient 
------------------- 
   1  :    0.000000438    0.000010012   -0.000018794
   2  :   -0.000000438   -0.000010022   -0.000018828
   3  :    0.000000187    0.000012722    0.000000639
   4  :   -0.000000187   -0.000012726    0.000000657
   5  :    0.000000000    0.000000014    0.000008592
   6  :   -0.000001008    0.000002730   -0.000002855
   7  :   -0.000001101   -0.000002612   -0.000002749
   8  :    0.000001016   -0.000002731   -0.000002852
   9  :    0.000001093    0.000002611   -0.000002753
  10  :    0.000000760    0.000035079    0.000009899
  11  :   -0.000000760   -0.000035077    0.000009896
  12  :    0.000000567    0.000007317    0.000002721
  13  :    0.000000325   -0.000007335    0.000002725
  14  :   -0.000000567   -0.000007317    0.000002722
  15  :   -0.000000325    0.000007335    0.000002725
  16  :    0.000000141    0.000008751    0.000002278
  17  :   -0.000000141   -0.000008750    0.000002276
  18  :   -0.000000000   -0.000000001    0.000003701

  |G| =    0.000058213

Starting D4


------------------- 
Dispersion Gradient 
------------------- 
   1  :    0.000000438    0.000010009   -0.000018798
   2  :   -0.000000438   -0.000009999   -0.000018765
   3  :    0.000000187    0.000012719    0.000000639
   4  :   -0.000000187   -0.000012714    0.000000621
   5  :   -0.000000000   -0.000000013    0.000008549
   6  :   -0.000001009    0.000002722   -0.000002858
   7  :   -0.000001085   -0.000002602   -0.000002759
   8  :    0.000001002   -0.000002721   -0.000002862
   9  :    0.000001093    0.000002603   -0.000002756
  10  :    0.000000760    0.000035083    0.000009906
  11  :   -0.000000760   -0.000035084    0.000009909
  12  :    0.000000566    0.000007318    0.000002723
  13  :    0.000000324   -0.000007336    0.000002726
  14  :   -0.000000566   -0.000007318    0.000002723
  15  :   -0.000000324    0.000007336    0.000002727
  16  :    0.000000141    0.000008750    0.000002281
  17  :   -0.000000141   -0.000008751    0.000002283
  18  :    0.000000000    0.000000001    0.000003710

  |G| =    0.000058210

Starting D4


------------------- 
Dispersion Gradient 
------------------- 
   1  :    0.000000429    0.000010010   -0.000018796
   2  :   -0.000000441   -0.000010010   -0.000018796
   3  :    0.000000228    0.000012721    0.000000639
   4  :   -0.000000181   -0.000012721    0.000000639
   5  :   -0.000000012   -0.000000000    0.000008570
   6  :   -0.000001009    0.000002728   -0.000002860
   7  :   -0.000001094   -0.000002609   -0.000002755
   8  :    0.000001008   -0.000002725   -0.000002856
   9  :    0.000001092    0.000002606   -0.000002750
  10  :    0.000000749    0.000035082    0.000009903
  11  :   -0.000000765   -0.000035081    0.000009903
  12  :    0.000000565    0.000007320    0.000002722
  13  :    0.000000323   -0.000007336    0.000002726
  14  :   -0.000000568   -0.000007317    0.000002722
  15  :   -0.000000326    0.000007333    0.000002726
  16  :    0.000000142    0.000008751    0.000002280
  17  :   -0.000000142   -0.000008751    0.000002280
  18  :    0.000000002   -0.000000000    0.000003706

  |G| =    0.000058213

Starting D4


------------------- 
Dispersion Gradient 
------------------- 
   1  :    0.000000447    0.000010011   -0.000018796
   2  :   -0.000000434   -0.000010010   -0.000018796
   3  :    0.000000146    0.000012720    0.000000639
   4  :   -0.000000193   -0.000012719    0.000000639
   5  :    0.000000012   -0.000000000    0.000008570
   6  :   -0.000001008    0.000002725   -0.000002853
   7  :   -0.000001092   -0.000002606   -0.000002753
   8  :    0.000001010   -0.000002728   -0.000002858
   9  :    0.000001094    0.000002609   -0.000002758
  10  :    0.000000771    0.000035080    0.000009902
  11  :   -0.000000756   -0.000035081    0.000009903
  12  :    0.000000568    0.000007315    0.000002722
  13  :    0.000000326   -0.000007335    0.000002726
  14  :   -0.000000565   -0.000007317    0.000002722
  15  :   -0.000000323    0.000007338    0.000002726
  16  :    0.000000140    0.000008751    0.000002280
  17  :   -0.000000139   -0.000008751    0.000002280
  18  :   -0.000000002    0.000000000    0.000003705

  |G| =    0.000058211

Starting D4


------------------- 
Dispersion Gradient 
------------------- 
   1  :    0.000000438    0.000010000   -0.000018790
   2  :   -0.000000438   -0.000010016   -0.000018795
   3  :    0.000000187    0.000012797    0.000000634
   4  :   -0.000000188   -0.000012777    0.000000638
   5  :    0.000000000   -0.000000002    0.000008555
   6  :   -0.000001008    0.000002727   -0.000002855
   7  :   -0.000001092   -0.000002609   -0.000002755
   8  :    0.000001008   -0.000002729   -0.000002858
   9  :    0.000001092    0.000002608   -0.000002752
  10  :    0.000000761    0.000035104    0.000009914
  11  :   -0.000000760   -0.000035092    0.000009904
  12  :    0.000000566    0.000007315    0.000002721
  13  :    0.000000325   -0.000007337    0.000002726
  14  :   -0.000000567   -0.000007319    0.000002722
  15  :   -0.000000324    0.000007333    0.000002725
  16  :    0.000000141    0.000008749    0.000002280
  17  :   -0.000000141   -0.000008753    0.000002280
  18  :   -0.000000000   -0.000000000    0.000003707

  |G| =    0.000058261

Starting D4


------------------- 
Dispersion Gradient 
------------------- 
   1  :    0.000000438    0.000010021   -0.000018802
   2  :   -0.000000438   -0.000010005   -0.000018798
   3  :    0.000000187    0.000012643    0.000000645
   4  :   -0.000000186   -0.000012663    0.000000640
   5  :   -0.000000000    0.000000002    0.000008585
   6  :   -0.000001009    0.000002725   -0.000002859
   7  :   -0.000001094   -0.000002605   -0.000002754
   8  :    0.000001009   -0.000002724   -0.000002856
   9  :    0.000001093    0.000002606   -0.000002756
  10  :    0.000000759    0.000035057    0.000009891
  11  :   -0.000000760   -0.000035070    0.000009902
  12  :    0.000000567    0.000007320    0.000002723
  13  :    0.000000324   -0.000007334    0.000002726
  14  :   -0.000000566   -0.000007316    0.000002722
  15  :   -0.000000325    0.000007338    0.000002727
  16  :    0.000000141    0.000008753    0.000002279
  17  :   -0.000000141   -0.000008748    0.000002279
  18  :    0.000000000    0.000000000    0.000003704

  |G| =    0.000058162

Starting D4


------------------- 
Dispersion Gradient 
------------------- 
   1  :    0.000000438    0.000010016   -0.000018778
   2  :   -0.000000438   -0.000010015   -0.000018796
   3  :    0.000000187    0.000012715    0.000000662
   4  :   -0.000000187   -0.000012719    0.000000639
   5  :   -0.000000000   -0.000000008    0.000008557
   6  :   -0.000001010    0.000002726   -0.000002861
   7  :   -0.000001092   -0.000002608   -0.000002756
   8  :    0.000001008   -0.000002727   -0.000002859
   9  :    0.000001094    0.000002607   -0.000002758
  10  :    0.000000760    0.000035092    0.000009898
  11  :   -0.000000760   -0.000035080    0.000009899
  12  :    0.000000565    0.000007318    0.000002723
  13  :    0.000000324   -0.000007336    0.000002724
  14  :   -0.000000566   -0.000007317    0.000002721
[...]
      5      -0.010095   0.000677   0.000226   0.036794   0.035511  -0.003873
      6      -0.005768   0.000016  -0.000020  -0.000057   0.000066   0.000856
      7      -0.278165   0.000346   0.000403  -0.000296   0.000040   0.000020
      8       0.103498  -0.000315   0.000127  -0.000621   0.000027   0.000113
      9      -0.005769   0.000016   0.000020  -0.000057  -0.000066  -0.000856
     10      -0.278174   0.000348  -0.000402  -0.000296  -0.000040  -0.000020
     11      -0.103503   0.000315   0.000129   0.000621   0.000027   0.000113
     12       0.007612  -0.000026  -0.000000  -0.000012   0.000000  -0.000000
     13       0.498684  -0.002192  -0.000004  -0.001458  -0.000000   0.000000
     14       0.000005  -0.000000   0.000255  -0.000000   0.000237  -0.000031
     15       0.044946   0.004228  -0.000090   0.381949  -0.375328   0.414409
     16      -0.094959  -0.001219  -0.000737  -0.192515   0.189376  -0.218479
     17      -0.195385   0.003380  -0.001312   0.210780  -0.205465   0.237160
     18      -0.044049  -0.005356  -0.000094  -0.440096  -0.447027  -0.386912
     19      -0.092659  -0.001259   0.000802  -0.178573  -0.181333  -0.164408
     20       0.196748  -0.003692  -0.001412  -0.211043  -0.213749  -0.192881
     21       0.044947   0.004227   0.000105   0.381863   0.375393  -0.414353
     22      -0.094961  -0.001221   0.000732  -0.192472  -0.189409   0.218449
     23       0.195390  -0.003375  -0.001324  -0.210733  -0.205502   0.237129
     24      -0.044048  -0.005356   0.000075  -0.440173   0.446930   0.386988
     25      -0.092657  -0.001256  -0.000807  -0.178604   0.181294   0.164441
     26      -0.196743   0.003697  -0.001398   0.211080  -0.213703  -0.192919
     27       0.000828   0.000831  -0.000822   0.000098  -0.000133  -0.007025
     28       0.031702   0.034415  -0.034406  -0.000318  -0.000091   0.000125
     29      -0.008149   0.005015  -0.005059  -0.000290   0.000139   0.000133
     30       0.000828   0.000830   0.000827   0.000098   0.000133   0.007023
     31       0.031704   0.034290   0.034530  -0.000318   0.000091  -0.000125
     32       0.008149  -0.004997  -0.005077   0.000290   0.000139   0.000133
     33       0.062379   0.355464  -0.354284  -0.004678   0.000923   0.041940
     34       0.168261  -0.210838   0.210507   0.002032   0.000548  -0.026899
     35       0.071330   0.137363  -0.136754  -0.002981   0.001605   0.015971
     36      -0.053358  -0.359371  -0.360732   0.003536  -0.000765  -0.042618
     37       0.172009  -0.196978  -0.198083   0.001016  -0.001741  -0.025288
     38      -0.074860  -0.146994  -0.147393   0.002750   0.001092  -0.017369
     39       0.062380   0.354166   0.355558  -0.004678  -0.000924  -0.041927
     40       0.168265  -0.210064  -0.211261   0.002032  -0.000547   0.026891
     41      -0.071330  -0.136860  -0.137244   0.002980   0.001606   0.015966
     42      -0.053356  -0.360669   0.359420   0.003536   0.000766   0.042632
     43       0.172004  -0.197688   0.197361   0.001016   0.001741   0.025296
     44       0.074858   0.147521  -0.146853  -0.002751   0.001091  -0.017374
     45       0.000580  -0.004720   0.004702   0.000031   0.000050  -0.000078
     46      -0.024244   0.004625  -0.004537  -0.001343   0.001211  -0.000039
     47      -0.012301  -0.346232   0.344483   0.005296  -0.001544  -0.000385
     48       0.000581  -0.004705  -0.004721   0.000031  -0.000050   0.000078
     49      -0.024249   0.004609   0.004554  -0.001342  -0.001211   0.000039
     50       0.012301   0.344988   0.345742  -0.005296  -0.001545  -0.000388
     51      -0.006416   0.000077   0.000000   0.000165   0.000000  -0.000000
     52      -0.467052   0.002113   0.000004  -0.000424  -0.000000   0.000000
     53       0.000007   0.000014  -0.007700   0.000002  -0.016985   0.001448
                 48         49         50         51         52         53    
      0       0.066023   0.007329  -0.016767  -0.000089  -0.000060  -0.000031
      1      -0.003953  -0.000430   0.000946   0.000173   0.000078  -0.000928
      2       0.003184   0.000329  -0.000745   0.000252   0.000311   0.001475
      3       0.066034  -0.007228  -0.016810  -0.000089   0.000059   0.000031
      4      -0.003955   0.000425   0.000949   0.000174  -0.000076   0.000928
      5      -0.003186   0.000325   0.000748  -0.000255   0.000309   0.001475
      6      -0.000794   0.000561  -0.000341   0.000029   0.000033  -0.000060
      7       0.000076  -0.000016   0.000001   0.000463   0.000715  -0.004193
      8      -0.000022  -0.000010   0.000006   0.000206   0.000224   0.003581
      9      -0.000794  -0.000559  -0.000344   0.000030  -0.000033   0.000060
     10       0.000076   0.000016   0.000002   0.000470  -0.000711   0.004193
     11       0.000022  -0.000010  -0.000006  -0.000208   0.000222   0.003581
     12       0.000578  -0.000001   0.000257   0.000002   0.000000  -0.000000
     13       0.000027   0.000000  -0.000012  -0.000397  -0.000002  -0.000000
     14      -0.000000  -0.000010  -0.000000  -0.000007   0.001568  -0.093564
     15      -0.397413  -0.043340   0.099733  -0.000249  -0.000430  -0.006008
     16       0.210994   0.023695  -0.053618   0.000728   0.000834   0.003489
     17      -0.226957  -0.023309   0.055391   0.000163   0.000305  -0.003540
     18      -0.384633   0.041619   0.098027   0.001205  -0.001012  -0.006156
     19      -0.164994   0.018606   0.042808   0.001097  -0.001042  -0.002888
     20      -0.191094   0.019167   0.047076   0.000229   0.000100  -0.003133
     21      -0.397491   0.042743   0.099990  -0.000254   0.000429   0.006008
     22       0.211035  -0.023374  -0.053758   0.000736  -0.000828  -0.003489
     23       0.227002  -0.022977  -0.055529  -0.000165   0.000303  -0.003540
     24      -0.384579  -0.042206   0.097782   0.001197   0.001024   0.006156
     25      -0.164971  -0.018863   0.042698   0.001087   0.001053   0.002889
     26       0.191067   0.019450  -0.046963  -0.000231   0.000097  -0.003133
     27       0.016619  -0.067577   0.065569  -0.000566  -0.000560   0.000003
     28      -0.000347   0.001373  -0.001325   0.018822   0.018957   0.000151
     29      -0.000294   0.000952  -0.000923  -0.064582  -0.065195  -0.001188
     30       0.016617   0.067194   0.065962  -0.000575   0.000559  -0.000003
     31      -0.000346  -0.001364  -0.001333   0.019000  -0.018779  -0.000151
     32       0.000295   0.000951   0.000933   0.065194  -0.064584  -0.001188
     33      -0.098204   0.401288  -0.389057   0.197939   0.199523   0.000503
     34       0.060985  -0.244060   0.236277  -0.114544  -0.115451   0.001226
     35      -0.038775   0.162086  -0.157397   0.071006   0.071515   0.000683
     36      -0.099139  -0.402794  -0.395118  -0.201558   0.199489   0.000572
     37      -0.057034  -0.226613  -0.221936  -0.107560   0.106445  -0.001174
     38      -0.041436  -0.171691  -0.168662  -0.076977   0.076133   0.000766
     39      -0.098196  -0.399016  -0.391391   0.199838  -0.197678  -0.000503
     40       0.060979   0.242679   0.237694  -0.115643   0.114383  -0.001227
     41       0.038770   0.161164   0.158337  -0.071687   0.070853   0.000683
     42      -0.099149   0.405088  -0.392763  -0.199691  -0.201400  -0.000572
     43      -0.057039   0.227898  -0.220609  -0.106563  -0.107464   0.001174
     44       0.041440  -0.172667   0.167656   0.076264   0.076862   0.000766
     45       0.001271  -0.006618   0.006506   0.008217   0.008294   0.000180
     46       0.000019   0.000170  -0.000170  -0.010045  -0.010144   0.001397
     47       0.001024  -0.000672   0.000588   0.613352   0.619307   0.011819
     48       0.001270   0.006581   0.006545   0.008298  -0.008220  -0.000180
     49       0.000019  -0.000170  -0.000172  -0.010140   0.010050  -0.001397
     50      -0.001034  -0.000716  -0.000637  -0.619154   0.613498   0.011819
     51       0.001878   0.000003  -0.000979  -0.000077  -0.000000   0.000001
     52       0.000040  -0.000000  -0.000016  -0.002187  -0.000010  -0.000000
     53       0.000001   0.000085   0.000001   0.000070  -0.014857   0.995314


-----------
IR SPECTRUM
-----------

 Mode   freq       eps      Int      T**2         TX        TY        TZ
       cm**-1   L/(mol*cm) km/mol    a.u.
----------------------------------------------------------------------------
  6:     21.78   0.000000    0.00  0.000001  ( 0.000001  0.000001 -0.000863)
  7:    123.25   0.000572    2.89  0.001448  ( 0.037905 -0.003307 -0.000000)
  8:    144.36   0.000000    0.00  0.000000  ( 0.000003 -0.000001  0.000410)
  9:    179.11   0.000350    1.77  0.000610  ( 0.024671 -0.001115 -0.000000)
 10:    213.49   0.000000    0.00  0.000000  ( 0.000000 -0.000000  0.000191)
 11:    270.53   0.000008    0.04  0.000009  ( 0.000000 -0.000000  0.003026)
 12:    400.97   0.000056    0.28  0.000043  ( 0.000482  0.006564  0.000000)
 13:    476.67   0.005095   25.75  0.003336  ( 0.057658 -0.003345 -0.000000)
 14:    619.49   0.000024    0.12  0.000012  (-0.000000 -0.000001 -0.003446)
 15:    636.14   0.001384    7.00  0.000679  ( 0.000460  0.026055 -0.000000)
 16:    850.71   0.000005    0.02  0.000002  (-0.000625  0.001164  0.000000)
 17:    951.60   0.001685    8.52  0.000553  (-0.000000  0.000001  0.023507)
 18:    963.39   0.000746    3.77  0.000242  ( 0.000873 -0.015518  0.000002)
 19:   1009.16   0.000789    3.99  0.000244  ( 0.015581  0.001041  0.000000)
 20:   1020.23   0.000017    0.09  0.000005  (-0.000000 -0.000000 -0.002293)
 21:   1095.37   0.000001    0.00  0.000000  (-0.000000  0.000001  0.000387)
 22:   1111.16   0.005452   27.55  0.001531  (-0.000363 -0.039130  0.000001)
 23:   1118.59   0.001519    7.67  0.000424  ( 0.000000  0.000002  0.020583)
 24:   1145.69   0.000053    0.27  0.000014  ( 0.003671 -0.000983  0.000000)
 25:   1161.43   0.000000    0.00  0.000000  ( 0.000000 -0.000000  0.000152)
 26:   1207.32   0.015573   78.70  0.004025  ( 0.002356  0.063400  0.000000)
 27:   1235.47   0.001988   10.05  0.000502  (-0.021707  0.005562  0.000000)
 28:   1261.13   0.000021    0.10  0.000005  ( 0.000000 -0.000000  0.002258)
 29:   1339.00   0.004000   20.21  0.000932  ( 0.000319  0.030529 -0.000000)
 30:   1344.41   0.003135   15.84  0.000728  (-0.000000  0.000001 -0.026974)
 31:   1356.74   0.008064   40.75  0.001855  ( 0.001286  0.043048  0.000000)
 32:   1400.08   0.003807   19.24  0.000849  (-0.000000 -0.000000 -0.029130)
 33:   1451.31   0.005406   27.32  0.001163  ( 0.004739 -0.033765  0.000000)
 34:   1454.94   0.000002    0.01  0.000000  ( 0.000004 -0.000000 -0.000685)
 35:   1456.40   0.008453   42.72  0.001811  ( 0.042452  0.002999  0.000000)
 36:   1459.08   0.000428    2.16  0.000092  ( 0.000002 -0.000001 -0.009569)
 37:   1484.14   0.006442   32.56  0.001355  (-0.000000 -0.000000 -0.036805)
 38:   1486.18   0.000024    0.12  0.000005  ( 0.000273  0.002214  0.000000)
 39:   1494.15   0.000035    0.18  0.000007  ( 0.000726  0.002624  0.000000)
 40:   1508.75   0.000727    3.67  0.000150  ( 0.000000  0.000000 -0.012263)
 41:   1629.56   0.005019   25.37  0.000961  (-0.000000 -0.000002  0.031003)
 42:   1785.99   0.104537  528.29  0.018266  ( 0.002781  0.135122  0.000000)
 43:   3080.13   0.003818   19.29  0.000387  ( 0.000476  0.019661  0.000008)
 44:   3080.49   0.000213    1.08  0.000022  ( 0.000001  0.000036 -0.004644)
 45:   3103.88   0.000973    4.92  0.000098  ( 0.001350  0.009798 -0.000001)
 46:   3107.70   0.000611    3.09  0.000061  ( 0.000000  0.000001  0.007830)
 47:   3167.97   0.000001    0.00  0.000000  (-0.000000 -0.000000 -0.000225)
 48:   3178.09   0.000306    1.55  0.000030  ( 0.005486 -0.000003 -0.000000)
 49:   3186.23   0.000000    0.00  0.000000  (-0.000012  0.000000  0.000068)
 50:   3186.58   0.000184    0.93  0.000018  ( 0.004242 -0.000129  0.000000)
 51:   3215.14   0.000073    0.37  0.000007  ( 0.000094  0.002661  0.000007)
 52:   3215.15   0.000026    0.13  0.000003  ( 0.000001  0.000012 -0.001584)
 53:   3255.30   0.001403    7.09  0.000135  ( 0.000000  0.000000  0.011598)

* The epsilon (eps) is given for a Dirac delta lineshape.
** The dipole moment derivative (T) already includes vibrational overlap.

The first frequency considered to be a vibration is 6
The total number of vibrations considered is 48


--------------------------
THERMOCHEMISTRY AT 298.15K
--------------------------

Temperature         ... 298.15 K
Pressure            ... 1.00 atm
Total Mass          ... 99.16 AMU

Throughout the following assumptions are being made:
  (1) The electronic state is orbitally nondegenerate
  (2) There are no thermally accessible electronically excited states
  (3) Hindered rotations indicated by low frequency modes are not
      treated as such but are treated as vibrations and this may
      cause some error
  (4) All equations used are the standard statistical mechanics
      equations for an ideal gas
  (5) All vibrations are strictly harmonic

freq.      21.78  E(vib)   ...       0.56 
freq.     123.25  E(vib)   ...       0.43 
freq.     144.36  E(vib)   ...       0.41 
freq.     179.11  E(vib)   ...       0.37 
freq.     213.49  E(vib)   ...       0.34 
freq.     270.53  E(vib)   ...       0.29 
freq.     400.97  E(vib)   ...       0.19 
freq.     476.67  E(vib)   ...       0.15 
freq.     619.49  E(vib)   ...       0.09 
freq.     636.14  E(vib)   ...       0.09 
freq.     850.71  E(vib)   ...       0.04 
freq.     951.60  E(vib)   ...       0.03 
freq.     963.39  E(vib)   ...       0.03 
freq.    1009.16  E(vib)   ...       0.02 
freq.    1020.23  E(vib)   ...       0.02 
freq.    1095.37  E(vib)   ...       0.02 
freq.    1111.16  E(vib)   ...       0.01 
freq.    1118.59  E(vib)   ...       0.01 
freq.    1145.69  E(vib)   ...       0.01 
freq.    1161.43  E(vib)   ...       0.01 
freq.    1207.32  E(vib)   ...       0.01 
freq.    1235.47  E(vib)   ...       0.01 
freq.    1261.13  E(vib)   ...       0.01 
freq.    1339.00  E(vib)   ...       0.01 
freq.    1344.41  E(vib)   ...       0.01 
freq.    1356.74  E(vib)   ...       0.01 
freq.    1400.08  E(vib)   ...       0.00 
freq.    1451.31  E(vib)   ...       0.00 
freq.    1454.94  E(vib)   ...       0.00 
freq.    1456.40  E(vib)   ...       0.00 
freq.    1459.08  E(vib)   ...       0.00 
freq.    1484.14  E(vib)   ...       0.00 
freq.    1486.18  E(vib)   ...       0.00 
freq.    1494.15  E(vib)   ...       0.00 
freq.    1508.75  E(vib)   ...       0.00 
freq.    1629.56  E(vib)   ...       0.00 
freq.    1785.99  E(vib)   ...       0.00 
freq.    3080.13  E(vib)   ...       0.00 
freq.    3080.49  E(vib)   ...       0.00 
freq.    3103.88  E(vib)   ...       0.00 
freq.    3107.70  E(vib)   ...       0.00 
freq.    3167.97  E(vib)   ...       0.00 
freq.    3178.09  E(vib)   ...       0.00 
freq.    3186.23  E(vib)   ...       0.00 
freq.    3186.58  E(vib)   ...       0.00 
freq.    3215.14  E(vib)   ...       0.00 
freq.    3215.15  E(vib)   ...       0.00 
freq.    3255.30  E(vib)   ...       0.00 

------------
INNER ENERGY
------------

The inner energy is: U= E(el) + E(ZPE) + E(vib) + E(rot) + E(trans)
    E(el)   - is the total energy from the electronic structure calculation
              = E(kin-el) + E(nuc-el) + E(el-el) + E(nuc-nuc)
    E(ZPE)  - the the zero temperature vibrational energy from the frequency calculation
    E(vib)  - the the finite temperature correction to E(ZPE) due to population
              of excited vibrational states
    E(rot)  - is the rotational thermal energy
    E(trans)- is the translational thermal energy

Summary of contributions to the inner energy U:
Electronic energy                ...   -306.13724247 Eh
Zero point energy                ...      0.16549617 Eh     103.85 kcal/mol
Thermal vibrational correction   ...      0.00513490 Eh       3.22 kcal/mol
Thermal rotational correction    ...      0.00141627 Eh       0.89 kcal/mol
Thermal translational correction ...      0.00141627 Eh       0.89 kcal/mol
-----------------------------------------------------------------------
Total thermal energy                   -305.96377886 Eh


Summary of corrections to the electronic energy:
(perhaps to be used in another calculation)
Total thermal correction                  0.00796744 Eh       5.00 kcal/mol
Non-thermal (ZPE) correction              0.16549617 Eh     103.85 kcal/mol
-----------------------------------------------------------------------
Total correction                          0.17346361 Eh     108.85 kcal/mol


--------
ENTHALPY
--------

The enthalpy is H = U + kB*T
                kB is Boltzmann's constant
Total free energy                 ...   -305.96377886 Eh 
Thermal Enthalpy correction       ...      0.00094421 Eh       0.59 kcal/mol
-----------------------------------------------------------------------
Total Enthalpy                    ...   -305.96283465 Eh


Note: Rotational entropy computed according to Herzberg 
Infrared and Raman Spectra, Chapter V,1, Van Nostrand Reinhold, 1945 
Point Group:  C2, Symmetry Number:   2  
Rotational constants in cm-1:     0.191099     0.066455     0.051246 

Vibrational entropy computed according to the QRRHO of S. Grimme
Chem.Eur.J. 2012 18 9955


-------
ENTROPY
-------

The entropy contributions are T*S = T*(S(el)+S(vib)+S(rot)+S(trans))
     S(el)   - electronic entropy
     S(vib)  - vibrational entropy
     S(rot)  - rotational entropy
     S(trans)- translational entropy
The entropies will be listed as multiplied by the temperature to get
units of energy

Electronic entropy                ...      0.00000000 Eh      0.00 kcal/mol
Vibrational entropy               ...      0.00931118 Eh      5.84 kcal/mol
Rotational entropy                ...      0.01232023 Eh      7.73 kcal/mol
Translational entropy             ...      0.01885925 Eh     11.83 kcal/mol
-----------------------------------------------------------------------
Final entropy term                ...      0.04049066 Eh     25.41 kcal/mol

In case the symmetry of your molecule has not been determined correctly
or in case you have a reason to use a different symmetry number we print 
out the resulting rotational entropy values for sn=1,12 :
 --------------------------------------------------------
|  sn= 1 | S(rot)=       0.01297469 Eh      8.14 kcal/mol|
|  sn= 2 | S(rot)=       0.01232023 Eh      7.73 kcal/mol|
|  sn= 3 | S(rot)=       0.01193740 Eh      7.49 kcal/mol|
|  sn= 4 | S(rot)=       0.01166577 Eh      7.32 kcal/mol|
|  sn= 5 | S(rot)=       0.01145508 Eh      7.19 kcal/mol|
|  sn= 6 | S(rot)=       0.01128294 Eh      7.08 kcal/mol|
|  sn= 7 | S(rot)=       0.01113739 Eh      6.99 kcal/mol|
|  sn= 8 | S(rot)=       0.01101132 Eh      6.91 kcal/mol|
|  sn= 9 | S(rot)=       0.01090011 Eh      6.84 kcal/mol|
|  sn=10 | S(rot)=       0.01080063 Eh      6.78 kcal/mol|
|  sn=11 | S(rot)=       0.01071064 Eh      6.72 kcal/mol|
|  sn=12 | S(rot)=       0.01062848 Eh      6.67 kcal/mol|
 --------------------------------------------------------


-------------------
GIBBS FREE ENERGY
-------------------

The Gibbs free energy is G = H - T*S

Total enthalpy                    ...   -305.96283465 Eh 
Total entropy correction          ...     -0.04049066 Eh    -25.41 kcal/mol
-----------------------------------------------------------------------
Final Gibbs free energy         ...   -306.00332531 Eh

For completeness - the Gibbs free energy minus the electronic energy
G-E(el)                           ...      0.13391716 Eh     84.03 kcal/mol


Timings for individual modules:

Sum of individual times         ...      594.200 sec (=   9.903 min)
GTO integral calculation        ...        0.233 sec (=   0.004 min)   0.0 %
SCF iterations                  ...      123.270 sec (=   2.055 min)  20.7 %
Analytical frequency calculation...      470.698 sec (=   7.845 min)  79.2 %
                             ****ORCA TERMINATED NORMALLY****
TOTAL RUN TIME: 0 days 0 hours 9 minutes 54 seconds 467 msec
