
                                 *****************
                                 * O   R   C   A *
                                 *****************

                                            #,                                       
                                            ###                                      
                                            ####                                     
                                            #####                                    
                                            ######                                   
                                           ########,                                 
                                     ,,################,,,,,                         
                               ,,#################################,,                 
                          ,,##########################################,,             
                       ,#########################################, ''#####,          
                    ,#############################################,,   '####,        
                  ,##################################################,,,,####,       
                ,###########''''           ''''###############################       
              ,#####''   ,,,,##########,,,,          '''####'''          '####       
            ,##' ,,,,###########################,,,                        '##       
           ' ,,###''''                  '''############,,,                           
         ,,##''                                '''############,,,,        ,,,,,,###''
      ,#''                                            '''#######################'''  
     '                                                          ''''####''''         
             ,#######,   #######,   ,#######,      ##                                
            ,#'     '#,  ##    ##  ,#'     '#,    #''#        ######   ,####,        
            ##       ##  ##   ,#'  ##            #'  '#       #        #'  '#        
            ##       ##  #######   ##           ,######,      #####,   #    #        
            '#,     ,#'  ##    ##  '#,     ,#' ,#      #,         ##   #,  ,#        
             '#######'   ##     ##  '#######'  #'      '#     #####' # '####'        



                  #######################################################
                  #                        -***-                        #
                  #          Department of theory and spectroscopy      #
                  #    Directorship and core code : Frank Neese         #
                  #        Max Planck Institute fuer Kohlenforschung    #
                  #                Kaiser Wilhelm Platz 1               #
                  #                 D-45470 Muelheim/Ruhr               #
                  #                      Germany                        #
                  #                                                     #
                  #                  All rights reserved                #
                  #                        -***-                        #
                  #######################################################


                         Program Version 5.0.4 -  RELEASE  -


 With contributions from (in alphabetic order):
   Daniel Aravena         : Magnetic Suceptibility
   Michael Atanasov       : Ab Initio Ligand Field Theory (pilot matlab implementation)
   Alexander A. Auer      : GIAO ZORA, VPT2 properties, NMR spectrum
   Ute Becker             : Parallelization
   Giovanni Bistoni       : ED, misc. LED, open-shell LED, HFLD
   Martin Brehm           : Molecular dynamics
   Dmytro Bykov           : SCF Hessian
   Vijay G. Chilkuri      : MRCI spin determinant printing, contributions to CSF-ICE
   Dipayan Datta          : RHF DLPNO-CCSD density
   Achintya Kumar Dutta   : EOM-CC, STEOM-CC
   Dmitry Ganyushin       : Spin-Orbit,Spin-Spin,Magnetic field MRCI
   Miquel Garcia          : C-PCM and meta-GGA Hessian, CC/C-PCM, Gaussian charge scheme
   Yang Guo               : DLPNO-NEVPT2, F12-NEVPT2, CIM, IAO-localization
   Andreas Hansen         : Spin unrestricted coupled pair/coupled cluster methods
   Benjamin Helmich-Paris : MC-RPA, TRAH-SCF, COSX integrals
   Lee Huntington         : MR-EOM, pCC
   Robert Izsak           : Overlap fitted RIJCOSX, COSX-SCS-MP3, EOM
   Marcus Kettner         : VPT2
   Christian Kollmar      : KDIIS, OOCD, Brueckner-CCSD(T), CCSD density, CASPT2, CASPT2-K
   Simone Kossmann        : Meta GGA functionals, TD-DFT gradient, OOMP2, MP2 Hessian
   Martin Krupicka        : Initial AUTO-CI
   Lucas Lang             : DCDCAS
   Marvin Lechner         : AUTO-CI (C++ implementation), FIC-MRCC
   Dagmar Lenk            : GEPOL surface, SMD
   Dimitrios Liakos       : Extrapolation schemes; Compound Job, initial MDCI parallelization
   Dimitrios Manganas     : Further ROCIS development; embedding schemes
   Dimitrios Pantazis     : SARC Basis sets
   Anastasios Papadopoulos: AUTO-CI, single reference methods and gradients
   Taras Petrenko         : DFT Hessian,TD-DFT gradient, ASA, ECA, R-Raman, ABS, FL, XAS/XES, NRVS
   Peter Pinski           : DLPNO-MP2, DLPNO-MP2 Gradient
   Christoph Reimann      : Effective Core Potentials
   Marius Retegan         : Local ZFS, SOC
   Christoph Riplinger    : Optimizer, TS searches, QM/MM, DLPNO-CCSD(T), (RO)-DLPNO pert. Triples
   Tobias Risthaus        : Range-separated hybrids, TD-DFT gradient, RPA, STAB
   Michael Roemelt        : Original ROCIS implementation
   Masaaki Saitow         : Open-shell DLPNO-CCSD energy and density
   Barbara Sandhoefer     : DKH picture change effects
   Avijit Sen             : IP-ROCIS
   Kantharuban Sivalingam : CASSCF convergence, NEVPT2, FIC-MRCI
   Bernardo de Souza      : ESD, SOC TD-DFT
   Georgi Stoychev        : AutoAux, RI-MP2 NMR, DLPNO-MP2 response
   Willem Van den Heuvel  : Paramagnetic NMR
   Boris Wezisla          : Elementary symmetry handling
   Frank Wennmohs         : Technical directorship


 We gratefully acknowledge several colleagues who have allowed us to
 interface, adapt or use parts of their codes:
   Stefan Grimme, W. Hujo, H. Kruse, P. Pracht,  : VdW corrections, initial TS optimization,
                  C. Bannwarth, S. Ehlert          DFT functionals, gCP, sTDA/sTD-DF
   Ed Valeev, F. Pavosevic, A. Kumar             : LibInt (2-el integral package), F12 methods
   Garnet Chan, S. Sharma, J. Yang, R. Olivares  : DMRG
   Ulf Ekstrom                                   : XCFun DFT Library
   Mihaly Kallay                                 : mrcc  (arbitrary order and MRCC methods)
   Jiri Pittner, Ondrej Demel                    : Mk-CCSD
   Frank Weinhold                                : gennbo (NPA and NBO analysis)
   Christopher J. Cramer and Donald G. Truhlar   : smd solvation model
   Lars Goerigk                                  : TD-DFT with DH, B97 family of functionals
   V. Asgeirsson, H. Jonsson                     : NEB implementation
   FAccTs GmbH                                   : IRC, NEB, NEB-TS, DLPNO-Multilevel, CI-OPT
                                                   MM, QMMM, 2- and 3-layer-ONIOM, Crystal-QMMM,
                                                   LR-CPCM, SF, NACMEs, symmetry and pop. for TD-DFT,
                                                   nearIR, NL-DFT gradient (VV10), updates on ESD,
                                                   ML-optimized integration grids
   S Lehtola, MJT Oliveira, MAL Marques          : LibXC Library
   Liviu Ungur et al                             : ANISO software


 Your calculation uses the libint2 library for the computation of 2-el integrals
 For citations please refer to: http://libint.valeyev.net

 Your ORCA version has been built with support for libXC version: 5.1.0
 For citations please refer to: https://tddft.org/programs/libxc/

 This ORCA versions uses:
   CBLAS   interface :  Fast vector & matrix operations
   LAPACKE interface :  Fast linear algebra routines
   SCALAPACK package :  Parallel linear algebra routines
   Shared memory     :  Shared parallel matrices
   BLAS/LAPACK       :  OpenBLAS 0.3.15  USE64BITINT DYNAMIC_ARCH NO_AFFINITY SkylakeX SINGLE_THREADED
        Core in use  :  SkylakeX
   Copyright (c) 2011-2014, The OpenBLAS Project




***************************************
The coordinates will be read from file: 10+.xyz
***************************************


Your calculation utilizes the atom-pairwise dispersion correction
based on tight binding partial charges (D4)
Cite in your paper:
E.Caldeweyher, C.Bannwarth, S.Grimme, J.Chem.Phys., (2017), 147, 034112.
E.Caldeweyher, S.Ehlert, A.Hansen, H.Neugebauer, S.Grimme, J.Chem.Phys., (2018), in progress.
   

XCFun DFT library Copyright 2009-2010 Ulf Ekstrom and contributors.
See http://admol.org/xcfun for more information.
This is free software; see the source code for copying conditions.
There is ABSOLUTELY NO WARRANTY; not even for MERCHANTABILITY or FITNESS FOR A PARTICULAR PURPOSE.
For details see the documentation.
Scientific users of this library should cite U. Ekstrom, L. Visscher, R. Bast, A. J. Thorvaldsen and K. Ruud;
J.Chem.Theor.Comp. 2010, DOI: 10.1021/ct100117s
XCFun Version 0.99 

================================================================================

----- Orbital basis set information -----
Your calculation utilizes the basis: def2-SVP
   F. Weigend and R. Ahlrichs, Phys. Chem. Chem. Phys. 7, 3297 (2005).

----- AuxJ basis set information -----
Your calculation utilizes the auxiliary basis: def2/J
   F. Weigend, Phys. Chem. Chem. Phys. 8, 1057 (2006).

================================================================================
                                        WARNINGS
                       Please study these warnings very carefully!
================================================================================


WARNING: Geometry Optimization
  ===> : Switching off AutoStart
         For restart on a previous wavefunction, please use MOREAD

INFO   : the flag for use of the SHARK integral package has been found!

================================================================================
                                       INPUT FILE
================================================================================
NAME = 10+_Gas.inp
|  1> # ORCAForces - ../2023_04/pKa_prediction/extra_carbenes/Gas/10+_Gas.inp
|  2> # Basic Mode
|  3> #
|  4> ! Opt FREQ wB97X D4 Def2-SVP SlowConv TightSCF DEFGRID2 Def2/J RIJCOSX 
|  5> 
|  6> %maxcore 4500
|  7> 
|  8> %PAL NPROCS 4 END
|  9> 
| 10> %geom 
| 11> Maxiter 150
| 12> END
| 13> 
| 14> * xyzfile 1 1 10+.xyz
| 15> 
| 16>                          ****END OF INPUT****
================================================================================

                       *****************************
                       * Geometry Optimization Run *
                       *****************************

Geometry optimization settings:
Update method            Update   .... BFGS
Choice of coordinates    CoordSys .... Z-matrix Internals
Initial Hessian          InHess   .... Almoef's Model

Convergence Tolerances:
Energy Change            TolE     ....  5.0000e-06 Eh
Max. Gradient            TolMAXG  ....  3.0000e-04 Eh/bohr
RMS Gradient             TolRMSG  ....  1.0000e-04 Eh/bohr
Max. Displacement        TolMAXD  ....  4.0000e-03 bohr
RMS Displacement         TolRMSD  ....  2.0000e-03 bohr
Strict Convergence                ....  False
------------------------------------------------------------------------------
                        ORCA OPTIMIZATION COORDINATE SETUP
------------------------------------------------------------------------------

The optimization will be done in new redundant internal coordinates
Making redundant internal coordinates   ...  (new redundants) done
Evaluating the initial hessian          ...  (Almloef) done
Evaluating the coordinates              ...  done
Calculating the B-matrix                .... done
Calculating the G-matrix                .... done
Diagonalizing the G-matrix              .... done
The first mode is                       ....   53
The number of degrees of freedom        ....   57

    -----------------------------------------------------------------
                    Redundant Internal Coordinates


    -----------------------------------------------------------------
         Definition                    Initial Value    Approx d2E/dq
    -----------------------------------------------------------------
      1. B(C   3,C   0)                  1.5262         0.378790   
      2. B(C   3,C   2)                  1.5262         0.378790   
      3. B(H   4,C   0)                  1.0947         0.353905   
      4. B(H   5,C   1)                  1.0840         0.368112   
      5. B(H   6,C   2)                  1.0909         0.358967   
      6. B(H   7,C   3)                  1.0931         0.356054   
      7. B(N   8,C   0)                  1.4762         0.407782   
      8. B(N   8,C   1)                  1.3179         0.729392   
      9. B(N   9,C   2)                  1.4762         0.407782   
     10. B(N   9,C   1)                  1.3179         0.729392   
     11. B(H  10,C   2)                  1.0947         0.353905   
     12. B(H  11,C   3)                  1.0907         0.359138   
     13. B(H  12,C   0)                  1.0909         0.358967   
     14. B(C  13,N   8)                  1.4680         0.420118   
     15. B(H  14,C  13)                  1.0890         0.361455   
     16. B(H  15,C  13)                  1.0917         0.357924   
     17. B(H  16,C  13)                  1.0919         0.357595   
     18. B(C  17,N   9)                  1.4680         0.420118   
     19. B(H  18,C  17)                  1.0917         0.357924   
     20. B(H  19,C  17)                  1.0890         0.361455   
     21. B(H  20,C  17)                  1.0919         0.357595   
     22. A(C   3,C   0,H  12)          110.8673         0.324890   
     23. A(C   3,C   0,N   8)          110.1416         0.367416   
     24. A(H   4,C   0,N   8)          108.5475         0.326124   
     25. A(H   4,C   0,H  12)          107.7959         0.289905   
     26. A(C   3,C   0,H   4)          111.7611         0.324133   
     27. A(N   8,C   0,H  12)          107.5901         0.326887   
     28. A(H   5,C   1,N   8)          117.4089         0.361899   
     29. A(N   8,C   1,N   9)          125.1818         0.454317   
     30. A(H   5,C   1,N   9)          117.4089         0.361899   
     31. A(C   3,C   2,H  10)          111.7611         0.324133   
     32. A(C   3,C   2,H   6)          110.8673         0.324890   
     33. A(H   6,C   2,N   9)          107.5901         0.326887   
     34. A(C   3,C   2,N   9)          110.1416         0.367416   
     35. A(H   6,C   2,H  10)          107.7959         0.289905   
     36. A(N   9,C   2,H  10)          108.5475         0.326124   
     37. A(H   7,C   3,H  11)          107.4275         0.290202   
     38. A(C   2,C   3,H   7)          109.6661         0.324455   
     39. A(C   2,C   3,H  11)          109.6074         0.324915   
     40. A(C   0,C   3,C   2)          110.8013         0.365079   
     41. A(C   0,C   3,H   7)          109.6661         0.324455   
     42. A(C   0,C   3,H  11)          109.6074         0.324915   
     43. A(C   1,N   8,C  13)          121.3835         0.411435   
     44. A(C   0,N   8,C  13)          117.8342         0.371673   
     45. A(C   0,N   8,C   1)          120.7633         0.409267   
     46. A(C   1,N   9,C   2)          120.7633         0.409267   
     47. A(C   2,N   9,C  17)          117.8342         0.371673   
     48. A(C   1,N   9,C  17)          121.3835         0.411435   
     49. A(H  15,C  13,H  16)          109.2251         0.290244   
     50. A(H  14,C  13,H  16)          108.9524         0.290692   
     51. A(N   8,C  13,H  16)          109.6408         0.328290   
     52. A(H  14,C  13,H  15)          109.1804         0.290734   
     53. A(N   8,C  13,H  15)          109.8457         0.328339   
     54. A(N   8,C  13,H  14)          109.9758         0.328872   
     55. A(H  18,C  17,H  20)          109.2251         0.290244   
     56. A(N   9,C  17,H  20)          109.6408         0.328290   
     57. A(H  18,C  17,H  19)          109.1804         0.290734   
     58. A(N   9,C  17,H  19)          109.9758         0.328872   
     59. A(H  19,C  17,H  20)          108.9524         0.290692   
     60. A(N   9,C  17,H  18)          109.8457         0.328339   
     61. D(H   7,C   3,C   0,H  12)     47.8645         0.011439   
     62. D(C   2,C   3,C   0,H   4)    -70.6443         0.011439   
     63. D(H  11,C   3,C   0,N   8)    171.1914         0.011439   
     64. D(H   7,C   3,C   0,N   8)    -71.1023         0.011439   
     65. D(C   0,C   3,C   2,N   9)    -50.1007         0.011439   
     66. D(C   0,C   3,C   2,H   6)   -169.0675         0.011439   
     67. D(H  11,C   3,C   2,N   9)   -171.1914         0.011439   
     68. D(C   2,C   3,C   0,H  12)    169.0675         0.011439   
     69. D(H   7,C   3,C   2,N   9)     71.1023         0.011439   
     70. D(H   7,C   3,C   2,H   6)    -47.8645         0.011439   
     71. D(H   7,C   3,C   2,H  10)   -168.1528         0.011439   
     72. D(H  11,C   3,C   0,H   4)     50.4465         0.011439   
     73. D(C   2,C   3,C   0,N   8)     50.1007         0.011439   
     74. D(H  11,C   3,C   2,H   6)     69.8418         0.011439   
     75. D(C   0,C   3,C   2,H  10)     70.6443         0.011439   
     76. D(H  11,C   3,C   0,H  12)    -69.8418         0.011439   
     77. D(H   7,C   3,C   0,H   4)    168.1528         0.011439   
     78. D(H  11,C   3,C   2,H  10)    -50.4465         0.011439   
     79. D(C  13,N   8,C   1,N   9)    178.0440         0.044403   
     80. D(C   0,N   8,C   1,N   9)     -0.3375         0.044403   
     81. D(C   0,N   8,C   1,H   5)    179.8998         0.044403   
     82. D(C  13,N   8,C   0,H  12)     34.8950         0.014188   
     83. D(C  13,N   8,C   0,H   4)    -81.4997         0.014188   
     84. D(C  13,N   8,C   0,C   3)    155.8453         0.014188   
     85. D(C   1,N   8,C   0,H  12)   -146.6675         0.014188   
     86. D(C  13,N   8,C   1,H   5)     -1.7186         0.044403   
     87. D(C   1,N   8,C   0,H   4)     96.9378         0.014188   
     88. D(C   1,N   8,C   0,C   3)    -25.7172         0.014188   
     89. D(C  17,N   9,C   1,H   5)      1.7186         0.044403   
     90. D(C   2,N   9,C   1,N   8)      0.3375         0.044403   
     91. D(C   2,N   9,C   1,H   5)   -179.8998         0.044403   
     92. D(C  17,N   9,C   2,H  10)     81.4997         0.014188   
     93. D(C  17,N   9,C   2,H   6)    -34.8950         0.014188   
     94. D(C  17,N   9,C   2,C   3)   -155.8453         0.014188   
     95. D(C   1,N   9,C   2,H  10)    -96.9378         0.014188   
     96. D(C   1,N   9,C   2,H   6)    146.6675         0.014188   
     97. D(C   1,N   9,C   2,C   3)     25.7172         0.014188   
     98. D(C  17,N   9,C   1,N   8)   -178.0440         0.044403   
     99. D(H  16,C  13,N   8,C   1)   -120.9967         0.015050   
    100. D(H  16,C  13,N   8,C   0)     57.4306         0.015050   
    101. D(H  15,C  13,N   8,C   1)    118.9698         0.015050   
    102. D(H  15,C  13,N   8,C   0)    -62.6029         0.015050   
    103. D(H  14,C  13,N   8,C   1)     -1.2183         0.015050   
    104. D(H  14,C  13,N   8,C   0)    177.2090         0.015050   
    105. D(H  20,C  17,N   9,C   2)    -57.4306         0.015050   
    106. D(H  20,C  17,N   9,C   1)    120.9967         0.015050   
    107. D(H  19,C  17,N   9,C   2)   -177.2090         0.015050   
    108. D(H  19,C  17,N   9,C   1)      1.2183         0.015050   
    109. D(H  18,C  17,N   9,C   2)     62.6029         0.015050   
    110. D(H  18,C  17,N   9,C   1)   -118.9698         0.015050   
    -----------------------------------------------------------------

Number of atoms                         .... 21
Number of degrees of freedom            .... 110

         *************************************************************
         *                GEOMETRY OPTIMIZATION CYCLE   1            *
         *************************************************************
---------------------------------
CARTESIAN COORDINATES (ANGSTROEM)
---------------------------------
  C     -0.067710    1.122154    1.256302
  C     -0.064634   -0.958127    0.000000
  C     -0.067710    1.122154   -1.256302
  C      0.557567    1.722238    0.000000
  H     -1.098311    1.462607    1.399035
  H     -0.063124   -2.042136    0.000000
  H      0.501324    1.400324   -2.144442
  H      1.634591    1.535601    0.000000
  N     -0.067710   -0.351467    1.169925
  N     -0.067710   -0.351467   -1.169925
  H     -1.098311    1.462607   -1.399035
  H      0.413379    2.803394    0.000000
  H      0.501324    1.400324    2.144442
  C     -0.106632   -1.111670    2.425198
  H     -0.151998   -2.178738    2.212643
  H      0.788166   -0.900972    3.013962
  H     -0.990373   -0.826615    2.999647
  C     -0.106632   -1.111670   -2.425198
  H      0.788166   -0.900972   -3.013962
  H     -0.151998   -2.178738   -2.212643
  H     -0.990373   -0.826615   -2.999647

----------------------------
CARTESIAN COORDINATES (A.U.)
----------------------------
  NO LB      ZA    FRAG     MASS         X           Y           Z
   0 C     6.0000    0    12.011   -0.127953    2.120564    2.374067
   1 C     6.0000    0    12.011   -0.122141   -1.810598    0.000000
   2 C     6.0000    0    12.011   -0.127953    2.120564   -2.374067
   3 C     6.0000    0    12.011    1.053649    3.254558    0.000000
   4 H     1.0000    0     1.008   -2.075507    2.763927    2.643793
   5 H     1.0000    0     1.008   -0.119287   -3.859078    0.000000
   6 H     1.0000    0     1.008    0.947365    2.646229   -4.052408
   7 H     1.0000    0     1.008    3.088929    2.901865    0.000000
   8 N     7.0000    0    14.007   -0.127953   -0.664176    2.210838
   9 N     7.0000    0    14.007   -0.127953   -0.664176   -2.210838
  10 H     1.0000    0     1.008   -2.075507    2.763927   -2.643793
  11 H     1.0000    0     1.008    0.781173    5.297647    0.000000
  12 H     1.0000    0     1.008    0.947365    2.646229    4.052408
  13 C     6.0000    0    12.011   -0.201505   -2.100752    4.582960
  14 H     1.0000    0     1.008   -0.287235   -4.117218    4.181289
  15 H     1.0000    0     1.008    1.489418   -1.702590    5.695563
  16 H     1.0000    0     1.008   -1.871534   -1.562076    5.668511
  17 C     6.0000    0    12.011   -0.201505   -2.100752   -4.582960
  18 H     1.0000    0     1.008    1.489418   -1.702590   -5.695563
  19 H     1.0000    0     1.008   -0.287235   -4.117218   -4.181289
  20 H     1.0000    0     1.008   -1.871534   -1.562076   -5.668511

--------------------------------
INTERNAL COORDINATES (ANGSTROEM)
--------------------------------
 C      0   0   0     0.000000000000     0.00000000     0.00000000
 C      1   0   0     2.430200241943     0.00000000     0.00000000
 C      2   1   0     2.430200241943    62.25632000     0.00000000
 C      1   2   3     1.526226342647    84.86645917   335.67440515
 H      1   2   3     1.094723424294   109.56089830    86.96562228
 H      2   1   3     1.084010051697   148.87183965   180.00949497
 H      3   2   1     1.090857874178   129.68084575   137.29038168
 H      4   1   2     1.093075508071   109.66611307   277.18430694
 N      2   1   3     1.317865821319    31.46299894   180.18149920
 N      2   1   3     1.317865821319    93.71918587   359.90506707
 H      3   2   1     1.094723424294   109.56089830   273.03437772
 H      4   1   2     1.090728415180   109.60735366   159.47799111
 H      1   2   3     1.090857874178   129.68084575   222.70961832
 C      9   2   1     1.468037406820   121.38352889   178.38152357
 H     14   9   2     1.088977418776   109.97580954   358.78167398
 H     14   9   2     1.091650198417   109.84572762   118.96978395
 H     14   9   2     1.091900252636   109.64080800   239.00332264
 C     10   2   1     1.468037406820   121.38352889   181.77944926
 H     18  10   2     1.091650198417   109.84572762   241.03021605
 H     18  10   2     1.088977418776   109.97580954     1.21832602
 H     18  10   2     1.091900252636   109.64080800   120.99667736

---------------------------
INTERNAL COORDINATES (A.U.)
---------------------------
 C      0   0   0     0.000000000000     0.00000000     0.00000000
 C      1   0   0     4.592412907862     0.00000000     0.00000000
 C      2   1   0     4.592412907862    62.25632000     0.00000000
 C      1   2   3     2.884149805979    84.86645917   335.67440515
 H      1   2   3     2.068727464305   109.56089830    86.96562228
 H      2   1   3     2.048482124126   148.87183965   180.00949497
 H      3   2   1     2.061422633228   129.68084575   137.29038168
 H      4   1   2     2.065613353951   109.66611307   277.18430694
 N      2   1   3     2.490405483548    31.46299894   180.18149920
 N      2   1   3     2.490405483548    93.71918587   359.90506707
 H      3   2   1     2.068727464305   109.56089830   273.03437772
 H      4   1   2     2.061177991175   109.60735366   159.47799111
 H      1   2   3     2.061422633228   129.68084575   222.70961832
 C      9   2   1     2.774188653241   121.38352889   178.38152357
 H     14   9   2     2.057869087512   109.97580954   358.78167398
 H     14   9   2     2.062919909049   109.84572762   118.96978395
 H     14   9   2     2.063392443042   109.64080800   239.00332264
 C     10   2   1     2.774188653241   121.38352889   181.77944926
 H     18  10   2     2.062919909049   109.84572762   241.03021605
 H     18  10   2     2.057869087512   109.97580954     1.21832602
 H     18  10   2     2.063392443042   109.64080800   120.99667736

---------------------
BASIS SET INFORMATION
---------------------
There are 3 groups of distinct atoms

 Group   1 Type C   : 7s4p1d contracted to 3s2p1d pattern {511/31/1}
 Group   2 Type H   : 4s1p contracted to 2s1p pattern {31/1}
 Group   3 Type N   : 7s4p1d contracted to 3s2p1d pattern {511/31/1}

Atom   0C    basis set group =>   1
Atom   1C    basis set group =>   1
Atom   2C    basis set group =>   1
Atom   3C    basis set group =>   1
Atom   4H    basis set group =>   2
Atom   5H    basis set group =>   2
Atom   6H    basis set group =>   2
Atom   7H    basis set group =>   2
Atom   8N    basis set group =>   3
Atom   9N    basis set group =>   3
Atom  10H    basis set group =>   2
Atom  11H    basis set group =>   2
Atom  12H    basis set group =>   2
Atom  13C    basis set group =>   1
Atom  14H    basis set group =>   2
Atom  15H    basis set group =>   2
Atom  16H    basis set group =>   2
Atom  17C    basis set group =>   1
Atom  18H    basis set group =>   2
Atom  19H    basis set group =>   2
Atom  20H    basis set group =>   2
---------------------------------
AUXILIARY/J BASIS SET INFORMATION
---------------------------------
There are 3 groups of distinct atoms

 Group   1 Type C   : 12s5p4d2f1g contracted to 6s4p3d1f1g pattern {711111/2111/211/2/1}
 Group   2 Type H   : 5s2p1d contracted to 3s1p1d pattern {311/2/1}
 Group   3 Type N   : 12s5p4d2f1g contracted to 6s4p3d1f1g pattern {711111/2111/211/2/1}

Atom   0C    basis set group =>   1
Atom   1C    basis set group =>   1
Atom   2C    basis set group =>   1
Atom   3C    basis set group =>   1
Atom   4H    basis set group =>   2
Atom   5H    basis set group =>   2
Atom   6H    basis set group =>   2
Atom   7H    basis set group =>   2
Atom   8N    basis set group =>   3
Atom   9N    basis set group =>   3
Atom  10H    basis set group =>   2
Atom  11H    basis set group =>   2
Atom  12H    basis set group =>   2
Atom  13C    basis set group =>   1
Atom  14H    basis set group =>   2
Atom  15H    basis set group =>   2
Atom  16H    basis set group =>   2
Atom  17C    basis set group =>   1
Atom  18H    basis set group =>   2
Atom  19H    basis set group =>   2
Atom  20H    basis set group =>   2


           ************************************************************
           *        Program running with 4 parallel MPI-processes     *
           *              working on a common directory               *
           ************************************************************
------------------------------------------------------------------------------
                           ORCA GTO INTEGRAL CALCULATION
                           -- RI-GTO INTEGRALS CHOSEN --
------------------------------------------------------------------------------
------------------------------------------------------------------------------
                   ___                                                        
                  /   \      - P O W E R E D   B Y -                         
                 /     \                                                     
                 |  |  |   _    _      __       _____    __    __             
                 |  |  |  | |  | |    /  \     |  _  \  |  |  /  |          
                  \  \/   | |  | |   /    \    | | | |  |  | /  /          
                 / \  \   | |__| |  /  /\  \   | |_| |  |  |/  /          
                |  |  |   |  __  | /  /__\  \  |    /   |      \           
                |  |  |   | |  | | |   __   |  |    \   |  |\   \          
                \     /   | |  | | |  |  |  |  | |\  \  |  | \   \       
                 \___/    |_|  |_| |__|  |__|  |_| \__\ |__|  \__/        
                                                                              
                      - O R C A' S   B I G   F R I E N D -                    
                                      &                                       
                       - I N T E G R A L  F E E D E R -                       
                                                                              
 v1 FN, 2020, v2 2021                                                         
------------------------------------------------------------------------------


Reading SHARK input file 10+_Gas.SHARKINP.tmp ... ok
----------------------
SHARK INTEGRAL PACKAGE
----------------------

Number of atoms                             ...     21
Number of basis functions                   ...    177
Number of shells                            ...     87
Maximum angular momentum                    ...      2
Integral batch strategy                     ... SHARK/LIBINT Hybrid
RI-J (if used) integral strategy            ... SPLIT-RIJ (Revised 2003 algorithm where possible)
Printlevel                                  ...      1
Contraction scheme used                     ... SEGMENTED contraction
Coulomb Range Separation                    ... NOT USED
Exchange Range Separation                   ... Long Range
   Mu parameter                             ...  0.300000
   Scaling (regular/separated)              ...  0.157706  0.842294
Finite Nucleus Model                        ... NOT USED
Auxiliary Coulomb fitting basis             ... AVAILABLE
   # of basis functions in Aux-J            ...    535
   # of shells in Aux-J                     ...    185
   Maximum angular momentum in Aux-J        ...      4
Auxiliary J/K fitting basis                 ... NOT available
Auxiliary Correlation fitting basis         ... NOT available
Auxiliary 'external' fitting basis          ... NOT available
Integral threshold                          ...     2.500000e-11
Primitive cut-off                           ...     2.500000e-12
Primitive pair pre-selection threshold      ...     2.500000e-12

Calculating pre-screening integrals         ... done (  0.0 sec) Dimension = 87
Organizing shell pair data                  ... done (  0.2 sec)
Shell pair information
Total number of shell pairs                 ...      3828
Shell pairs after pre-screening             ...      3621
Total number of primitive shell pairs       ...     13184
Primitive shell pairs kept                  ...      9263
          la=0 lb=0:   1223 shell pairs
          la=1 lb=0:   1364 shell pairs
          la=1 lb=1:    398 shell pairs
          la=2 lb=0:    382 shell pairs
          la=2 lb=1:    218 shell pairs
          la=2 lb=2:     36 shell pairs

Calculating one electron integrals          ... done (  0.0 sec)
Calculating RI/J V-Matrix + Cholesky decomp.... done (  0.0 sec)
Calculating Nuclear repulsion               ... done (  0.0 sec) ENN=    407.534353447095 Eh

SHARK setup successfully completed in   0.7 seconds

Maximum memory used throughout the entire GTOINT-calculation: 12.2 MB


           ************************************************************
           *        Program running with 4 parallel MPI-processes     *
           *              working on a common directory               *
           ************************************************************
-------------------------------------------------------------------------------
                                 ORCA SCF
-------------------------------------------------------------------------------

------------
SCF SETTINGS
------------
Hamiltonian:
 Density Functional     Method          .... DFT(GTOs)
 Exchange Functional    Exchange        .... WB97X
 Correlation Functional Correlation     .... WB97X
 Gradients option       PostSCFGGA      .... off
 Hybrid DFT is turned on
   Fraction HF Exchange ScalHFX         ....  0.157706
   Scaling of DF-GGA-X  ScalDFX         ....  0.000000
   Scaling of DF-GGA-C  ScalDFC         ....  1.000000
   Scaling of DF-LDA-C  ScalLDAC        ....  1.000000
   Perturbative correction              ....  0.000000
   Density functional embedding theory  .... OFF
 Long-range corrected/Screened/Range-Separated Hybrid DFT is turned on
   Amount of maximum screened exact exchange              ....  0.842294
   Range separation parameter mu (erf(mu*r12)/r12)        ....  0.300000
 RI-approximation to the Coulomb term is turned on
   Number of AuxJ basis functions       .... 535
   RIJ-COSX (HFX calculated with COS-X)).... on


General Settings:
 Integral files         IntName         .... 10+_Gas
 Hartree-Fock type      HFTyp           .... RHF
 Total Charge           Charge          ....    1
 Multiplicity           Mult            ....    1
 Number of Electrons    NEL             ....   62
 Basis Dimension        Dim             ....  177
 Nuclear Repulsion      ENuc            ....    407.5343534471 Eh

Convergence Acceleration:
 DIIS                   CNVDIIS         .... on
   Start iteration      DIISMaxIt       ....     0
   Startup error        DIISStart       ....  0.200000
   # of expansion vecs  DIISMaxEq       ....     5
   Bias factor          DIISBfac        ....   1.050
   Max. coefficient     DIISMaxC        ....  10.000
 Trust-Rad. Augm. Hess. CNVTRAH         .... auto
   Auto Start mean grad. ratio tolernc. ....  1.125000
   Auto Start start iteration           ....    20
   Auto Start num. interpolation iter.  ....    10
   Max. Number of Micro iterations      ....    16
   Max. Number of Macro iterations      .... Maxiter - #DIIS iter
   Number of Davidson start vectors     ....     2
   Converg. threshold I  (grad. norm)   ....   1.000e-05
   Converg. threshold II (energy diff.) ....   1.000e-08
   Grad. Scal. Fac. for Micro threshold ....   0.100
   Minimum threshold for Micro iter.    ....   0.010
   NR start threshold (gradient norm)   ....   0.001
   Initial trust radius                 ....   0.400
   Minimum AH scaling param. (alpha)    ....   1.000
   Maximum AH scaling param. (alpha)    .... 1000.000
   Orbital update algorithm             .... Taylor
   White noise on init. David. guess    .... on
   Maximum white noise                  ....   0.010
   Quad. conv. algorithm                .... NR
 SOSCF                  CNVSOSCF        .... on
   Start iteration      SOSCFMaxIt      ....   150
   Startup grad/error   SOSCFStart      ....  0.001000
 Level Shifting         CNVShift        .... on
   Level shift para.    LevelShift      ....    0.2500
   Turn off err/grad.   ShiftErr        ....    0.0000
 Zerner damping         CNVZerner       .... off
 Static damping         CNVDamp         .... on
   Fraction old density DampFac         ....    0.8500
   Max. Damping (<1)    DampMax         ....    0.9800
   Min. Damping (>=0)   DampMin         ....    0.0000
   Turn off err/grad.   DampErr         ....    0.0300
 Fernandez-Rico         CNVRico         .... off

SCF Procedure:
 Maximum # iterations   MaxIter         ....   125
 SCF integral mode      SCFMode         .... Direct
   Integral package                     .... SHARK and LIBINT hybrid scheme
 Reset frequency        DirectResetFreq ....    20
 Integral Threshold     Thresh          ....  2.500e-11 Eh
 Primitive CutOff       TCut            ....  2.500e-12 Eh

Convergence Tolerance:
 Convergence Check Mode ConvCheckMode   .... Total+1el-Energy
 Convergence forced     ConvForced      .... 0
 Energy Change          TolE            ....  1.000e-08 Eh
 1-El. energy change                    ....  1.000e-05 Eh
 Orbital Gradient       TolG            ....  1.000e-05
 Orbital Rotation angle TolX            ....  1.000e-05
 DIIS Error             TolErr          ....  5.000e-07


Diagonalization of the overlap matrix:
Smallest eigenvalue                        ... 2.116e-03
Time for diagonalization                   ...    0.006 sec
Threshold for overlap eigenvalues          ... 1.000e-08
Number of eigenvalues below threshold      ... 0
Time for construction of square roots      ...    0.004 sec
Total time needed                          ...    0.010 sec

Time for model grid setup =    0.109 sec

------------------------------
INITIAL GUESS: MODEL POTENTIAL
------------------------------
Loading Hartree-Fock densities                     ... done
Calculating cut-offs                               ... done
Initializing the effective Hamiltonian             ... done
Setting up the integral package (SHARK)            ... done
Starting the Coulomb interaction                   ... done (   0.1 sec)
Reading the grid                                   ... done
Mapping shells                                     ... done
Starting the XC term evaluation                    ... done (   0.1 sec)
  promolecular density results
     # of electrons  =     62.997178481
     EX              =    -47.672824761
     EC              =     -2.088318020
     EX+EC           =    -49.761142781
Transforming the Hamiltonian                       ... done (   0.0 sec)
Diagonalizing the Hamiltonian                      ... done (   0.0 sec)
Back transforming the eigenvectors                 ... done (   0.0 sec)
Now organizing SCF variables                       ... done
                      ------------------
                      INITIAL GUESS DONE (   0.3 sec)
                      ------------------
-------------------
DFT GRID GENERATION
-------------------

General Integration Accuracy     IntAcc      ... 4.388
Radial Grid Type                 RadialGrid  ... OptM3 with GC (2021)
Angular Grid (max. ang.)         AngularGrid ... 4 (Lebedev-302)
Angular grid pruning method      GridPruning ... 4 (adaptive)
Weight generation scheme         WeightScheme... Becke
Basis function cutoff            BFCut       ... 1.0000e-11
Integration weight cutoff        WCut        ... 1.0000e-14
Angular grids for H and He will be reduced by one unit
Partially contracted basis set               ... off
Rotationally invariant grid construction     ... off

Total number of grid points                  ...    89526
Total number of batches                      ...     1408
Average number of points per batch           ...       63
Average number of grid points per atom       ...     4263
Time for grid setup =    0.539 sec

--------------------
COSX GRID GENERATION
--------------------

GRIDX 1
-------
General Integration Accuracy     IntAcc      ... 3.816
Radial Grid Type                 RadialGrid  ... OptM3 with GC (2021)
Angular Grid (max. ang.)         AngularGrid ... 1 (Lebedev-50)
Angular grid pruning method      GridPruning ... 4 (adaptive)
Weight generation scheme         WeightScheme... Becke
Basis function cutoff            BFCut       ... 1.0000e-11
Integration weight cutoff        WCut        ... 1.0000e-14
Angular grids for H and He will be reduced by one unit
Partially contracted basis set               ... on
Rotationally invariant grid construction     ... off

Total number of grid points                  ...    11511
Total number of batches                      ...      192
Average number of points per batch           ...       59
Average number of grid points per atom       ...      548
UseSFitting                                  ... on

GRIDX 2
-------
General Integration Accuracy     IntAcc      ... 4.020
Radial Grid Type                 RadialGrid  ... OptM3 with GC (2021)
Angular Grid (max. ang.)         AngularGrid ... 2 (Lebedev-110)
Angular grid pruning method      GridPruning ... 4 (adaptive)
Weight generation scheme         WeightScheme... Becke
Basis function cutoff            BFCut       ... 1.0000e-11
Integration weight cutoff        WCut        ... 1.0000e-14
Angular grids for H and He will be reduced by one unit
Partially contracted basis set               ... on
Rotationally invariant grid construction     ... off

Total number of grid points                  ...    24051
Total number of batches                      ...      386
Average number of points per batch           ...       62
Average number of grid points per atom       ...     1145
UseSFitting                                  ... on

GRIDX 3
-------
General Integration Accuracy     IntAcc      ... 4.338
Radial Grid Type                 RadialGrid  ... OptM3 with GC (2021)
Angular Grid (max. ang.)         AngularGrid ... 3 (Lebedev-194)
Angular grid pruning method      GridPruning ... 4 (adaptive)
Weight generation scheme         WeightScheme... Becke
Basis function cutoff            BFCut       ... 1.0000e-11
Integration weight cutoff        WCut        ... 1.0000e-14
Angular grids for H and He will be reduced by one unit
Partially contracted basis set               ... on
Rotationally invariant grid construction     ... off

Total number of grid points                  ...    52517
Total number of batches                      ...      831
Average number of points per batch           ...       63
Average number of grid points per atom       ...     2501
UseSFitting                                  ... on

Time for X-Grid setup             =    0.639 sec

--------------
SCF ITERATIONS
--------------
ITER       Energy         Delta-E        Max-DP      RMS-DP      [F,P]     Damp
               ***  Starting incremental Fock matrix formation  ***
  0   -345.3168697545   0.000000000000 0.02725994  0.00064552  0.1062941 0.8500
  1   -345.3386237590  -0.021754004500 0.02477243  0.00059989  0.0862922 0.8500
                               ***Turning on DIIS***
  2   -345.3552677978  -0.016644038810 0.01959953  0.00048832  0.0669465 0.8500
  3   -345.3677679236  -0.012500125805 0.01277508  0.00035238  0.0513537 0.8500
  4   -345.3775009217  -0.009732998135 0.00887987  0.00027311  0.0411217 0.8500
  5   -345.3852165665  -0.007715644794 0.00693309  0.00022571  0.0341166 0.8500
  6   -345.3915175940  -0.006301027479 0.03826008  0.00127293  0.0287735 0.0000
                      *** Initiating the SOSCF procedure ***
                           *** Shutting down DIIS ***
                      *** Re-Reading the Fockian *** 
                      *** Removing any level shift *** 
ITER      Energy       Delta-E        Grad      Rot      Max-DP    RMS-DP
  7   -345.42482348  -0.0333058859  0.000439  0.000439  0.001554  0.000043
               *** Restarting incremental Fock matrix formation ***
  8   -345.42486257  -0.0000390875  0.000408  0.000797  0.001038  0.000027
  9   -345.42486545  -0.0000028858  0.000182  0.000232  0.000458  0.000014
 10   -345.42486622  -0.0000007692  0.000044  0.000046  0.000086  0.000003
 11   -345.42486627  -0.0000000437  0.000010  0.000015  0.000046  0.000001
 12   -345.42486628  -0.0000000109  0.000003  0.000006  0.000013  0.000000
                  ***Gradient check signals convergence***
              ***Rediagonalizing the Fockian in SOSCF/NRSCF***

               *****************************************************
               *                     SUCCESS                       *
               *           SCF CONVERGED AFTER  13 CYCLES          *
               *****************************************************

Old exchange energy                            =    -15.848571512 Eh
New exchange energy                            =    -15.848516220 Eh
Exchange energy change after final integration =      0.000055292 Eh
Total energy after final integration           =   -345.424810982 Eh
Final COS-X integration done in                =     7.606 sec

----------------
TOTAL SCF ENERGY
----------------

Total Energy       :         -345.42481098 Eh           -9399.48697 eV

Components:
Nuclear Repulsion  :          407.53435345 Eh           11089.57354 eV
Electronic Energy  :         -752.95916443 Eh          -20489.06051 eV
One Electron Energy:        -1260.88715591 Eh          -34310.48382 eV
Two Electron Energy:          507.92799148 Eh           13821.42332 eV
Max COSX asymmetry :            0.00000203 Eh               0.00006 eV

Virial components:
Potential Energy   :         -686.71579044 Eh          -18686.48666 eV
Kinetic Energy     :          341.29097946 Eh            9286.99969 eV
Virial Ratio       :            2.01211234


DFT components:
N(Alpha)           :       31.000022668160 electrons
N(Beta)            :       31.000022668160 electrons
N(Total)           :       62.000045336319 electrons
E(XC)              :      -35.037125512336 Eh       
DFET-embed. en.    :        0.000000000000 Eh       

---------------
SCF CONVERGENCE
---------------

  Last Energy change         ...    2.9598e-09  Tolerance :   1.0000e-08
  Last MAX-Density change    ...    6.2172e-15  Tolerance :   1.0000e-07
  Last RMS-Density change    ...    5.6136e-17  Tolerance :   5.0000e-09
  Last Orbital Gradient      ...    9.5341e-07  Tolerance :   1.0000e-05
  Last Orbital Rotation      ...    2.3813e-06  Tolerance :   1.0000e-05

             **** THE GBW FILE WAS UPDATED (10+_Gas.gbw) ****
             **** DENSITY 10+_Gas.scfp WAS UPDATED ****
             **** ENERGY FILE WAS UPDATED (10+_Gas.en.tmp) ****
             **** THE GBW FILE WAS UPDATED (10+_Gas.gbw) ****
             **** DENSITY 10+_Gas.scfp WAS UPDATED ****
----------------
ORBITAL ENERGIES
----------------

  NO   OCC          E(Eh)            E(eV) 
   0   2.0000     -14.637895      -398.3174 
   1   2.0000     -14.637893      -398.3173 
   2   2.0000     -10.555528      -287.2305 
   3   2.0000     -10.476872      -285.0902 
   4   2.0000     -10.476859      -285.0898 
   5   2.0000     -10.468664      -284.8668 
   6   2.0000     -10.468651      -284.8665 
   7   2.0000     -10.438654      -284.0502 
   8   2.0000      -1.314862       -35.7792 
   9   2.0000      -1.236857       -33.6566 
  10   2.0000      -1.097416       -29.8622 
  11   2.0000      -1.039840       -28.2955 
  12   2.0000      -1.008035       -27.4300 
  13   2.0000      -0.959155       -26.0999 
  14   2.0000      -0.944242       -25.6941 
  15   2.0000      -0.838010       -22.8034 
  16   2.0000      -0.810931       -22.0665 
  17   2.0000      -0.802769       -21.8444 
  18   2.0000      -0.777252       -21.1501 
  19   2.0000      -0.744434       -20.2571 
  20   2.0000      -0.728418       -19.8213 
  21   2.0000      -0.720406       -19.6033 
  22   2.0000      -0.716596       -19.4996 
  23   2.0000      -0.684188       -18.6177 
  24   2.0000      -0.678705       -18.4685 
  25   2.0000      -0.669213       -18.2102 
  26   2.0000      -0.647023       -17.6064 
  27   2.0000      -0.628310       -17.0972 
  28   2.0000      -0.620900       -16.8955 
  29   2.0000      -0.605083       -16.4651 
  30   2.0000      -0.512071       -13.9342 
  31   0.0000      -0.093373        -2.5408 
  32   0.0000      -0.017738        -0.4827 
  33   0.0000       0.010278         0.2797 
  34   0.0000       0.015732         0.4281 
  35   0.0000       0.040178         1.0933 
  36   0.0000       0.045987         1.2514 
  37   0.0000       0.056317         1.5325 
  38   0.0000       0.064320         1.7502 
  39   0.0000       0.067485         1.8364 
  40   0.0000       0.076758         2.0887 
  41   0.0000       0.093552         2.5457 
  42   0.0000       0.095718         2.6046 
  43   0.0000       0.095931         2.6104 
  44   0.0000       0.103876         2.8266 
  45   0.0000       0.106631         2.9016 
  46   0.0000       0.110033         2.9941 
  47   0.0000       0.156607         4.2615 
  48   0.0000       0.158181         4.3043 
  49   0.0000       0.168588         4.5875 
  50   0.0000       0.179554         4.8859 
  51   0.0000       0.214524         5.8375 
  52   0.0000       0.255960         6.9650 
  53   0.0000       0.310200         8.4410 
  54   0.0000       0.330931         9.0051 
  55   0.0000       0.354378         9.6431 
  56   0.0000       0.356967         9.7136 
  57   0.0000       0.378454        10.2982 
  58   0.0000       0.390662        10.6305 
  59   0.0000       0.409751        11.1499 
  60   0.0000       0.423260        11.5175 
  61   0.0000       0.462711        12.5910 
  62   0.0000       0.479286        13.0420 
  63   0.0000       0.495905        13.4943 
  64   0.0000       0.536738        14.6054 
  65   0.0000       0.539623        14.6839 
  66   0.0000       0.549929        14.9643 
  67   0.0000       0.554582        15.0909 
  68   0.0000       0.581630        15.8270 
  69   0.0000       0.581795        15.8315 
  70   0.0000       0.590696        16.0736 
  71   0.0000       0.593774        16.1574 
  72   0.0000       0.617630        16.8066 
  73   0.0000       0.620190        16.8762 
  74   0.0000       0.626856        17.0576 
  75   0.0000       0.631526        17.1847 
  76   0.0000       0.634978        17.2786 
  77   0.0000       0.636495        17.3199 
  78   0.0000       0.636841        17.3293 
  79   0.0000       0.641548        17.4574 
  80   0.0000       0.648289        17.6408 
  81   0.0000       0.650153        17.6916 
  82   0.0000       0.655337        17.8326 
  83   0.0000       0.668726        18.1970 
  84   0.0000       0.701372        19.0853 
  85   0.0000       0.750643        20.4260 
  86   0.0000       0.796664        21.6783 
  87   0.0000       0.816224        22.2106 
  88   0.0000       0.869705        23.6659 
  89   0.0000       0.890906        24.2428 
  90   0.0000       0.913006        24.8442 
  91   0.0000       0.946360        25.7518 
  92   0.0000       1.016667        27.6649 
  93   0.0000       1.054933        28.7062 
  94   0.0000       1.100281        29.9402 
  95   0.0000       1.126560        30.6553 
  96   0.0000       1.138717        30.9861 
  97   0.0000       1.149401        31.2768 
  98   0.0000       1.190116        32.3847 
  99   0.0000       1.226818        33.3834 
 100   0.0000       1.236204        33.6388 
 101   0.0000       1.243186        33.8288 
 102   0.0000       1.321359        35.9560 
 103   0.0000       1.351391        36.7732 
 104   0.0000       1.412675        38.4408 
 105   0.0000       1.437574        39.1184 
 106   0.0000       1.476607        40.1805 
 107   0.0000       1.482663        40.3453 
 108   0.0000       1.502089        40.8739 
 109   0.0000       1.506337        40.9895 
 110   0.0000       1.586898        43.1817 
 111   0.0000       1.588151        43.2158 
 112   0.0000       1.649323        44.8803 
 113   0.0000       1.671794        45.4918 
 114   0.0000       1.689023        45.9606 
 115   0.0000       1.703225        46.3471 
 116   0.0000       1.704413        46.3794 
 117   0.0000       1.733141        47.1612 
 118   0.0000       1.734556        47.1997 
 119   0.0000       1.739614        47.3373 
 120   0.0000       1.750188        47.6250 
 121   0.0000       1.757513        47.8244 
 122   0.0000       1.761920        47.9443 
 123   0.0000       1.775048        48.3015 
 124   0.0000       1.777078        48.3568 
 125   0.0000       1.797301        48.9070 
 126   0.0000       1.820480        49.5378 
 127   0.0000       1.825394        49.6715 
 128   0.0000       1.833285        49.8862 
 129   0.0000       1.840648        50.0866 
 130   0.0000       1.859806        50.6079 
 131   0.0000       1.892895        51.5083 
 132   0.0000       1.925453        52.3942 
 133   0.0000       1.929815        52.5129 
 134   0.0000       1.964221        53.4492 
 135   0.0000       1.997201        54.3466 
 136   0.0000       2.006877        54.6099 
 137   0.0000       2.008316        54.6491 
 138   0.0000       2.056913        55.9714 
 139   0.0000       2.093500        56.9670 
 140   0.0000       2.121860        57.7387 
 141   0.0000       2.135332        58.1053 
 142   0.0000       2.189789        59.5872 
 143   0.0000       2.215420        60.2846 
 144   0.0000       2.251378        61.2631 
 145   0.0000       2.265744        61.6540 
 146   0.0000       2.277805        61.9822 
 147   0.0000       2.347503        63.8788 
 148   0.0000       2.359583        64.2075 
 149   0.0000       2.368056        64.4381 
 150   0.0000       2.393700        65.1359 
 151   0.0000       2.441616        66.4398 
 152   0.0000       2.471819        67.2616 
 153   0.0000       2.530072        68.8468 
 154   0.0000       2.543847        69.2216 
 155   0.0000       2.570397        69.9441 
 156   0.0000       2.600171        70.7543 
 157   0.0000       2.614354        71.1402 
 158   0.0000       2.664082        72.4934 
 159   0.0000       2.676757        72.8383 
 160   0.0000       2.695922        73.3598 
 161   0.0000       2.725578        74.1667 
 162   0.0000       2.747195        74.7550 
 163   0.0000       2.823586        76.8337 
 164   0.0000       2.840509        77.2942 
 165   0.0000       2.858161        77.7745 
 166   0.0000       2.876362        78.2698 
 167   0.0000       2.885096        78.5075 
 168   0.0000       2.896291        78.8121 
 169   0.0000       2.907785        79.1248 
 170   0.0000       2.936457        79.9050 
 171   0.0000       2.967379        80.7465 
 172   0.0000       2.990481        81.3751 
 173   0.0000       3.027081        82.3711 
 174   0.0000       3.075008        83.6752 
 175   0.0000       3.256722        88.6199 
 176   0.0000       3.406727        92.7018 

                    ********************************
                    * MULLIKEN POPULATION ANALYSIS *
                    ********************************

-----------------------
MULLIKEN ATOMIC CHARGES
-----------------------
   0 C :    0.110640
   1 C :    0.251948
   2 C :    0.110642
   3 C :   -0.090124
   4 H :    0.084950
   5 H :    0.092019
   6 H :    0.082044
   7 H :    0.076538
   8 N :   -0.326483
   9 N :   -0.326483
  10 H :    0.084949
  11 H :    0.093346
  12 H :    0.082044
  13 C :    0.076395
  14 H :    0.077335
  15 H :    0.092527
  16 H :    0.090728
  17 C :    0.076395
  18 H :    0.092527
  19 H :    0.077335
  20 H :    0.090728
Sum of atomic charges:    1.0000000

--------------------------------
MULLIKEN REDUCED ORBITAL CHARGES
--------------------------------
  0 C s       :     3.011668  s :     3.011668
      pz      :     1.040694  p :     2.831518
      px      :     1.057310
      py      :     0.733514
      dz2     :     0.010046  d :     0.046174
      dxz     :     0.006640
      dyz     :     0.006075
      dx2y2   :     0.014905
      dxy     :     0.008508
  1 C s       :     3.060554  s :     3.060554
      pz      :     0.848590  p :     2.611323
      px      :     0.815859
      py      :     0.946873
      dz2     :     0.019883  d :     0.076176
      dxz     :     0.027936
      dyz     :     0.019042
      dx2y2   :     0.005273
      dxy     :     0.004041
  2 C s       :     3.011667  s :     3.011667
      pz      :     1.040695  p :     2.831518
      px      :     1.057309
      py      :     0.733514
      dz2     :     0.010046  d :     0.046174
      dxz     :     0.006640
      dyz     :     0.006075
      dx2y2   :     0.014905
      dxy     :     0.008508
  3 C s       :     3.061654  s :     3.061654
      pz      :     0.922030  p :     2.994921
      px      :     1.020267
      py      :     1.052624
      dz2     :     0.009182  d :     0.033549
      dxz     :     0.007375
      dyz     :     0.005465
      dx2y2   :     0.008505
      dxy     :     0.003022
  4 H s       :     0.892796  s :     0.892796
      pz      :     0.004082  p :     0.022254
      px      :     0.014586
      py      :     0.003586
  5 H s       :     0.885813  s :     0.885813
      pz      :     0.001381  p :     0.022168
      px      :     0.003082
      py      :     0.017705
  6 H s       :     0.895297  s :     0.895297
      pz      :     0.011567  p :     0.022658
      px      :     0.007787
      py      :     0.003303
  7 H s       :     0.900558  s :     0.900558
      pz      :     0.003309  p :     0.022903
      px      :     0.015218
      py      :     0.004376
  8 N s       :     3.419421  s :     3.419421
      pz      :     1.124022  p :     3.878473
      px      :     1.560556
      py      :     1.193895
      dz2     :     0.006793  d :     0.028590
      dxz     :     0.005400
      dyz     :     0.008894
      dx2y2   :     0.003740
      dxy     :     0.003763
  9 N s       :     3.419420  s :     3.419420
      pz      :     1.124022  p :     3.878473
      px      :     1.560556
      py      :     1.193896
      dz2     :     0.006793  d :     0.028590
      dxz     :     0.005400
      dyz     :     0.008894
      dx2y2   :     0.003740
      dxy     :     0.003763
 10 H s       :     0.892796  s :     0.892796
      pz      :     0.004082  p :     0.022254
      px      :     0.014586
      py      :     0.003586
 11 H s       :     0.883051  s :     0.883051
      pz      :     0.003567  p :     0.023603
      px      :     0.004442
      py      :     0.015593
 12 H s       :     0.895298  s :     0.895298
      pz      :     0.011567  p :     0.022658
      px      :     0.007787
      py      :     0.003304
 13 C s       :     3.026260  s :     3.026260
      pz      :     0.814802  p :     2.859876
      px      :     1.076585
      py      :     0.968489
      dz2     :     0.007480  d :     0.037470
      dxz     :     0.010928
      dyz     :     0.009403
      dx2y2   :     0.007236
      dxy     :     0.002424
 14 H s       :     0.898807  s :     0.898807
      pz      :     0.003213  p :     0.023858
      px      :     0.005063
      py      :     0.015581
 15 H s       :     0.883967  s :     0.883967
      pz      :     0.006725  p :     0.023505
      px      :     0.012468
      py      :     0.004313
 16 H s       :     0.885741  s :     0.885741
      pz      :     0.006562  p :     0.023532
      px      :     0.012346
      py      :     0.004624
 17 C s       :     3.026260  s :     3.026260
      pz      :     0.814802  p :     2.859876
      px      :     1.076585
      py      :     0.968489
      dz2     :     0.007480  d :     0.037470
      dxz     :     0.010928
      dyz     :     0.009403
      dx2y2   :     0.007236
      dxy     :     0.002424
 18 H s       :     0.883968  s :     0.883968
      pz      :     0.006725  p :     0.023505
      px      :     0.012468
      py      :     0.004313
 19 H s       :     0.898807  s :     0.898807
      pz      :     0.003213  p :     0.023857
      px      :     0.005063
      py      :     0.015581
 20 H s       :     0.885741  s :     0.885741
      pz      :     0.006562  p :     0.023532
      px      :     0.012346
      py      :     0.004624


                     *******************************
                     * LOEWDIN POPULATION ANALYSIS *
                     *******************************

----------------------
LOEWDIN ATOMIC CHARGES
----------------------
   0 C :    0.059699
   1 C :    0.163222
   2 C :    0.059699
   3 C :   -0.037094
   4 H :    0.043753
   5 H :    0.053959
   6 H :    0.049139
   7 H :    0.045385
   8 N :    0.008145
   9 N :    0.008145
  10 H :    0.043753
  11 H :    0.060662
  12 H :    0.049139
  13 C :    0.056398
  14 H :    0.044831
  15 H :    0.046990
  16 H :    0.047978
  17 C :    0.056398
  18 H :    0.046990
  19 H :    0.044831
  20 H :    0.047978

-------------------------------
LOEWDIN REDUCED ORBITAL CHARGES
-------------------------------
  0 C s       :     2.831280  s :     2.831280
      pz      :     1.064053  p :     2.998631
      px      :     1.090028
      py      :     0.844550
      dz2     :     0.024269  d :     0.110390
      dxz     :     0.016392
      dyz     :     0.014256
      dx2y2   :     0.035111
      dxy     :     0.020363
  1 C s       :     2.829724  s :     2.829724
      pz      :     0.958664  p :     2.827454
      px      :     0.836090
      py      :     1.032700
      dz2     :     0.053468  d :     0.179600
      dxz     :     0.056591
      dyz     :     0.049733
      dx2y2   :     0.013017
      dxy     :     0.006791
  2 C s       :     2.831280  s :     2.831280
      pz      :     1.064053  p :     2.998631
      px      :     1.090028
      py      :     0.844550
      dz2     :     0.024269  d :     0.110390
      dxz     :     0.016392
      dyz     :     0.014256
      dx2y2   :     0.035111
      dxy     :     0.020363
  3 C s       :     2.830232  s :     2.830232
      pz      :     0.997251  p :     3.121585
      px      :     1.059771
      py      :     1.064563
      dz2     :     0.023635  d :     0.085277
      dxz     :     0.017992
      dyz     :     0.014484
      dx2y2   :     0.022490
      dxy     :     0.006676
  4 H s       :     0.888823  s :     0.888823
      pz      :     0.013912  p :     0.067425
      px      :     0.040830
      py      :     0.012682
  5 H s       :     0.877627  s :     0.877627
      pz      :     0.007481  p :     0.068414
      px      :     0.009982
      py      :     0.050952
  6 H s       :     0.883474  s :     0.883474
      pz      :     0.034244  p :     0.067386
      px      :     0.022090
      py      :     0.011052
  7 H s       :     0.886245  s :     0.886245
      pz      :     0.012280  p :     0.068370
      px      :     0.042347
      py      :     0.013743
  8 N s       :     3.060928  s :     3.060928
      pz      :     1.178494  p :     3.866687
      px      :     1.491924
      py      :     1.196269
      dz2     :     0.018019  d :     0.064240
      dxz     :     0.009004
      dyz     :     0.023185
      dx2y2   :     0.007680
      dxy     :     0.006351
  9 N s       :     3.060928  s :     3.060928
      pz      :     1.178494  p :     3.866687
      px      :     1.491924
      py      :     1.196269
      dz2     :     0.018019  d :     0.064239
      dxz     :     0.009004
      dyz     :     0.023185
      dx2y2   :     0.007680
      dxy     :     0.006351
 10 H s       :     0.888823  s :     0.888823
      pz      :     0.013912  p :     0.067425
      px      :     0.040830
      py      :     0.012682
 11 H s       :     0.870749  s :     0.870749
      pz      :     0.012401  p :     0.068589
      px      :     0.013154
      py      :     0.043034
 12 H s       :     0.883474  s :     0.883474
      pz      :     0.034244  p :     0.067386
      px      :     0.022090
      py      :     0.011052
 13 C s       :     2.830763  s :     2.830763
      pz      :     0.900745  p :     3.019050
      px      :     1.099230
      py      :     1.019075
      dz2     :     0.017506  d :     0.093789
      dxz     :     0.029009
      dyz     :     0.022867
      dx2y2   :     0.019504
      dxy     :     0.004904
 14 H s       :     0.888329  s :     0.888329
      pz      :     0.009730  p :     0.066839
      px      :     0.013579
      py      :     0.043530
 15 H s       :     0.886250  s :     0.886250
      pz      :     0.020079  p :     0.066760
      px      :     0.034471
      py      :     0.012211
 16 H s       :     0.885208  s :     0.885208
      pz      :     0.019533  p :     0.066814
      px      :     0.034150
      py      :     0.013131
 17 C s       :     2.830763  s :     2.830763
      pz      :     0.900745  p :     3.019050
      px      :     1.099230
      py      :     1.019075
      dz2     :     0.017506  d :     0.093789
      dxz     :     0.029009
      dyz     :     0.022867
      dx2y2   :     0.019504
      dxy     :     0.004904
 18 H s       :     0.886250  s :     0.886250
      pz      :     0.020079  p :     0.066760
      px      :     0.034471
      py      :     0.012211
 19 H s       :     0.888329  s :     0.888329
      pz      :     0.009730  p :     0.066839
      px      :     0.013579
      py      :     0.043530
 20 H s       :     0.885208  s :     0.885208
      pz      :     0.019533  p :     0.066814
      px      :     0.034150
      py      :     0.013131


                      *****************************
                      * MAYER POPULATION ANALYSIS *
                      *****************************

  NA   - Mulliken gross atomic population
  ZA   - Total nuclear charge
  QA   - Mulliken gross atomic charge
  VA   - Mayer's total valence
  BVA  - Mayer's bonded valence
  FA   - Mayer's free valence

  ATOM       NA         ZA         QA         VA         BVA        FA
  0 C      5.8894     6.0000     0.1106     3.9126     3.9126    -0.0000
  1 C      5.7481     6.0000     0.2519     3.9536     3.9536     0.0000
  2 C      5.8894     6.0000     0.1106     3.9126     3.9126    -0.0000
  3 C      6.0901     6.0000    -0.0901     4.0751     4.0751     0.0000
  4 H      0.9151     1.0000     0.0849     0.9848     0.9848    -0.0000
  5 H      0.9080     1.0000     0.0920     1.0064     1.0064    -0.0000
  6 H      0.9180     1.0000     0.0820     0.9894     0.9894     0.0000
  7 H      0.9235     1.0000     0.0765     0.9791     0.9791    -0.0000
  8 N      7.3265     7.0000    -0.3265     3.3581     3.3581    -0.0000
  9 N      7.3265     7.0000    -0.3265     3.3581     3.3581    -0.0000
 10 H      0.9151     1.0000     0.0849     0.9848     0.9848    -0.0000
 11 H      0.9067     1.0000     0.0933     0.9838     0.9838     0.0000
 12 H      0.9180     1.0000     0.0820     0.9894     0.9894    -0.0000
 13 C      5.9236     6.0000     0.0764     3.8720     3.8720    -0.0000
 14 H      0.9227     1.0000     0.0773     0.9982     0.9982    -0.0000
 15 H      0.9075     1.0000     0.0925     0.9905     0.9905    -0.0000
 16 H      0.9093     1.0000     0.0907     0.9899     0.9899    -0.0000
 17 C      5.9236     6.0000     0.0764     3.8720     3.8720    -0.0000
 18 H      0.9075     1.0000     0.0925     0.9905     0.9905    -0.0000
 19 H      0.9227     1.0000     0.0773     0.9982     0.9982    -0.0000
 20 H      0.9093     1.0000     0.0907     0.9899     0.9899    -0.0000

  Mayer bond orders larger than 0.100000
B(  0-C ,  3-C ) :   1.0679 B(  0-C ,  4-H ) :   0.9586 B(  0-C ,  8-N ) :   0.8887 
B(  0-C , 12-H ) :   0.9526 B(  1-C ,  5-H ) :   0.9650 B(  1-C ,  8-N ) :   1.4305 
B(  1-C ,  9-N ) :   1.4305 B(  2-C ,  3-C ) :   1.0679 B(  2-C ,  6-H ) :   0.9526 
B(  2-C ,  9-N ) :   0.8887 B(  2-C , 10-H ) :   0.9586 B(  3-C ,  7-H ) :   0.9489 
B(  3-C , 11-H ) :   0.9436 B(  8-N , 13-C ) :   0.9069 B(  9-N , 17-C ) :   0.9069 
B( 13-C , 14-H ) :   0.9716 B( 13-C , 15-H ) :   0.9732 B( 13-C , 16-H ) :   0.9721 
B( 17-C , 18-H ) :   0.9732 B( 17-C , 19-H ) :   0.9716 B( 17-C , 20-H ) :   0.9721 


-------
TIMINGS
-------

Total SCF time: 0 days 0 hours 0 min 50 sec 

Total time                  ....      50.424 sec
Sum of individual times     ....      49.819 sec  ( 98.8%)

Fock matrix formation       ....      48.177 sec  ( 95.5%)
  Split-RI-J                ....       2.095 sec  (  4.3% of F)
  Chain of spheres X        ....      39.991 sec  ( 83.0% of F)
  XC integration            ....       5.627 sec  ( 11.7% of F)
    Basis function eval.    ....       1.747 sec  ( 31.1% of XC)
    Density eval.           ....       1.076 sec  ( 19.1% of XC)
    XC-Functional eval.     ....       0.693 sec  ( 12.3% of XC)
    XC-Potential eval.      ....       1.163 sec  ( 20.7% of XC)
Diagonalization             ....       0.062 sec  (  0.1%)
Density matrix formation    ....       0.005 sec  (  0.0%)
Population analysis         ....       0.034 sec  (  0.1%)
Initial guess               ....       0.171 sec  (  0.3%)
Orbital Transformation      ....       0.000 sec  (  0.0%)
Orbital Orthonormalization  ....       0.000 sec  (  0.0%)
DIIS solution               ....       0.043 sec  (  0.1%)
SOSCF solution              ....       0.040 sec  (  0.1%)
Grid generation             ....       1.287 sec  (  2.6%)

Maximum memory used throughout the entire SCF-calculation: 55.4 MB


-------------------------------------------------------------------------------
                          DFT DISPERSION CORRECTION                            
                                                                               
                                 DFTD4 V2.5                                    
-------------------------------------------------------------------------------
The WB97X functional is recognized
Active option DFTDOPT                   ...         5   

Starting D4
-------------------------   ----------------
Dispersion correction           -0.002455062
-------------------------   ----------------


-------------------------   --------------------
FINAL SINGLE POINT ENERGY      -345.427266043800
-------------------------   --------------------



           ************************************************************
           *        Program running with 4 parallel MPI-processes     *
           *              working on a common directory               *
           ************************************************************
------------------------------------------------------------------------------
                         ORCA SCF GRADIENT CALCULATION
------------------------------------------------------------------------------

 ... reading COSX grid (gridx3)
Gradient of the Kohn-Sham DFT energy:
Kohn-Sham wavefunction type      ... RKS
Hartree-Fock exchange scaling    ...    0.158
Number of operators              ...    1
Number of atoms                  ...   21
Basis set dimensions             ...  177
Integral neglect threshold       ... 2.5e-11
Integral primitive cutoff        ... 2.5e-12
SHARK Integral package           ... ON

Nuc. rep. gradient       (SHARK) ... done (  0.0 sec)
HCore & Overlap gradient (SHARK) ... done (  0.1 sec)
RI-J gradient            (SHARK) ... done (  0.5 sec)
COSX-gradient                    ... done (  8.3 sec)
Exchange-correlation gradient    ... done
Dispersion correction            ... Starting D4
Starting D4
Starting D4
Starting D4


------------------- 
Dispersion Gradient 
------------------- 
   1  :   -0.000001264    0.000020485    0.000019199
   2  :   -0.000000772   -0.000012262   -0.000000000
   3  :   -0.000001264    0.000020485   -0.000019199
   4  :    0.000009049    0.000028871   -0.000000000
   5  :   -0.000000054    0.000002728    0.000003407
   6  :   -0.000000387   -0.000005044    0.000000000
   7  :    0.000001058    0.000002620   -0.000004911
   8  :    0.000001230    0.000005524    0.000000000
   9  :   -0.000001104   -0.000003768    0.000019014
  10  :   -0.000001104   -0.000003768   -0.000019014
  11  :   -0.000000054    0.000002728   -0.000003407
  12  :    0.000001160    0.000009551    0.000000000
  13  :    0.000001058    0.000002620    0.000004911
  14  :   -0.000002005   -0.000020152    0.000041741
  15  :   -0.000000580   -0.000005067    0.000011224
  16  :   -0.000000820   -0.000005189    0.000008982
  17  :   -0.000000370   -0.000004977    0.000008964
  18  :   -0.000002005   -0.000020152   -0.000041741
  19  :   -0.000000820   -0.000005189   -0.000008982
  20  :   -0.000000580   -0.000005067   -0.000011224
  21  :   -0.000000370   -0.000004977   -0.000008964

  |G| =    0.000055660

done

------------------
CARTESIAN GRADIENT
------------------

   1   C   :   -0.002972964    0.007522712    0.008305551
   2   C   :    0.000270514   -0.010822835   -0.000000068
   3   C   :   -0.002972976    0.007522678   -0.008305442
   4   C   :    0.007374583    0.007362985   -0.000000046
   5   H   :    0.005184804   -0.001763258   -0.000668413
   6   H   :    0.000022429    0.008376816   -0.000000010
   7   H   :   -0.002994014   -0.001423830    0.004727571
   8   H   :   -0.005508482    0.000811262    0.000000011
   9   N   :   -0.000136373   -0.001482196   -0.000298746
  10   N   :   -0.000136329   -0.001482257    0.000298815
  11   H   :    0.005184795   -0.001763260    0.000668404
  12   H   :    0.000520052   -0.005385632   -0.000000014
  13   H   :   -0.002993993   -0.001423853   -0.004727579
  14   C   :   -0.000376830   -0.006207632    0.008983874
  15   H   :    0.000205819    0.005635494    0.001258960
  16   H   :   -0.004424363   -0.001033862   -0.002867797
  17   H   :    0.004257205   -0.001354256   -0.002736546
  18   C   :   -0.000376821   -0.006207542   -0.008983917
  19   H   :   -0.004424356   -0.001033851    0.002867760
  20   H   :    0.000205834    0.005635495   -0.001258942
  21   H   :    0.004257198   -0.001354248    0.002736544

Difference to translation invariance:
           :    0.0001657337    0.0001289325   -0.0000000307

Difference to rotation invariance:
           :    0.0000005933    0.0000000064   -0.0015274805

Norm of the cartesian gradient     ...    0.0342843628
RMS gradient                       ...    0.0043194237
MAX gradient                       ...    0.0108228348

-------
TIMINGS
-------

Total SCF gradient time            ...       11.186 sec

One electron gradient       ....       0.094 sec  (  0.8%)
RI-J Coulomb gradient       ....       0.487 sec  (  4.4%)
COSX gradient               ....       8.293 sec  ( 74.1%)
XC gradient                 ....       1.910 sec  ( 17.1%)

Maximum memory used throughout the entire SCFGRAD-calculation: 42.9 MB
------------------------------------------------------------------------------
                         ORCA GEOMETRY RELAXATION STEP
------------------------------------------------------------------------------

Reading the OPT-File                    .... done
Getting information on internals        .... done
Copying old internal coords+grads       .... done
Making the new internal coordinates     .... (new redundants).... done
Validating the new internal coordinates .... (new redundants).... done
Calculating the B-matrix                .... done
Calculating the G,G- and P matrices     .... done
Transforming gradient to internals      .... done
Projecting the internal gradient        .... done
Number of atoms                         ....  21
Number of internal coordinates          .... 110
Current Energy                          ....  -345.427266044 Eh
Current gradient norm                   ....     0.034284363 Eh/bohr
Maximum allowed component of the step   ....  0.300
Current trust radius                    ....  0.300
Evaluating the initial hessian          ....  (Almloef) done
Projecting the Hessian                  .... done
Forming the augmented Hessian           .... done
Diagonalizing the augmented Hessian     .... done
Last element of RFO vector              ....  0.997725191
Lowest eigenvalues of augmented Hessian:
 -0.001641529  0.015049919  0.015049921  0.015452612  0.017092924
Length of the computed step             ....  0.067566190
The final length of the internal step   ....  0.067566190
Converting the step to cartesian space:
 Initial RMS(Int)=    0.0064421834
Transforming coordinates:
 Iter   0:  RMS(Cart)=    0.0103058760 RMS(Int)=    0.0064422044
 Iter   1:  RMS(Cart)=    0.0000115694 RMS(Int)=    0.0000095579
 Iter   2:  RMS(Cart)=    0.0000000803 RMS(Int)=    0.0000000560
done
Storing new coordinates                 .... done

                                .--------------------.
          ----------------------|Geometry convergence|-------------------------
          Item                value                   Tolerance       Converged
          ---------------------------------------------------------------------
          RMS gradient        0.0023896348            0.0001000000      NO
          MAX gradient        0.0083695891            0.0003000000      NO
          RMS step            0.0064421834            0.0020000000      NO
          MAX step            0.0226356037            0.0040000000      NO
          ........................................................
          Max(Bonds)      0.0120      Max(Angles)    0.15
          Max(Dihed)        0.21      Max(Improp)    0.00
          ---------------------------------------------------------------------

The optimization has not yet converged - more geometry cycles are needed


    ---------------------------------------------------------------------------
                         Redundant Internal Coordinates
                            (Angstroem and degrees)

        Definition                    Value    dE/dq     Step     New-Value
    ----------------------------------------------------------------------------
     1. B(C   3,C   0)                1.5262  0.003567 -0.0047    1.5215   
     2. B(C   3,C   2)                1.5262  0.003567 -0.0047    1.5215   
     3. B(H   4,C   0)                1.0947 -0.005496  0.0082    1.1029   
     4. B(H   5,C   1)                1.0840 -0.008370  0.0120    1.0960   
     5. B(H   6,C   2)                1.0909 -0.005789  0.0085    1.0994   
     6. B(H   7,C   3)                1.0931 -0.005600  0.0083    1.1014   
     7. B(N   8,C   0)                1.4762  0.005691 -0.0074    1.4688   
     8. B(N   8,C   1)                1.3179  0.004253 -0.0032    1.3147   
     9. B(N   9,C   2)                1.4762  0.005691 -0.0074    1.4688   
    10. B(N   9,C   1)                1.3179  0.004253 -0.0032    1.3147   
    11. B(H  10,C   2)                1.0947 -0.005496  0.0082    1.1029   
    12. B(H  11,C   3)                1.0907 -0.005400  0.0079    1.0986   
    13. B(H  12,C   0)                1.0909 -0.005789  0.0085    1.0994   
    14. B(C  13,N   8)                1.4680  0.005523 -0.0069    1.4611   
    15. B(H  14,C  13)                1.0890 -0.005769  0.0084    1.0974   
    16. B(H  15,C  13)                1.0917 -0.005367  0.0079    1.0995   
    17. B(H  16,C  13)                1.0919 -0.005248  0.0077    1.0996   
    18. B(C  17,N   9)                1.4680  0.005523 -0.0069    1.4611   
    19. B(H  18,C  17)                1.0917 -0.005367  0.0079    1.0995   
    20. B(H  19,C  17)                1.0890 -0.005769  0.0084    1.0974   
    21. B(H  20,C  17)                1.0919 -0.005248  0.0077    1.0996   
    22. A(C   3,C   0,H  12)          110.87 -0.000008   -0.01    110.86   
    23. A(C   3,C   0,N   8)          110.14  0.000328   -0.05    110.09   
    24. A(H   4,C   0,N   8)          108.55 -0.000190    0.06    108.61   
    25. A(H   4,C   0,H  12)          107.80  0.000032    0.01    107.81   
    26. A(C   3,C   0,H   4)          111.76 -0.000127    0.02    111.78   
    27. A(N   8,C   0,H  12)          107.59 -0.000042   -0.03    107.56   
    28. A(H   5,C   1,N   8)          117.41 -0.000331    0.08    117.48   
[...]
     12      -0.055018  -0.288258  -0.282508  -0.095817   0.020833   0.023189
     13       0.015977   0.096058   0.093521   0.030303  -0.005524  -0.006305
     14       0.006416   0.041482   0.041265   0.016019  -0.003474  -0.003860
     15       0.000160  -0.000000   0.001778   0.000402  -0.000000  -0.000615
     16       0.004261   0.000001  -0.014926   0.000400  -0.000000   0.000078
     17       0.000000  -0.000500  -0.000000  -0.000000   0.000148  -0.000000
     18       0.060930   0.328531  -0.319259  -0.056789  -0.017911   0.018742
     19       0.032001   0.159546  -0.154524  -0.026416  -0.007466   0.007716
     20      -0.088609  -0.516238   0.501136   0.087895   0.027802  -0.028904
     21      -0.838951  -0.000001   0.005181  -0.475745   0.000004   0.023052
     22       0.155167   0.000000  -0.002627   0.079721  -0.000001  -0.003909
     23       0.000000   0.003602   0.000000   0.000000   0.000019  -0.000000
     24      -0.000230  -0.000404  -0.000428  -0.000100  -0.000605  -0.000500
     25      -0.000301  -0.000241  -0.000301   0.000545   0.000107   0.000048
     26       0.000077  -0.000150  -0.000123  -0.000352   0.000093   0.000064
     27      -0.000230   0.000404  -0.000428  -0.000100   0.000605  -0.000500
     28      -0.000301   0.000241  -0.000301   0.000545  -0.000107   0.000048
     29      -0.000077  -0.000150   0.000123   0.000352   0.000093  -0.000064
     30      -0.055028   0.288297  -0.282461  -0.095817  -0.020828   0.023192
     31       0.015980  -0.096071   0.093505   0.030303   0.005522  -0.006306
     32      -0.006417   0.041488  -0.041258  -0.016019  -0.003473   0.003861
     33       0.071769  -0.000002   0.028035  -0.105753   0.000001   0.003984
     34      -0.479225   0.000015  -0.229717   0.837057  -0.000005  -0.031019
     35      -0.000000   0.000716   0.000000   0.000000   0.000177  -0.000000
     36       0.060929  -0.328482  -0.319308  -0.056790   0.017915   0.018739
     37       0.032001  -0.159523  -0.154548  -0.026417   0.007468   0.007715
     38       0.088608  -0.516160  -0.501212  -0.087895   0.027807   0.028899
     39       0.000045   0.003688   0.003278   0.003407   0.067522   0.067487
     40       0.000301  -0.001114  -0.001236  -0.000255  -0.003992  -0.004022
     41      -0.000220  -0.000446  -0.000369  -0.000011  -0.000336  -0.000347
     42      -0.000075   0.000094   0.000175   0.000341   0.007435   0.007493
     43      -0.003825   0.008437   0.010272   0.001771   0.011396   0.011610
     44      -0.000665   0.000978   0.001384   0.000135   0.002400   0.002444
     45       0.002640  -0.019970  -0.018382  -0.020442  -0.403141  -0.402670
     46       0.000276  -0.003520  -0.003209  -0.004983  -0.101746  -0.101736
     47       0.001793  -0.014345  -0.013380  -0.013590  -0.263207  -0.262783
     48      -0.002608  -0.025219  -0.022345  -0.020420  -0.403183  -0.402761
     49       0.000507   0.008442   0.007442   0.006752   0.137059   0.137045
     50       0.001803   0.017243   0.015292   0.013740   0.264935   0.264510
     51       0.000045  -0.003688   0.003277   0.003407  -0.067510   0.067499
     52       0.000301   0.001114  -0.001236  -0.000255   0.003991  -0.004023
     53       0.000220  -0.000446   0.000369   0.000010  -0.000336   0.000347
     54       0.002640   0.019973  -0.018380  -0.020441   0.403065  -0.402746
     55       0.000276   0.003520  -0.003208  -0.004982   0.101727  -0.101755
     56      -0.001793  -0.014347   0.013378   0.013589  -0.263157   0.262832
     57      -0.000075  -0.000094   0.000175   0.000341  -0.007433   0.007494
     58      -0.003825  -0.008438   0.010271   0.001769  -0.011393   0.011611
     59       0.000665   0.000979  -0.001384  -0.000134   0.002399  -0.002445
     60      -0.002609   0.025222  -0.022341  -0.020417   0.403108  -0.402838
     61       0.000507  -0.008443   0.007441   0.006751  -0.137034   0.137071
     62      -0.001804   0.017245  -0.015289  -0.013738   0.264886  -0.264561
                 60         61         62    
      0       0.000871   0.000710   0.000052
      1      -0.000018  -0.000195   0.001342
      2       0.000832   0.000611   0.001362
      3       0.000038  -0.000000  -0.000011
      4      -0.010587   0.000025  -0.089781
      5       0.000000   0.000016  -0.000000
      6       0.000867  -0.000714   0.000052
      7      -0.000017   0.000196   0.001342
      8      -0.000829   0.000615  -0.001362
      9      -0.000179   0.000000  -0.000062
     10       0.000058  -0.000000   0.000134
     11       0.000000   0.000003  -0.000000
     12      -0.004575  -0.004090   0.005265
     13       0.000811   0.000881  -0.001918
     14       0.000820   0.000786  -0.000586
     15       0.000026  -0.000000  -0.000684
     16       0.114597  -0.000267   0.989049
     17      -0.000006  -0.002478   0.000000
     18      -0.005558   0.004304  -0.006128
     19      -0.003789   0.003006  -0.002807
     20       0.007778  -0.006183   0.010172
     21       0.001325  -0.000004   0.001207
     22      -0.000119   0.000000  -0.000246
     23      -0.000000  -0.000102   0.000000
     24      -0.000050  -0.000042   0.000060
     25      -0.000074  -0.000132   0.002005
     26       0.000906   0.000370   0.002918
     27      -0.000050   0.000042   0.000060
     28      -0.000074   0.000133   0.002005
     29      -0.000904   0.000375  -0.002918
     30      -0.004555   0.004111   0.005264
     31       0.000807  -0.000885  -0.001918
     32      -0.000816   0.000789   0.000586
     33       0.000192  -0.000001  -0.000188
     34      -0.001599   0.000005  -0.001827
     35      -0.000000  -0.000034   0.000000
     36      -0.005578  -0.004278  -0.006128
     37      -0.003803  -0.002989  -0.002807
     38      -0.007808  -0.006147  -0.010172
     39       0.003859   0.003840  -0.000447
     40       0.059591   0.059718  -0.007021
     41       0.030798   0.030833  -0.002943
     42      -0.025788  -0.025848   0.003079
     43      -0.597280  -0.598832   0.073556
     44      -0.123569  -0.123729   0.013324
     45      -0.211887  -0.211833   0.019896
     46      -0.045291  -0.045384   0.005260
     47      -0.131073  -0.130935   0.010921
     48       0.192232   0.192522  -0.017983
     49      -0.056955  -0.057163   0.006337
     50      -0.118529  -0.118633   0.009968
     51       0.003841  -0.003858  -0.000447
     52       0.059311  -0.059996  -0.007021
     53      -0.030654   0.030977   0.002943
     54      -0.210894   0.212821   0.019896
     55      -0.045078   0.045595   0.005260
     56       0.130460  -0.131546  -0.010921
     57      -0.025667   0.025969   0.003079
     58      -0.594474   0.601617   0.073555
     59       0.122990  -0.124305  -0.013324
     60       0.191331  -0.193418  -0.017982
     61      -0.056688   0.057429   0.006337
     62       0.117974  -0.119185  -0.009968


-----------
IR SPECTRUM
-----------

 Mode   freq       eps      Int      T**2         TX        TY        TZ
       cm**-1   L/(mol*cm) km/mol    a.u.
----------------------------------------------------------------------------
  6:    121.22   0.000003    0.01  0.000007  (-0.000000 -0.000000  0.002577)
  7:    159.01   0.000521    2.63  0.001022  (-0.031899 -0.002009 -0.000000)
  8:    181.24   0.000020    0.10  0.000035  (-0.000000  0.000000 -0.005898)
  9:    208.02   0.000331    1.67  0.000497  (-0.022263 -0.001251 -0.000000)
 10:    274.21   0.000029    0.15  0.000033  ( 0.005665  0.000809 -0.000000)
 11:    311.71   0.000000    0.00  0.000000  (-0.000000  0.000000 -0.000643)
 12:    317.37   0.000010    0.05  0.000010  ( 0.001691  0.002623  0.000000)
 13:    423.72   0.000005    0.02  0.000003  (-0.000000 -0.000000 -0.001866)
 14:    468.12   0.002915   14.73  0.001943  ( 0.044075 -0.000612 -0.000001)
 15:    473.16   0.000774    3.91  0.000511  (-0.000002  0.000000 -0.022597)
 16:    533.06   0.001534    7.75  0.000898  ( 0.029172  0.006871  0.000000)
 17:    622.69   0.000080    0.40  0.000040  ( 0.003885 -0.004997  0.000000)
 18:    805.59   0.000147    0.74  0.000057  (-0.005165 -0.005508  0.000000)
 19:    881.54   0.000487    2.46  0.000172  (-0.000000  0.000000  0.013125)
 20:    914.52   0.000044    0.22  0.000015  ( 0.000000 -0.000000  0.003888)
 21:    942.04   0.000216    1.09  0.000072  (-0.007003  0.004759  0.000000)
 22:   1009.53   0.000317    1.60  0.000098  (-0.008878  0.004369  0.000000)
 23:   1044.35   0.003675   18.57  0.001098  ( 0.007468 -0.032284  0.000000)
 24:   1074.14   0.000479    2.42  0.000139  (-0.000000 -0.000000  0.011791)
 25:   1116.48   0.000828    4.18  0.000231  ( 0.002666  0.014979 -0.000000)
 26:   1126.14   0.000950    4.80  0.000263  (-0.015322 -0.005325  0.000000)
 27:   1136.43   0.001206    6.10  0.000331  (-0.000000 -0.000000 -0.018200)
 28:   1140.93   0.000038    0.19  0.000010  ( 0.000000 -0.000000 -0.003240)
 29:   1161.99   0.000263    1.33  0.000071  (-0.008078 -0.002294 -0.000000)
 30:   1203.42   0.010641   53.78  0.002759  ( 0.000000 -0.000000  0.052530)
 31:   1243.34   0.005282   26.69  0.001326  ( 0.000000 -0.000000 -0.036411)
 32:   1280.02   0.000131    0.66  0.000032  (-0.000000 -0.000001  0.005661)
 33:   1285.33   0.006308   31.88  0.001532  ( 0.016897  0.035299  0.000000)
 34:   1339.69   0.001875    9.48  0.000437  ( 0.006481 -0.019870  0.000000)
 35:   1357.64   0.005445   27.52  0.001252  ( 0.000000 -0.000000 -0.035378)
 36:   1412.15   0.005056   25.55  0.001117  (-0.000000  0.000000 -0.033425)
 37:   1414.56   0.000422    2.13  0.000093  ( 0.000000 -0.000000  0.009647)
 38:   1429.48   0.003093   15.63  0.000675  (-0.003623  0.025731  0.000000)
 39:   1455.27   0.007400   37.39  0.001587  ( 0.000000  0.000000 -0.039834)
 40:   1460.34   0.006959   35.17  0.001487  (-0.038026 -0.006407 -0.000001)
 41:   1462.03   0.000205    1.03  0.000044  (-0.000001  0.000001 -0.006608)
 42:   1463.54   0.002278   11.51  0.000486  (-0.021895 -0.002499  0.000000)
 43:   1464.25   0.001978   10.00  0.000422  ( 0.013447 -0.015519 -0.000000)
 44:   1480.05   0.000068    0.34  0.000014  ( 0.000000  0.000000  0.003792)
 45:   1481.43   0.004967   25.10  0.001046  (-0.007298 -0.031513 -0.000000)
 46:   1492.28   0.000023    0.12  0.000005  (-0.000310 -0.002183  0.000000)
 47:   1496.65   0.001135    5.73  0.000237  (-0.000000  0.000000  0.015382)
 48:   1587.62   0.006214   31.40  0.001221  (-0.004644  0.034638  0.000000)
 49:   1812.99   0.116724  589.88  0.020091  ( 0.000000 -0.000000  0.141744)
 50:   3082.24   0.003043   15.38  0.000308  (-0.000000  0.000000  0.017552)
 51:   3082.59   0.000698    3.53  0.000071  ( 0.000202 -0.008402  0.000000)
 52:   3087.68   0.001415    7.15  0.000143  (-0.000001  0.000001  0.011959)
 53:   3090.07   0.001236    6.25  0.000125  (-0.008164  0.007630 -0.000002)
 54:   3106.13   0.000794    4.01  0.000080  ( 0.008918  0.000472  0.000000)
 55:   3165.88   0.000140    0.71  0.000014  (-0.000000 -0.000000  0.003712)
 56:   3167.11   0.000342    1.73  0.000034  ( 0.005754  0.000750  0.000000)
 57:   3183.38   0.000164    0.83  0.000016  ( 0.004003 -0.000280  0.000000)
 58:   3188.81   0.000004    0.02  0.000000  ( 0.000000  0.000000  0.000654)
 59:   3188.90   0.000294    1.49  0.000029  ( 0.005357  0.000304 -0.000000)
 60:   3213.18   0.000275    1.39  0.000027  ( 0.000468  0.005146  0.000008)
 61:   3213.26   0.000129    0.65  0.000013  (-0.000001 -0.000012  0.003546)
 62:   3229.89   0.000164    0.83  0.000016  (-0.000668  0.003927 -0.000000)

* The epsilon (eps) is given for a Dirac delta lineshape.
** The dipole moment derivative (T) already includes vibrational overlap.

The first frequency considered to be a vibration is 6
The total number of vibrations considered is 57


--------------------------
THERMOCHEMISTRY AT 298.15K
--------------------------

Temperature         ... 298.15 K
Pressure            ... 1.00 atm
Total Mass          ... 113.18 AMU

Throughout the following assumptions are being made:
  (1) The electronic state is orbitally nondegenerate
  (2) There are no thermally accessible electronically excited states
  (3) Hindered rotations indicated by low frequency modes are not
      treated as such but are treated as vibrations and this may
      cause some error
  (4) All equations used are the standard statistical mechanics
      equations for an ideal gas
  (5) All vibrations are strictly harmonic

freq.     121.22  E(vib)   ...       0.44 
freq.     159.01  E(vib)   ...       0.39 
freq.     181.24  E(vib)   ...       0.37 
freq.     208.02  E(vib)   ...       0.34 
freq.     274.21  E(vib)   ...       0.28 
freq.     311.71  E(vib)   ...       0.25 
freq.     317.37  E(vib)   ...       0.25 
freq.     423.72  E(vib)   ...       0.18 
freq.     468.12  E(vib)   ...       0.16 
freq.     473.16  E(vib)   ...       0.15 
freq.     533.06  E(vib)   ...       0.13 
freq.     622.69  E(vib)   ...       0.09 
freq.     805.59  E(vib)   ...       0.05 
freq.     881.54  E(vib)   ...       0.04 
freq.     914.52  E(vib)   ...       0.03 
freq.     942.04  E(vib)   ...       0.03 
freq.    1009.53  E(vib)   ...       0.02 
freq.    1044.35  E(vib)   ...       0.02 
freq.    1074.14  E(vib)   ...       0.02 
freq.    1116.48  E(vib)   ...       0.01 
freq.    1126.14  E(vib)   ...       0.01 
freq.    1136.43  E(vib)   ...       0.01 
freq.    1140.93  E(vib)   ...       0.01 
freq.    1161.99  E(vib)   ...       0.01 
freq.    1203.42  E(vib)   ...       0.01 
freq.    1243.34  E(vib)   ...       0.01 
freq.    1280.02  E(vib)   ...       0.01 
freq.    1285.33  E(vib)   ...       0.01 
freq.    1339.69  E(vib)   ...       0.01 
freq.    1357.64  E(vib)   ...       0.01 
freq.    1412.15  E(vib)   ...       0.00 
freq.    1414.56  E(vib)   ...       0.00 
freq.    1429.48  E(vib)   ...       0.00 
freq.    1455.27  E(vib)   ...       0.00 
freq.    1460.34  E(vib)   ...       0.00 
freq.    1462.03  E(vib)   ...       0.00 
freq.    1463.54  E(vib)   ...       0.00 
freq.    1464.25  E(vib)   ...       0.00 
freq.    1480.05  E(vib)   ...       0.00 
freq.    1481.43  E(vib)   ...       0.00 
freq.    1492.28  E(vib)   ...       0.00 
freq.    1496.65  E(vib)   ...       0.00 
freq.    1587.62  E(vib)   ...       0.00 
freq.    1812.99  E(vib)   ...       0.00 
freq.    3082.24  E(vib)   ...       0.00 
freq.    3082.59  E(vib)   ...       0.00 
freq.    3087.68  E(vib)   ...       0.00 
freq.    3090.07  E(vib)   ...       0.00 
freq.    3106.13  E(vib)   ...       0.00 
freq.    3165.88  E(vib)   ...       0.00 
freq.    3167.11  E(vib)   ...       0.00 
freq.    3183.38  E(vib)   ...       0.00 
freq.    3188.81  E(vib)   ...       0.00 
freq.    3188.90  E(vib)   ...       0.00 
freq.    3213.18  E(vib)   ...       0.00 
freq.    3213.26  E(vib)   ...       0.00 
freq.    3229.89  E(vib)   ...       0.00 

------------
INNER ENERGY
------------

The inner energy is: U= E(el) + E(ZPE) + E(vib) + E(rot) + E(trans)
    E(el)   - is the total energy from the electronic structure calculation
              = E(kin-el) + E(nuc-el) + E(el-el) + E(nuc-nuc)
    E(ZPE)  - the the zero temperature vibrational energy from the frequency calculation
    E(vib)  - the the finite temperature correction to E(ZPE) due to population
              of excited vibrational states
    E(rot)  - is the rotational thermal energy
    E(trans)- is the translational thermal energy

Summary of contributions to the inner energy U:
Electronic energy                ...   -345.42814465 Eh
Zero point energy                ...      0.19607824 Eh     123.04 kcal/mol
Thermal vibrational correction   ...      0.00543117 Eh       3.41 kcal/mol
Thermal rotational correction    ...      0.00141627 Eh       0.89 kcal/mol
Thermal translational correction ...      0.00141627 Eh       0.89 kcal/mol
-----------------------------------------------------------------------
Total thermal energy                   -345.22380270 Eh


Summary of corrections to the electronic energy:
(perhaps to be used in another calculation)
Total thermal correction                  0.00826371 Eh       5.19 kcal/mol
Non-thermal (ZPE) correction              0.19607824 Eh     123.04 kcal/mol
-----------------------------------------------------------------------
Total correction                          0.20434194 Eh     128.23 kcal/mol


--------
ENTHALPY
--------

The enthalpy is H = U + kB*T
                kB is Boltzmann's constant
Total free energy                 ...   -345.22380270 Eh 
Thermal Enthalpy correction       ...      0.00094421 Eh       0.59 kcal/mol
-----------------------------------------------------------------------
Total Enthalpy                    ...   -345.22285849 Eh


Note: Rotational entropy computed according to Herzberg 
Infrared and Raman Spectra, Chapter V,1, Van Nostrand Reinhold, 1945 
Point Group:  Cs, Symmetry Number:   1  
Rotational constants in cm-1:     0.107155     0.058820     0.040027 

Vibrational entropy computed according to the QRRHO of S. Grimme
Chem.Eur.J. 2012 18 9955


-------
ENTROPY
-------

The entropy contributions are T*S = T*(S(el)+S(vib)+S(rot)+S(trans))
     S(el)   - electronic entropy
     S(vib)  - vibrational entropy
     S(rot)  - rotational entropy
     S(trans)- translational entropy
The entropies will be listed as multiplied by the temperature to get
units of energy

Electronic entropy                ...      0.00000000 Eh      0.00 kcal/mol
Vibrational entropy               ...      0.00899934 Eh      5.65 kcal/mol
Rotational entropy                ...      0.01342205 Eh      8.42 kcal/mol
Translational entropy             ...      0.01904664 Eh     11.95 kcal/mol
-----------------------------------------------------------------------
Final entropy term                ...      0.04146803 Eh     26.02 kcal/mol

In case the symmetry of your molecule has not been determined correctly
or in case you have a reason to use a different symmetry number we print 
out the resulting rotational entropy values for sn=1,12 :
 --------------------------------------------------------
|  sn= 1 | S(rot)=       0.01342205 Eh      8.42 kcal/mol|
|  sn= 2 | S(rot)=       0.01276759 Eh      8.01 kcal/mol|
|  sn= 3 | S(rot)=       0.01238476 Eh      7.77 kcal/mol|
|  sn= 4 | S(rot)=       0.01211314 Eh      7.60 kcal/mol|
|  sn= 5 | S(rot)=       0.01190245 Eh      7.47 kcal/mol|
|  sn= 6 | S(rot)=       0.01173031 Eh      7.36 kcal/mol|
|  sn= 7 | S(rot)=       0.01158476 Eh      7.27 kcal/mol|
|  sn= 8 | S(rot)=       0.01145868 Eh      7.19 kcal/mol|
|  sn= 9 | S(rot)=       0.01134747 Eh      7.12 kcal/mol|
|  sn=10 | S(rot)=       0.01124799 Eh      7.06 kcal/mol|
|  sn=11 | S(rot)=       0.01115800 Eh      7.00 kcal/mol|
|  sn=12 | S(rot)=       0.01107585 Eh      6.95 kcal/mol|
 --------------------------------------------------------


-------------------
GIBBS FREE ENERGY
-------------------

The Gibbs free energy is G = H - T*S

Total enthalpy                    ...   -345.22285849 Eh 
Total entropy correction          ...     -0.04146803 Eh    -26.02 kcal/mol
-----------------------------------------------------------------------
Final Gibbs free energy         ...   -345.26432653 Eh

For completeness - the Gibbs free energy minus the electronic energy
G-E(el)                           ...      0.16381812 Eh    102.80 kcal/mol


Timings for individual modules:

Sum of individual times         ...      383.342 sec (=   6.389 min)
GTO integral calculation        ...        4.169 sec (=   0.069 min)   1.1 %
SCF iterations                  ...      168.737 sec (=   2.812 min)  44.0 %
SCF Gradient evaluation         ...       45.753 sec (=   0.763 min)  11.9 %
Geometry relaxation             ...        0.264 sec (=   0.004 min)   0.1 %
Analytical frequency calculation...      164.419 sec (=   2.740 min)  42.9 %
                             ****ORCA TERMINATED NORMALLY****
TOTAL RUN TIME: 0 days 0 hours 6 minutes 25 seconds 346 msec
