
                                 *****************
                                 * O   R   C   A *
                                 *****************

                                            #,                                       
                                            ###                                      
                                            ####                                     
                                            #####                                    
                                            ######                                   
                                           ########,                                 
                                     ,,################,,,,,                         
                               ,,#################################,,                 
                          ,,##########################################,,             
                       ,#########################################, ''#####,          
                    ,#############################################,,   '####,        
                  ,##################################################,,,,####,       
                ,###########''''           ''''###############################       
              ,#####''   ,,,,##########,,,,          '''####'''          '####       
            ,##' ,,,,###########################,,,                        '##       
           ' ,,###''''                  '''############,,,                           
         ,,##''                                '''############,,,,        ,,,,,,###''
      ,#''                                            '''#######################'''  
     '                                                          ''''####''''         
             ,#######,   #######,   ,#######,      ##                                
            ,#'     '#,  ##    ##  ,#'     '#,    #''#        ######   ,####,        
            ##       ##  ##   ,#'  ##            #'  '#       #        #'  '#        
            ##       ##  #######   ##           ,######,      #####,   #    #        
            '#,     ,#'  ##    ##  '#,     ,#' ,#      #,         ##   #,  ,#        
             '#######'   ##     ##  '#######'  #'      '#     #####' # '####'        



                  #######################################################
                  #                        -***-                        #
                  #          Department of theory and spectroscopy      #
                  #    Directorship and core code : Frank Neese         #
                  #        Max Planck Institute fuer Kohlenforschung    #
                  #                Kaiser Wilhelm Platz 1               #
                  #                 D-45470 Muelheim/Ruhr               #
                  #                      Germany                        #
                  #                                                     #
                  #                  All rights reserved                #
                  #                        -***-                        #
                  #######################################################


                         Program Version 5.0.4 -  RELEASE  -


 With contributions from (in alphabetic order):
   Daniel Aravena         : Magnetic Suceptibility
   Michael Atanasov       : Ab Initio Ligand Field Theory (pilot matlab implementation)
   Alexander A. Auer      : GIAO ZORA, VPT2 properties, NMR spectrum
   Ute Becker             : Parallelization
   Giovanni Bistoni       : ED, misc. LED, open-shell LED, HFLD
   Martin Brehm           : Molecular dynamics
   Dmytro Bykov           : SCF Hessian
   Vijay G. Chilkuri      : MRCI spin determinant printing, contributions to CSF-ICE
   Dipayan Datta          : RHF DLPNO-CCSD density
   Achintya Kumar Dutta   : EOM-CC, STEOM-CC
   Dmitry Ganyushin       : Spin-Orbit,Spin-Spin,Magnetic field MRCI
   Miquel Garcia          : C-PCM and meta-GGA Hessian, CC/C-PCM, Gaussian charge scheme
   Yang Guo               : DLPNO-NEVPT2, F12-NEVPT2, CIM, IAO-localization
   Andreas Hansen         : Spin unrestricted coupled pair/coupled cluster methods
   Benjamin Helmich-Paris : MC-RPA, TRAH-SCF, COSX integrals
   Lee Huntington         : MR-EOM, pCC
   Robert Izsak           : Overlap fitted RIJCOSX, COSX-SCS-MP3, EOM
   Marcus Kettner         : VPT2
   Christian Kollmar      : KDIIS, OOCD, Brueckner-CCSD(T), CCSD density, CASPT2, CASPT2-K
   Simone Kossmann        : Meta GGA functionals, TD-DFT gradient, OOMP2, MP2 Hessian
   Martin Krupicka        : Initial AUTO-CI
   Lucas Lang             : DCDCAS
   Marvin Lechner         : AUTO-CI (C++ implementation), FIC-MRCC
   Dagmar Lenk            : GEPOL surface, SMD
   Dimitrios Liakos       : Extrapolation schemes; Compound Job, initial MDCI parallelization
   Dimitrios Manganas     : Further ROCIS development; embedding schemes
   Dimitrios Pantazis     : SARC Basis sets
   Anastasios Papadopoulos: AUTO-CI, single reference methods and gradients
   Taras Petrenko         : DFT Hessian,TD-DFT gradient, ASA, ECA, R-Raman, ABS, FL, XAS/XES, NRVS
   Peter Pinski           : DLPNO-MP2, DLPNO-MP2 Gradient
   Christoph Reimann      : Effective Core Potentials
   Marius Retegan         : Local ZFS, SOC
   Christoph Riplinger    : Optimizer, TS searches, QM/MM, DLPNO-CCSD(T), (RO)-DLPNO pert. Triples
   Tobias Risthaus        : Range-separated hybrids, TD-DFT gradient, RPA, STAB
   Michael Roemelt        : Original ROCIS implementation
   Masaaki Saitow         : Open-shell DLPNO-CCSD energy and density
   Barbara Sandhoefer     : DKH picture change effects
   Avijit Sen             : IP-ROCIS
   Kantharuban Sivalingam : CASSCF convergence, NEVPT2, FIC-MRCI
   Bernardo de Souza      : ESD, SOC TD-DFT
   Georgi Stoychev        : AutoAux, RI-MP2 NMR, DLPNO-MP2 response
   Willem Van den Heuvel  : Paramagnetic NMR
   Boris Wezisla          : Elementary symmetry handling
   Frank Wennmohs         : Technical directorship


 We gratefully acknowledge several colleagues who have allowed us to
 interface, adapt or use parts of their codes:
   Stefan Grimme, W. Hujo, H. Kruse, P. Pracht,  : VdW corrections, initial TS optimization,
                  C. Bannwarth, S. Ehlert          DFT functionals, gCP, sTDA/sTD-DF
   Ed Valeev, F. Pavosevic, A. Kumar             : LibInt (2-el integral package), F12 methods
   Garnet Chan, S. Sharma, J. Yang, R. Olivares  : DMRG
   Ulf Ekstrom                                   : XCFun DFT Library
   Mihaly Kallay                                 : mrcc  (arbitrary order and MRCC methods)
   Jiri Pittner, Ondrej Demel                    : Mk-CCSD
   Frank Weinhold                                : gennbo (NPA and NBO analysis)
   Christopher J. Cramer and Donald G. Truhlar   : smd solvation model
   Lars Goerigk                                  : TD-DFT with DH, B97 family of functionals
   V. Asgeirsson, H. Jonsson                     : NEB implementation
   FAccTs GmbH                                   : IRC, NEB, NEB-TS, DLPNO-Multilevel, CI-OPT
                                                   MM, QMMM, 2- and 3-layer-ONIOM, Crystal-QMMM,
                                                   LR-CPCM, SF, NACMEs, symmetry and pop. for TD-DFT,
                                                   nearIR, NL-DFT gradient (VV10), updates on ESD,
                                                   ML-optimized integration grids
   S Lehtola, MJT Oliveira, MAL Marques          : LibXC Library
   Liviu Ungur et al                             : ANISO software


 Your calculation uses the libint2 library for the computation of 2-el integrals
 For citations please refer to: http://libint.valeyev.net

 Your ORCA version has been built with support for libXC version: 5.1.0
 For citations please refer to: https://tddft.org/programs/libxc/

 This ORCA versions uses:
   CBLAS   interface :  Fast vector & matrix operations
   LAPACKE interface :  Fast linear algebra routines
   SCALAPACK package :  Parallel linear algebra routines
   Shared memory     :  Shared parallel matrices
   BLAS/LAPACK       :  OpenBLAS 0.3.15  USE64BITINT DYNAMIC_ARCH NO_AFFINITY SkylakeX SINGLE_THREADED
        Core in use  :  SkylakeX
   Copyright (c) 2011-2014, The OpenBLAS Project




***************************************
The coordinates will be read from file: butylamine.xyz
***************************************


Your calculation utilizes the atom-pairwise dispersion correction
based on tight binding partial charges (D4)
Cite in your paper:
E.Caldeweyher, C.Bannwarth, S.Grimme, J.Chem.Phys., (2017), 147, 034112.
E.Caldeweyher, S.Ehlert, A.Hansen, H.Neugebauer, S.Grimme, J.Chem.Phys., (2018), in progress.
   

XCFun DFT library Copyright 2009-2010 Ulf Ekstrom and contributors.
See http://admol.org/xcfun for more information.
This is free software; see the source code for copying conditions.
There is ABSOLUTELY NO WARRANTY; not even for MERCHANTABILITY or FITNESS FOR A PARTICULAR PURPOSE.
For details see the documentation.
Scientific users of this library should cite U. Ekstrom, L. Visscher, R. Bast, A. J. Thorvaldsen and K. Ruud;
J.Chem.Theor.Comp. 2010, DOI: 10.1021/ct100117s
XCFun Version 0.99 

================================================================================

----- Orbital basis set information -----
Your calculation utilizes the basis: def2-TZVP
   F. Weigend and R. Ahlrichs, Phys. Chem. Chem. Phys. 7, 3297 (2005).

----- AuxJ basis set information -----
Your calculation utilizes the auxiliary basis: def2/J
   F. Weigend, Phys. Chem. Chem. Phys. 8, 1057 (2006).

================================================================================
                                        WARNINGS
                       Please study these warnings very carefully!
================================================================================


WARNING: Geometry Optimization
  ===> : Switching off AutoStart
         For restart on a previous wavefunction, please use MOREAD

INFO   : the flag for use of the SHARK integral package has been found!

================================================================================
                                       INPUT FILE
================================================================================
NAME = butylamine.inp
|  1> # ORCA 5.0.4 - /users/bwb16179/postgrad/2024_06/pKa_Reviewer_Comments/Gas_Z=1/4_prot.inp # write input file
|  2> # Basic Mode
|  3> #
|  4> ! Opt Freq wB97X Def2-TZVP D4 SlowConv TightSCF Defgrid2 Def2/J RIJCOSX 
|  5> 
|  6> %PAL NPROCS 16 END
|  7> 
|  8> %maxcore 4500
|  9> 
| 10> %geom
| 11> Maxiter 150
| 12> END
| 13> 
| 14> * xyzfile 1 1 butylamine.xyz
| 15> 
| 16>                          ****END OF INPUT****
================================================================================

                       *****************************
                       * Geometry Optimization Run *
                       *****************************

Geometry optimization settings:
Update method            Update   .... BFGS
Choice of coordinates    CoordSys .... Z-matrix Internals
Initial Hessian          InHess   .... Almoef's Model

Convergence Tolerances:
Energy Change            TolE     ....  5.0000e-06 Eh
Max. Gradient            TolMAXG  ....  3.0000e-04 Eh/bohr
RMS Gradient             TolRMSG  ....  1.0000e-04 Eh/bohr
Max. Displacement        TolMAXD  ....  4.0000e-03 bohr
RMS Displacement         TolRMSD  ....  2.0000e-03 bohr
Strict Convergence                ....  False
------------------------------------------------------------------------------
                        ORCA OPTIMIZATION COORDINATE SETUP
------------------------------------------------------------------------------

The optimization will be done in new redundant internal coordinates
Making redundant internal coordinates   ...  (new redundants) done
Evaluating the initial hessian          ...  (Almloef) done
Evaluating the coordinates              ...  done
Calculating the B-matrix                .... done
Calculating the G-matrix                .... done
Diagonalizing the G-matrix              .... done
Small eigenvalue found = 2.404e-02
The first mode is                       ....   37
The number of degrees of freedom        ....   45

    -----------------------------------------------------------------
                    Redundant Internal Coordinates


    -----------------------------------------------------------------
         Definition                    Initial Value    Approx d2E/dq
    -----------------------------------------------------------------
      1. B(C   1,C   0)                  1.5259         0.379190   
      2. B(H   2,C   0)                  1.1104         0.334107   
      3. B(H   3,C   0)                  1.1109         0.333479   
      4. B(H   4,C   0)                  1.1109         0.333491   
      5. B(C   5,C   1)                  1.5329         0.369599   
      6. B(H   6,C   1)                  1.1119         0.332240   
      7. B(H   7,C   1)                  1.1119         0.332225   
      8. B(C   8,C   5)                  1.5344         0.367594   
      9. B(H   9,C   5)                  1.1123         0.331810   
     10. B(H  10,C   5)                  1.1123         0.331811   
     11. B(N  11,C   8)                  1.4625         0.428683   
     12. B(H  12,C   8)                  1.1129         0.331009   
     13. B(H  13,C   8)                  1.1129         0.331021   
     14. B(H  14,N  11)                  1.0460         0.379138   
     15. B(H  15,N  11)                  1.0456         0.379679   
     16. B(H  16,N  11)                  1.0460         0.379124   
     17. A(H   3,C   0,H   4)          109.1896         0.283944   
     18. A(C   1,C   0,H   4)          110.3418         0.321048   
     19. A(C   1,C   0,H   2)          109.5892         0.321145   
     20. A(H   2,C   0,H   4)          108.6702         0.284027   
     21. A(H   2,C   0,H   3)          108.6694         0.284026   
     22. A(C   1,C   0,H   3)          110.3409         0.321046   
     23. A(C   0,C   1,C   5)          111.1646         0.363614   
     24. A(H   6,C   1,H   7)          108.7188         0.283612   
     25. A(C   5,C   1,H   7)          109.6407         0.319508   
     26. A(C   0,C   1,H   7)          108.8150         0.320848   
     27. A(C   5,C   1,H   6)          109.6411         0.319510   
     28. A(C   0,C   1,H   6)          108.8157         0.320850   
     29. A(C   1,C   5,H   9)          109.3275         0.319442   
     30. A(C   1,C   5,C   8)          111.0316         0.361690   
     31. A(C   8,C   5,H   9)          109.1818         0.319159   
     32. A(H   9,C   5,H  10)          108.7547         0.283501   
     33. A(C   8,C   5,H  10)          109.1823         0.319159   
     34. A(C   1,C   5,H  10)          109.3270         0.319443   
     35. A(H  12,C   8,H  13)          108.3970         0.283289   
     36. A(N  11,C   8,H  13)          109.2045         0.325220   
     37. A(C   5,C   8,H  13)          109.5228         0.319035   
     38. A(N  11,C   8,H  12)          109.2040         0.325218   
     39. A(C   5,C   8,H  12)          109.5219         0.319033   
     40. A(C   5,C   8,N  11)          110.9465         0.368678   
     41. A(H  15,N  11,H  16)          108.8685         0.290878   
     42. A(H  14,N  11,H  16)          109.7194         0.290813   
     43. A(C   8,N  11,H  16)          110.1172         0.329749   
     44. A(H  14,N  11,H  15)          108.8692         0.290880   
     45. A(C   8,N  11,H  15)          109.1190         0.329828   
     46. A(C   8,N  11,H  14)          110.1177         0.329751   
     47. D(H   6,C   1,C   0,H   4)    178.7805         0.011462   
     48. D(H   7,C   1,C   0,H   4)     60.4683         0.011462   
     49. D(H   7,C   1,C   0,H   3)   -178.7804         0.011462   
     50. D(H   6,C   1,C   0,H   2)     59.1554         0.011462   
     51. D(C   5,C   1,C   0,H   4)    -60.3751         0.011462   
     52. D(H   6,C   1,C   0,H   3)    -60.4682         0.011462   
     53. D(C   5,C   1,C   0,H   3)     60.3762         0.011462   
     54. D(C   5,C   1,C   0,H   2)    179.9998         0.011462   
     55. D(H   7,C   1,C   0,H   2)    -59.1568         0.011462   
     56. D(H   9,C   5,C   1,H   6)    179.8332         0.010922   
     57. D(C   8,C   5,C   1,H   7)     59.6429         0.010922   
     58. D(C   8,C   5,C   1,H   6)    -59.6431         0.010922   
     59. D(C   8,C   5,C   1,C   0)    179.9993         0.010922   
     60. D(H   9,C   5,C   1,H   7)    -60.8808         0.010922   
     61. D(H  10,C   5,C   1,H   7)   -179.8329         0.010922   
     62. D(H  10,C   5,C   1,H   6)     60.8811         0.010922   
     63. D(H  10,C   5,C   1,C   0)    -59.4765         0.010922   
     64. D(H   9,C   5,C   1,C   0)     59.4756         0.010922   
     65. D(H  13,C   8,C   5,H   9)     61.2350         0.010811   
     66. D(H  13,C   8,C   5,C   1)    -59.3749         0.010811   
     67. D(H  12,C   8,C   5,H  10)    -61.2348         0.010811   
     68. D(H  12,C   8,C   5,H   9)    179.9849         0.010811   
     69. D(H  12,C   8,C   5,C   1)     59.3749         0.010811   
     70. D(N  11,C   8,C   5,H  10)     59.3897         0.010811   
     71. D(N  11,C   8,C   5,H   9)    -59.3906         0.010811   
     72. D(H  13,C   8,C   5,H  10)   -179.9846         0.010811   
     73. D(N  11,C   8,C   5,C   1)    179.9994         0.010811   
     74. D(H  15,N  11,C   8,C   5)   -179.9999         0.016788   
     75. D(H  14,N  11,C   8,H  13)    178.6258         0.016788   
     76. D(H  14,N  11,C   8,H  12)     60.2524         0.016788   
     77. D(H  14,N  11,C   8,C   5)    -60.5602         0.016788   
     78. D(H  16,N  11,C   8,H  13)    -60.2526         0.016788   
     79. D(H  16,N  11,C   8,H  12)   -178.6260         0.016788   
     80. D(H  16,N  11,C   8,C   5)     60.5614         0.016788   
     81. D(H  15,N  11,C   8,H  13)     59.1861         0.016788   
     82. D(H  15,N  11,C   8,H  12)    -59.1874         0.016788   
    -----------------------------------------------------------------

Number of atoms                         .... 17
Number of degrees of freedom            .... 82

         *************************************************************
         *                GEOMETRY OPTIMIZATION CYCLE   1            *
         *************************************************************
---------------------------------
CARTESIAN COORDINATES (ANGSTROEM)
---------------------------------
  C     -3.910850    0.949360   -0.046960
  C     -2.716600    0.002930    0.033820
  H     -4.852750    0.369320    0.049750
  H     -3.918230    1.479320   -1.023280
  H     -3.867550    1.696680    0.773850
  C     -1.394500    0.767800   -0.095970
  H     -2.796790   -0.746260   -0.783890
  H     -2.746210   -0.529340    1.009630
  C     -0.195850   -0.186630   -0.014330
  H     -1.321080    1.517530    0.722360
  H     -1.371690    1.300490   -1.072120
  N      1.064460    0.544990   -0.138370
  H     -0.263840   -0.939760   -0.830900
  H     -0.213310   -0.723080    0.960610
  H      1.105980    1.036250   -1.060870
  H      1.860050   -0.130860   -0.079060
  H      1.153860    1.241580    0.636780

----------------------------
CARTESIAN COORDINATES (A.U.)
----------------------------
  NO LB      ZA    FRAG     MASS         X           Y           Z
   0 C     6.0000    0    12.011   -7.390435    1.794030   -0.088742
   1 C     6.0000    0    12.011   -5.133630    0.005537    0.063911
   2 H     1.0000    0     1.008   -9.170368    0.697914    0.094014
   3 H     1.0000    0     1.008   -7.404382    2.795510   -1.933719
   4 H     1.0000    0     1.008   -7.308610    3.206261    1.462365
   5 C     6.0000    0    12.011   -2.635223    1.450932   -0.181357
   6 H     1.0000    0     1.008   -5.285167   -1.410227   -1.481337
   7 H     1.0000    0     1.008   -5.189585   -1.000308    1.907924
   8 C     6.0000    0    12.011   -0.370103   -0.352680   -0.027080
   9 H     1.0000    0     1.008   -2.496479    2.867716    1.365063
  10 H     1.0000    0     1.008   -2.592118    2.457570   -2.026013
  11 N     7.0000    0    14.007    2.011538    1.029882   -0.261481
  12 H     1.0000    0     1.008   -0.498585   -1.775889   -1.570173
  13 H     1.0000    0     1.008   -0.403097   -1.366423    1.815290
  14 H     1.0000    0     1.008    2.089999    1.958229   -2.004754
  15 H     1.0000    0     1.008    3.514985   -0.247290   -0.149402
  16 H     1.0000    0     1.008    2.180479    2.346246    1.203340

--------------------------------
INTERNAL COORDINATES (ANGSTROEM)
--------------------------------
 C      0   0   0     0.000000000000     0.00000000     0.00000000
 C      1   0   0     1.525938470516     0.00000000     0.00000000
 H      1   2   0     1.110394000209   109.58915363     0.00000000
 H      1   2   3     1.110906300459   110.34087976   240.37642245
 H      1   2   3     1.110896542663   110.34176109   119.62509271
 C      2   1   3     1.532912251566   111.16455672   179.99978072
 H      2   1   3     1.111919842570   108.81567173    59.15536206
 H      2   1   3     1.111932219652   108.81495908   300.84316373
 C      6   2   1     1.534393540458   111.03158395   179.99934202
 H      6   2   1     1.112272250036   109.32746349    59.47557840
 H      6   2   1     1.112271439308   109.32700427   300.52351124
 N      9   6   2     1.462544030824   110.94651345   179.99942273
 H      9   6   2     1.112930367049   109.52192218    59.37494098
 H      9   6   2     1.112920238696   109.52284639   300.62510849
 H     12   9   6     1.045976361110   110.11773504   299.43982712
 H     12   9   6     1.045588038713   109.11903968   180.00006653
 H     12   9   6     1.045986381651   110.11716189    60.56143764

---------------------------
INTERNAL COORDINATES (A.U.)
---------------------------
 C      0   0   0     0.000000000000     0.00000000     0.00000000
 C      1   0   0     2.883605806489     0.00000000     0.00000000
 H      1   2   0     2.098340561144   109.58915363     0.00000000
 H      1   2   3     2.099308668316   110.34087976   240.37642245
 H      1   2   3     2.099290228753   110.34176109   119.62509271
 C      2   1   3     2.896784342792   111.16455672   179.99978072
 H      2   1   3     2.101223985329   108.81567173    59.15536206
 H      2   1   3     2.101247374625   108.81495908   300.84316373
 C      6   2   1     2.899583573124   111.03158395   179.99934202
 H      6   2   1     2.101889938928   109.32746349    59.47557840
 H      6   2   1     2.101888406874   109.32700427   300.52351124
 N      9   6   2     2.763807677059   110.94651345   179.99942273
 H      9   6   2     2.103133599847   109.52192218    59.37494098
 H      9   6   2     2.103114460034   109.52284639   300.62510849
 H     12   9   6     1.976608865053   110.11773504   299.43982712
 H     12   9   6     1.975875042072   109.11903968   180.00006653
 H     12   9   6     1.976627801132   110.11716189    60.56143764

---------------------
BASIS SET INFORMATION
---------------------
There are 3 groups of distinct atoms

 Group   1 Type C   : 11s6p2d1f contracted to 5s3p2d1f pattern {62111/411/11/1}
 Group   2 Type H   : 5s1p contracted to 3s1p pattern {311/1}
 Group   3 Type N   : 11s6p2d1f contracted to 5s3p2d1f pattern {62111/411/11/1}

Atom   0C    basis set group =>   1
Atom   1C    basis set group =>   1
Atom   2H    basis set group =>   2
Atom   3H    basis set group =>   2
Atom   4H    basis set group =>   2
Atom   5C    basis set group =>   1
Atom   6H    basis set group =>   2
Atom   7H    basis set group =>   2
Atom   8C    basis set group =>   1
Atom   9H    basis set group =>   2
Atom  10H    basis set group =>   2
Atom  11N    basis set group =>   3
Atom  12H    basis set group =>   2
Atom  13H    basis set group =>   2
Atom  14H    basis set group =>   2
Atom  15H    basis set group =>   2
Atom  16H    basis set group =>   2
---------------------------------
AUXILIARY/J BASIS SET INFORMATION
---------------------------------
There are 3 groups of distinct atoms

 Group   1 Type C   : 12s5p4d2f1g contracted to 6s4p3d1f1g pattern {711111/2111/211/2/1}
 Group   2 Type H   : 5s2p1d contracted to 3s1p1d pattern {311/2/1}
 Group   3 Type N   : 12s5p4d2f1g contracted to 6s4p3d1f1g pattern {711111/2111/211/2/1}

Atom   0C    basis set group =>   1
Atom   1C    basis set group =>   1
Atom   2H    basis set group =>   2
Atom   3H    basis set group =>   2
Atom   4H    basis set group =>   2
Atom   5C    basis set group =>   1
Atom   6H    basis set group =>   2
Atom   7H    basis set group =>   2
Atom   8C    basis set group =>   1
Atom   9H    basis set group =>   2
Atom  10H    basis set group =>   2
Atom  11N    basis set group =>   3
Atom  12H    basis set group =>   2
Atom  13H    basis set group =>   2
Atom  14H    basis set group =>   2
Atom  15H    basis set group =>   2
Atom  16H    basis set group =>   2


           ************************************************************
           *        Program running with 16 parallel MPI-processes    *
           *              working on a common directory               *
           ************************************************************
------------------------------------------------------------------------------
                           ORCA GTO INTEGRAL CALCULATION
                           -- RI-GTO INTEGRALS CHOSEN --
------------------------------------------------------------------------------
------------------------------------------------------------------------------
                   ___                                                        
                  /   \      - P O W E R E D   B Y -                         
                 /     \                                                     
                 |  |  |   _    _      __       _____    __    __             
                 |  |  |  | |  | |    /  \     |  _  \  |  |  /  |          
                  \  \/   | |  | |   /    \    | | | |  |  | /  /          
                 / \  \   | |__| |  /  /\  \   | |_| |  |  |/  /          
                |  |  |   |  __  | /  /__\  \  |    /   |      \           
                |  |  |   | |  | | |   __   |  |    \   |  |\   \          
                \     /   | |  | | |  |  |  |  | |\  \  |  | \   \       
                 \___/    |_|  |_| |__|  |__|  |_| \__\ |__|  \__/        
                                                                              
                      - O R C A' S   B I G   F R I E N D -                    
                                      &                                       
                       - I N T E G R A L  F E E D E R -                       
                                                                              
 v1 FN, 2020, v2 2021                                                         
------------------------------------------------------------------------------


Reading SHARK input file butylamine.SHARKINP.tmp ... ok
----------------------
SHARK INTEGRAL PACKAGE
----------------------

Number of atoms                             ...     17
Number of basis functions                   ...    227
Number of shells                            ...    103
Maximum angular momentum                    ...      3
Integral batch strategy                     ... SHARK/LIBINT Hybrid
RI-J (if used) integral strategy            ... SPLIT-RIJ (Revised 2003 algorithm where possible)
Printlevel                                  ...      1
Contraction scheme used                     ... SEGMENTED contraction
Coulomb Range Separation                    ... NOT USED
Exchange Range Separation                   ... Long Range
   Mu parameter                             ...  0.300000
   Scaling (regular/separated)              ...  0.157706  0.842294
Finite Nucleus Model                        ... NOT USED
Auxiliary Coulomb fitting basis             ... AVAILABLE
   # of basis functions in Aux-J            ...    377
   # of shells in Aux-J                     ...    135
   Maximum angular momentum in Aux-J        ...      4
Auxiliary J/K fitting basis                 ... NOT available
Auxiliary Correlation fitting basis         ... NOT available
Auxiliary 'external' fitting basis          ... NOT available
Integral threshold                          ...     2.500000e-11
Primitive cut-off                           ...     2.500000e-12
Primitive pair pre-selection threshold      ...     2.500000e-12

Calculating pre-screening integrals         ... done (  0.0 sec) Dimension = 103
Organizing shell pair data                  ... done (  0.1 sec)
Shell pair information
Total number of shell pairs                 ...      5356
Shell pairs after pre-screening             ...      4961
Total number of primitive shell pairs       ...     15024
Primitive shell pairs kept                  ...     11064
          la=0 lb=0:   1743 shell pairs
          la=1 lb=0:   1516 shell pairs
          la=1 lb=1:    352 shell pairs
          la=2 lb=0:    571 shell pairs
          la=2 lb=1:    257 shell pairs
          la=2 lb=2:     53 shell pairs
          la=3 lb=0:    280 shell pairs
          la=3 lb=1:    127 shell pairs
          la=3 lb=2:     48 shell pairs
          la=3 lb=3:     14 shell pairs

Calculating one electron integrals          ... done (  0.0 sec)
Calculating RI/J V-Matrix + Cholesky decomp.... done (  0.0 sec)
Calculating Nuclear repulsion               ... done (  0.0 sec) ENN=    194.639803567766 Eh

SHARK setup successfully completed in   0.3 seconds

Maximum memory used throughout the entire GTOINT-calculation: 18.3 MB


           ************************************************************
           *        Program running with 16 parallel MPI-processes    *
           *              working on a common directory               *
           ************************************************************
-------------------------------------------------------------------------------
                                 ORCA SCF
-------------------------------------------------------------------------------

------------
SCF SETTINGS
------------
Hamiltonian:
 Density Functional     Method          .... DFT(GTOs)
 Exchange Functional    Exchange        .... WB97X
 Correlation Functional Correlation     .... WB97X
 Gradients option       PostSCFGGA      .... off
 Hybrid DFT is turned on
   Fraction HF Exchange ScalHFX         ....  0.157706
   Scaling of DF-GGA-X  ScalDFX         ....  0.000000
   Scaling of DF-GGA-C  ScalDFC         ....  1.000000
   Scaling of DF-LDA-C  ScalLDAC        ....  1.000000
   Perturbative correction              ....  0.000000
   Density functional embedding theory  .... OFF
 Long-range corrected/Screened/Range-Separated Hybrid DFT is turned on
   Amount of maximum screened exact exchange              ....  0.842294
   Range separation parameter mu (erf(mu*r12)/r12)        ....  0.300000
 RI-approximation to the Coulomb term is turned on
   Number of AuxJ basis functions       .... 377
   RIJ-COSX (HFX calculated with COS-X)).... on


General Settings:
 Integral files         IntName         .... butylamine
 Hartree-Fock type      HFTyp           .... RHF
 Total Charge           Charge          ....    1
 Multiplicity           Mult            ....    1
 Number of Electrons    NEL             ....   42
 Basis Dimension        Dim             ....  227
 Nuclear Repulsion      ENuc            ....    194.6398035678 Eh

Convergence Acceleration:
 DIIS                   CNVDIIS         .... on
   Start iteration      DIISMaxIt       ....     0
   Startup error        DIISStart       ....  0.200000
   # of expansion vecs  DIISMaxEq       ....     5
   Bias factor          DIISBfac        ....   1.050
   Max. coefficient     DIISMaxC        ....  10.000
 Trust-Rad. Augm. Hess. CNVTRAH         .... auto
   Auto Start mean grad. ratio tolernc. ....  1.125000
   Auto Start start iteration           ....    20
   Auto Start num. interpolation iter.  ....    10
   Max. Number of Micro iterations      ....    16
   Max. Number of Macro iterations      .... Maxiter - #DIIS iter
   Number of Davidson start vectors     ....     2
   Converg. threshold I  (grad. norm)   ....   1.000e-05
   Converg. threshold II (energy diff.) ....   1.000e-08
   Grad. Scal. Fac. for Micro threshold ....   0.100
   Minimum threshold for Micro iter.    ....   0.010
   NR start threshold (gradient norm)   ....   0.001
   Initial trust radius                 ....   0.400
   Minimum AH scaling param. (alpha)    ....   1.000
   Maximum AH scaling param. (alpha)    .... 1000.000
   Orbital update algorithm             .... Taylor
   White noise on init. David. guess    .... on
   Maximum white noise                  ....   0.010
   Quad. conv. algorithm                .... NR
 SOSCF                  CNVSOSCF        .... on
   Start iteration      SOSCFMaxIt      ....   150
   Startup grad/error   SOSCFStart      ....  0.001000
 Level Shifting         CNVShift        .... on
   Level shift para.    LevelShift      ....    0.2500
   Turn off err/grad.   ShiftErr        ....    0.0000
 Zerner damping         CNVZerner       .... off
 Static damping         CNVDamp         .... on
   Fraction old density DampFac         ....    0.8500
   Max. Damping (<1)    DampMax         ....    0.9800
   Min. Damping (>=0)   DampMin         ....    0.0000
   Turn off err/grad.   DampErr         ....    0.0300
 Fernandez-Rico         CNVRico         .... off

SCF Procedure:
 Maximum # iterations   MaxIter         ....   125
 SCF integral mode      SCFMode         .... Direct
   Integral package                     .... SHARK and LIBINT hybrid scheme
 Reset frequency        DirectResetFreq ....    20
 Integral Threshold     Thresh          ....  2.500e-11 Eh
 Primitive CutOff       TCut            ....  2.500e-12 Eh

Convergence Tolerance:
 Convergence Check Mode ConvCheckMode   .... Total+1el-Energy
 Convergence forced     ConvForced      .... 0
 Energy Change          TolE            ....  1.000e-08 Eh
 1-El. energy change                    ....  1.000e-05 Eh
 Orbital Gradient       TolG            ....  1.000e-05
 Orbital Rotation angle TolX            ....  1.000e-05
 DIIS Error             TolErr          ....  5.000e-07


Diagonalization of the overlap matrix:
Smallest eigenvalue                        ... 1.661e-04
Time for diagonalization                   ...    0.009 sec
Threshold for overlap eigenvalues          ... 1.000e-08
Number of eigenvalues below threshold      ... 0
Time for construction of square roots      ...    0.007 sec
Total time needed                          ...    0.016 sec

Time for model grid setup =    0.052 sec

------------------------------
INITIAL GUESS: MODEL POTENTIAL
------------------------------
Loading Hartree-Fock densities                     ... done
Calculating cut-offs                               ... done
Initializing the effective Hamiltonian             ... done
Setting up the integral package (SHARK)            ... done
Starting the Coulomb interaction                   ... done (   0.0 sec)
Reading the grid                                   ... done
Mapping shells                                     ... done
Starting the XC term evaluation                    ... done (   0.0 sec)
  promolecular density results
     # of electrons  =     43.001584650
     EX              =    -30.550108095
     EC              =     -1.388146593
     EX+EC           =    -31.938254689
Transforming the Hamiltonian                       ... done (   0.0 sec)
Diagonalizing the Hamiltonian                      ... done (   0.0 sec)
Back transforming the eigenvectors                 ... done (   0.0 sec)
Now organizing SCF variables                       ... done
                      ------------------
                      INITIAL GUESS DONE (   0.2 sec)
                      ------------------
-------------------
DFT GRID GENERATION
-------------------

General Integration Accuracy     IntAcc      ... 4.388
Radial Grid Type                 RadialGrid  ... OptM3 with GC (2021)
Angular Grid (max. ang.)         AngularGrid ... 4 (Lebedev-302)
Angular grid pruning method      GridPruning ... 4 (adaptive)
Weight generation scheme         WeightScheme... Becke
Basis function cutoff            BFCut       ... 1.0000e-11
Integration weight cutoff        WCut        ... 1.0000e-14
Angular grids for H and He will be reduced by one unit
Partially contracted basis set               ... off
Rotationally invariant grid construction     ... off

Total number of grid points                  ...    68712
Total number of batches                      ...     1082
Average number of points per batch           ...       63
Average number of grid points per atom       ...     4042
Time for grid setup =    0.303 sec

--------------------
COSX GRID GENERATION
--------------------

GRIDX 1
-------
General Integration Accuracy     IntAcc      ... 3.816
Radial Grid Type                 RadialGrid  ... OptM3 with GC (2021)
Angular Grid (max. ang.)         AngularGrid ... 1 (Lebedev-50)
Angular grid pruning method      GridPruning ... 4 (adaptive)
Weight generation scheme         WeightScheme... Becke
Basis function cutoff            BFCut       ... 1.0000e-11
Integration weight cutoff        WCut        ... 1.0000e-14
Angular grids for H and He will be reduced by one unit
Partially contracted basis set               ... on
Rotationally invariant grid construction     ... off

Total number of grid points                  ...     8808
Total number of batches                      ...      149
Average number of points per batch           ...       59
Average number of grid points per atom       ...      518
UseSFitting                                  ... on

GRIDX 2
-------
General Integration Accuracy     IntAcc      ... 4.020
Radial Grid Type                 RadialGrid  ... OptM3 with GC (2021)
Angular Grid (max. ang.)         AngularGrid ... 2 (Lebedev-110)
Angular grid pruning method      GridPruning ... 4 (adaptive)
Weight generation scheme         WeightScheme... Becke
Basis function cutoff            BFCut       ... 1.0000e-11
Integration weight cutoff        WCut        ... 1.0000e-14
Angular grids for H and He will be reduced by one unit
Partially contracted basis set               ... on
Rotationally invariant grid construction     ... off

Total number of grid points                  ...    18109
Total number of batches                      ...      292
Average number of points per batch           ...       62
Average number of grid points per atom       ...     1065
UseSFitting                                  ... on

GRIDX 3
-------
General Integration Accuracy     IntAcc      ... 4.338
Radial Grid Type                 RadialGrid  ... OptM3 with GC (2021)
Angular Grid (max. ang.)         AngularGrid ... 3 (Lebedev-194)
Angular grid pruning method      GridPruning ... 4 (adaptive)
Weight generation scheme         WeightScheme... Becke
Basis function cutoff            BFCut       ... 1.0000e-11
Integration weight cutoff        WCut        ... 1.0000e-14
Angular grids for H and He will be reduced by one unit
Partially contracted basis set               ... on
Rotationally invariant grid construction     ... off

Total number of grid points                  ...    39605
Total number of batches                      ...      629
Average number of points per batch           ...       62
Average number of grid points per atom       ...     2330
UseSFitting                                  ... on

Time for X-Grid setup             =    0.400 sec

--------------
SCF ITERATIONS
--------------
ITER       Energy         Delta-E        Max-DP      RMS-DP      [F,P]     Damp
               ***  Starting incremental Fock matrix formation  ***
  0   -214.0291314777   0.000000000000 0.01465339  0.00042328  0.1786800 0.8500
  1   -214.0620905422  -0.032959064536 0.01253052  0.00043306  0.1423716 0.8500
                               ***Turning on DIIS***
  2   -214.0866804361  -0.024589893822 0.01006149  0.00036196  0.1075367 0.8500
  3   -214.1046044110  -0.017923974931 0.00818159  0.00026813  0.0799314 0.8500
  4   -214.1182835330  -0.013679121964 0.00670740  0.00021191  0.0629266 0.8500
  5   -214.1289877000  -0.010704167010 0.00562967  0.00017736  0.0517457 0.8500
  6   -214.1376629676  -0.008675267668 0.00479053  0.00015187  0.0434422 0.8500
  7   -214.1448353105  -0.007172342875 0.00411948  0.00013197  0.0367995 0.8500
  8   -214.1508360277  -0.006000717149 0.00353879  0.00011430  0.0311460 0.8500
  9   -214.1558694827  -0.005033455081 0.02017352  0.00065470  0.0262907 0.0000
 10   -214.1831657025  -0.027296219709 0.00050448  0.00001690  0.0013261 0.0000
                      *** Initiating the SOSCF procedure ***
                           *** Shutting down DIIS ***
                      *** Re-Reading the Fockian *** 
                      *** Removing any level shift *** 
ITER      Energy       Delta-E        Grad      Rot      Max-DP    RMS-DP
 11   -214.18317491  -0.0000092083  0.000104  0.000104  0.000375  0.000009
               *** Restarting incremental Fock matrix formation ***
 12   -214.18315148   0.0000234316  0.000051  0.000067  0.000329  0.000007
 13   -214.18315164  -0.0000001591  0.000015  0.000035  0.000156  0.000003
 14   -214.18315165  -0.0000000150  0.000009  0.000005  0.000021  0.000001
                  ***Gradient check signals convergence***
              ***Rediagonalizing the Fockian in SOSCF/NRSCF***

               *****************************************************
               *                     SUCCESS                       *
               *           SCF CONVERGED AFTER  15 CYCLES          *
               *****************************************************

Old exchange energy                            =    -10.455894668 Eh
New exchange energy                            =    -10.455872725 Eh
Exchange energy change after final integration =      0.000021943 Eh
Total energy after final integration           =   -214.183129716 Eh
Final COS-X integration done in                =     1.914 sec

----------------
TOTAL SCF ENERGY
----------------

Total Energy       :         -214.18312972 Eh           -5828.21926 eV

Components:
Nuclear Repulsion  :          194.63980357 Eh            5296.41832 eV
Electronic Energy  :         -408.82293328 Eh          -11124.63758 eV
One Electron Energy:         -664.22384052 Eh          -18074.44959 eV
Two Electron Energy:          255.40090723 Eh            6949.81201 eV
Max COSX asymmetry :            0.00000040 Eh               0.00001 eV

Virial components:
Potential Energy   :         -427.03609076 Eh          -11620.24279 eV
Kinetic Energy     :          212.85296105 Eh            5792.02353 eV
Virial Ratio       :            2.00624924


DFT components:
N(Alpha)           :       21.000005056386 electrons
N(Beta)            :       21.000005056386 electrons
N(Total)           :       42.000010112771 electrons
E(XC)              :      -22.328985319570 Eh       
DFET-embed. en.    :        0.000000000000 Eh       

---------------
SCF CONVERGENCE
---------------

  Last Energy change         ...   -5.9028e-09  Tolerance :   1.0000e-08
  Last MAX-Density change    ...    9.9920e-16  Tolerance :   1.0000e-07
  Last RMS-Density change    ...    1.5433e-17  Tolerance :   5.0000e-09
  Last Orbital Gradient      ...    1.6205e-06  Tolerance :   1.0000e-05
  Last Orbital Rotation      ...    1.4680e-06  Tolerance :   1.0000e-05

             **** THE GBW FILE WAS UPDATED (butylamine.gbw) ****
             **** DENSITY butylamine.scfp WAS UPDATED ****
             **** ENERGY FILE WAS UPDATED (butylamine.en.tmp) ****
             **** THE GBW FILE WAS UPDATED (butylamine.gbw) ****
             **** DENSITY butylamine.scfp WAS UPDATED ****
----------------
ORBITAL ENERGIES
----------------

  NO   OCC          E(Eh)            E(eV) 
   0   2.0000     -14.728253      -400.7762 
   1   2.0000     -10.499933      -285.7177 
   2   2.0000     -10.431452      -283.8543 
   3   2.0000     -10.397787      -282.9382 
   4   2.0000     -10.366874      -282.0970 
   5   2.0000      -1.339045       -36.4373 
   6   2.0000      -1.097645       -29.8684 
   7   2.0000      -1.017406       -27.6850 
   8   2.0000      -0.938691       -25.5431 
   9   2.0000      -0.906765       -24.6743 
  10   2.0000      -0.892075       -24.2746 
  11   2.0000      -0.840098       -22.8602 
  12   2.0000      -0.795070       -21.6350 
  13   2.0000      -0.752647       -20.4806 
  14   2.0000      -0.686123       -18.6704 
  15   2.0000      -0.683387       -18.5959 
  16   2.0000      -0.646069       -17.5804 
  17   2.0000      -0.623028       -16.9535 
  18   2.0000      -0.585544       -15.9335 
  19   2.0000      -0.574922       -15.6444 
  20   2.0000      -0.568377       -15.4663 
  21   0.0000      -0.102597        -2.7918 
  22   0.0000      -0.041738        -1.1358 
  23   0.0000      -0.041520        -1.1298 
  24   0.0000      -0.024976        -0.6796 
  25   0.0000       0.012608         0.3431 
  26   0.0000       0.024528         0.6675 
  27   0.0000       0.025460         0.6928 
  28   0.0000       0.048111         1.3092 
  29   0.0000       0.056086         1.5262 
  30   0.0000       0.071466         1.9447 
  31   0.0000       0.082106         2.2342 
  32   0.0000       0.086578         2.3559 
  33   0.0000       0.096057         2.6138 
  34   0.0000       0.112075         3.0497 
  35   0.0000       0.112193         3.0529 
  36   0.0000       0.122157         3.3241 
  37   0.0000       0.160375         4.3640 
  38   0.0000       0.171691         4.6720 
  39   0.0000       0.178266         4.8509 
  40   0.0000       0.185398         5.0449 
  41   0.0000       0.206425         5.6171 
  42   0.0000       0.220047         5.9878 
  43   0.0000       0.233909         6.3650 
  44   0.0000       0.251241         6.8366 
  45   0.0000       0.254999         6.9389 
  46   0.0000       0.289502         7.8778 
  47   0.0000       0.316278         8.6063 
  48   0.0000       0.323012         8.7896 
  49   0.0000       0.327136         8.9018 
  50   0.0000       0.341042         9.2802 
  51   0.0000       0.350297         9.5321 
  52   0.0000       0.370912        10.0930 
  53   0.0000       0.382733        10.4147 
  54   0.0000       0.384071        10.4511 
  55   0.0000       0.396001        10.7757 
  56   0.0000       0.400731        10.9045 
  57   0.0000       0.417502        11.3608 
  58   0.0000       0.423756        11.5310 
  59   0.0000       0.435517        11.8510 
  60   0.0000       0.439094        11.9484 
  61   0.0000       0.447408        12.1746 
  62   0.0000       0.469673        12.7805 
  63   0.0000       0.479940        13.0598 
  64   0.0000       0.509523        13.8648 
  65   0.0000       0.539557        14.6821 
  66   0.0000       0.548163        14.9163 
  67   0.0000       0.588465        16.0129 
  68   0.0000       0.642398        17.4805 
  69   0.0000       0.654028        17.7970 
  70   0.0000       0.662603        18.0304 
  71   0.0000       0.739613        20.1259 
  72   0.0000       0.745871        20.2962 
  73   0.0000       0.769059        20.9272 
  74   0.0000       0.805230        21.9114 
  75   0.0000       0.852289        23.1920 
  76   0.0000       0.852432        23.1959 
  77   0.0000       0.863954        23.5094 
  78   0.0000       0.952800        25.9270 
  79   0.0000       0.979442        26.6520 
  80   0.0000       0.982753        26.7421 
  81   0.0000       0.998690        27.1757 
  82   0.0000       1.012480        27.5510 
  83   0.0000       1.049678        28.5632 
  84   0.0000       1.075641        29.2697 
  85   0.0000       1.087165        29.5833 
  86   0.0000       1.120361        30.4866 
  87   0.0000       1.132038        30.8043 
  88   0.0000       1.149734        31.2858 
  89   0.0000       1.165611        31.7179 
  90   0.0000       1.199755        32.6470 
  91   0.0000       1.227406        33.3994 
  92   0.0000       1.253594        34.1120 
  93   0.0000       1.308357        35.6022 
  94   0.0000       1.388083        37.7717 
  95   0.0000       1.417568        38.5740 
  96   0.0000       1.450658        39.4744 
  97   0.0000       1.457516        39.6610 
  98   0.0000       1.488527        40.5049 
  99   0.0000       1.506167        40.9849 
 100   0.0000       1.546851        42.0920 
 101   0.0000       1.554410        42.2976 
 102   0.0000       1.555443        42.3257 
 103   0.0000       1.580885        43.0181 
 104   0.0000       1.603854        43.6431 
 105   0.0000       1.613394        43.9027 
 106   0.0000       1.615327        43.9553 
 107   0.0000       1.643578        44.7240 
 108   0.0000       1.681586        45.7583 
 109   0.0000       1.702414        46.3250 
 110   0.0000       1.733965        47.1836 
 111   0.0000       1.754296        47.7368 
 112   0.0000       1.769634        48.1542 
 113   0.0000       1.783513        48.5319 
 114   0.0000       1.786018        48.6000 
 115   0.0000       1.804865        49.1129 
 116   0.0000       1.830682        49.8154 
 117   0.0000       1.852123        50.3988 
 118   0.0000       1.890700        51.4486 
 119   0.0000       1.892419        51.4953 
 120   0.0000       1.908428        51.9310 
 121   0.0000       1.946836        52.9761 
 122   0.0000       1.963425        53.4275 
 123   0.0000       2.070244        56.3342 
 124   0.0000       2.082852        56.6773 
 125   0.0000       2.146738        58.4157 
 126   0.0000       2.150463        58.5171 
 127   0.0000       2.168257        59.0013 
 128   0.0000       2.201072        59.8942 
 129   0.0000       2.223175        60.4957 
 130   0.0000       2.284497        62.1643 
 131   0.0000       2.296292        62.4853 
 132   0.0000       2.304537        62.7096 
 133   0.0000       2.333123        63.4875 
 134   0.0000       2.344753        63.8040 
 135   0.0000       2.357121        64.1405 
 136   0.0000       2.361616        64.2628 
 137   0.0000       2.415573        65.7311 
 138   0.0000       2.419174        65.8291 
 139   0.0000       2.457410        66.8695 
 140   0.0000       2.462399        67.0053 
 141   0.0000       2.472927        67.2918 
 142   0.0000       2.499672        68.0195 
 143   0.0000       2.511729        68.3476 
 144   0.0000       2.533947        68.9522 
 145   0.0000       2.551101        69.4190 
 146   0.0000       2.563326        69.7516 
 147   0.0000       2.577386        70.1342 
 148   0.0000       2.586998        70.3958 
 149   0.0000       2.608754        70.9878 
 150   0.0000       2.635524        71.7163 
 151   0.0000       2.647757        72.0491 
 152   0.0000       2.657666        72.3188 
 153   0.0000       2.670273        72.6618 
 154   0.0000       2.697204        73.3946 
 155   0.0000       2.724358        74.1336 
 156   0.0000       2.757658        75.0397 
 157   0.0000       2.813619        76.5625 
 158   0.0000       2.879028        78.3423 
 159   0.0000       2.887024        78.5599 
 160   0.0000       2.902812        78.9895 
 161   0.0000       3.001675        81.6797 
 162   0.0000       3.014669        82.0333 
 163   0.0000       3.035863        82.6100 
 164   0.0000       3.073520        83.6347 
 165   0.0000       3.117108        84.8208 
 166   0.0000       3.136970        85.3613 
 167   0.0000       3.138508        85.4031 
 168   0.0000       3.170590        86.2761 
 169   0.0000       3.178168        86.4823 
 170   0.0000       3.198659        87.0399 
 171   0.0000       3.217705        87.5582 
 172   0.0000       3.247196        88.3607 
 173   0.0000       3.274949        89.1159 
 174   0.0000       3.279263        89.2333 
 175   0.0000       3.297641        89.7334 
 176   0.0000       3.330711        90.6332 
 177   0.0000       3.360744        91.4505 
 178   0.0000       3.389392        92.2300 
 179   0.0000       3.434025        93.4446 
 180   0.0000       3.464756        94.2808 
 181   0.0000       3.480546        94.7105 
 182   0.0000       3.499242        95.2192 
 183   0.0000       3.515036        95.6490 
 184   0.0000       3.581653        97.4617 
 185   0.0000       3.657100        99.5147 
 186   0.0000       3.672383        99.9306 
 187   0.0000       3.730439       101.5104 
 188   0.0000       3.737296       101.6970 
 189   0.0000       3.759863       102.3111 
 190   0.0000       3.786206       103.0279 
 191   0.0000       3.791665       103.1764 
 192   0.0000       3.824829       104.0789 
 193   0.0000       3.870173       105.3128 
 194   0.0000       3.962566       107.8269 
 195   0.0000       3.982470       108.3685 
 196   0.0000       4.048097       110.1543 
 197   0.0000       4.061662       110.5234 
 198   0.0000       4.146779       112.8396 
 199   0.0000       4.184207       113.8581 
 200   0.0000       4.226444       115.0074 
 201   0.0000       4.342527       118.1662 
 202   0.0000       4.354305       118.4867 
 203   0.0000       4.422574       120.3444 
 204   0.0000       4.449320       121.0722 
 205   0.0000       4.481523       121.9484 
 206   0.0000       4.524780       123.1255 
 207   0.0000       4.542597       123.6103 
 208   0.0000       4.618104       125.6650 
 209   0.0000       4.646809       126.4461 
 210   0.0000       4.681865       127.4000 
 211   0.0000       4.744802       129.1126 
 212   0.0000       4.761058       129.5550 
 213   0.0000       4.764566       129.6504 
 214   0.0000       4.807823       130.8275 
 215   0.0000       4.886624       132.9718 
 216   0.0000       4.942097       134.4813 
 217   0.0000       5.056345       137.5902 
 218   0.0000       5.146456       140.0422 
 219   0.0000       5.227133       142.2375 
 220   0.0000       5.327334       144.9641 
 221   0.0000       5.613015       152.7379 
 222   0.0000      22.167274       603.2022 
 223   0.0000      22.244306       605.2983 
 224   0.0000      22.297820       606.7545 
 225   0.0000      22.332404       607.6956 
 226   0.0000      31.672411       861.8501 

                    ********************************
                    * MULLIKEN POPULATION ANALYSIS *
                    ********************************

-----------------------
MULLIKEN ATOMIC CHARGES
-----------------------
   0 C :   -0.358560
   1 C :   -0.206664
   2 H :    0.154582
   3 H :    0.125037
   4 H :    0.125115
   5 C :   -0.249207
   6 H :    0.123471
   7 H :    0.123516
   8 C :   -0.223313
   9 H :    0.134723
  10 H :    0.134720
  11 N :   -0.297904
  12 H :    0.194645
  13 H :    0.194665
  14 H :    0.339600
  15 H :    0.345841
  16 H :    0.339732
Sum of atomic charges:    1.0000000

--------------------------------
MULLIKEN REDUCED ORBITAL CHARGES
--------------------------------
  0 C s       :     3.308606  s :     3.308606
      pz      :     1.035339  p :     2.998997
      px      :     0.969415
      py      :     0.994243
      dz2     :     0.004814  d :     0.048043
      dxz     :     0.004938
      dyz     :     0.016404
      dx2y2   :     0.011827
      dxy     :     0.010061
      f0      :     0.000390  f :     0.002913
      f+1     :     0.000007
      f-1     :     0.000789
      f+2     :    -0.000187
      f-2     :     0.000566
      f+3     :     0.000668
      f-3     :     0.000681
  1 C s       :     3.215274  s :     3.215274
      pz      :     1.024415  p :     2.892346
      px      :     0.901861
      py      :     0.966071
      dz2     :     0.007186  d :     0.093731
      dxz     :     0.013729
      dyz     :     0.026864
      dx2y2   :     0.026838
      dxy     :     0.019114
      f0      :     0.000679  f :     0.005313
      f+1     :     0.000233
      f-1     :     0.000807
      f+2     :    -0.000030
      f-2     :     0.001077
      f+3     :     0.001554
      f-3     :     0.000994
  2 H s       :     0.823519  s :     0.823519
      pz      :     0.003945  p :     0.021899
      px      :     0.011785
      py      :     0.006169
  3 H s       :     0.853396  s :     0.853396
      pz      :     0.011465  p :     0.021567
      px      :     0.003848
      py      :     0.006254
  4 H s       :     0.853317  s :     0.853317
      pz      :     0.009172  p :     0.021567
      px      :     0.003807
      py      :     0.008588
  5 C s       :     3.217172  s :     3.217172
      pz      :     1.051822  p :     2.936004
      px      :     0.937188
      py      :     0.946994
      dz2     :     0.007150  d :     0.090784
      dxz     :     0.013435
      dyz     :     0.029585
      dx2y2   :     0.021079
      dxy     :     0.019535
      f0      :     0.000666  f :     0.005247
      f+1     :     0.000259
      f-1     :     0.000785
      f+2     :     0.000034
      f-2     :     0.001050
      f+3     :     0.001548
      f-3     :     0.000905
  6 H s       :     0.854628  s :     0.854628
      pz      :     0.009080  p :     0.021901
      px      :     0.003848
      py      :     0.008973
  7 H s       :     0.854586  s :     0.854586
      pz      :     0.011644  p :     0.021898
      px      :     0.003746
      py      :     0.006508
  8 C s       :     3.289498  s :     3.289498
      pz      :     1.142234  p :     2.826058
      px      :     0.752880
      py      :     0.930944
      dz2     :     0.008796  d :     0.100182
      dxz     :     0.013327
      dyz     :     0.029398
      dx2y2   :     0.026969
      dxy     :     0.021692
      f0      :     0.000874  f :     0.007575
      f+1     :     0.000550
      f-1     :     0.000982
      f+2     :     0.000084
      f-2     :     0.001238
      f+3     :     0.002183
      f-3     :     0.001664
  9 H s       :     0.843351  s :     0.843351
      pz      :     0.009207  p :     0.021926
      px      :     0.003752
      py      :     0.008967
 10 H s       :     0.843348  s :     0.843348
      pz      :     0.011671  p :     0.021932
      px      :     0.003779
      py      :     0.006482
 11 N s       :     3.434935  s :     3.434935
      pz      :     1.281376  p :     3.809294
      px      :     1.256427
      py      :     1.271491
      dz2     :     0.006697  d :     0.051490
      dxz     :     0.006847
      dyz     :     0.013597
      dx2y2   :     0.011866
      dxy     :     0.012482
      f0      :     0.000226  f :     0.002184
      f+1     :     0.000058
      f-1     :     0.000666
      f+2     :     0.000137
      f-2     :     0.000203
      f+3     :     0.000508
      f-3     :     0.000386
 12 H s       :     0.783625  s :     0.783625
      pz      :     0.009226  p :     0.021730
      px      :     0.003148
      py      :     0.009356
 13 H s       :     0.783605  s :     0.783605
      pz      :     0.012047  p :     0.021730
      px      :     0.003012
      py      :     0.006670
 14 H s       :     0.629061  s :     0.629061
      pz      :     0.016866  p :     0.031339
      px      :     0.005639
      py      :     0.008834
 15 H s       :     0.623244  s :     0.623244
      pz      :     0.005370  p :     0.030915
      px      :     0.014105
      py      :     0.011440
 16 H s       :     0.628939  s :     0.628939
      pz      :     0.013391  p :     0.031330
      px      :     0.005731
      py      :     0.012208


                     *******************************
                     * LOEWDIN POPULATION ANALYSIS *
                     *******************************

----------------------
LOEWDIN ATOMIC CHARGES
----------------------
   0 C :   -0.301027
   1 C :   -0.289549
   2 H :    0.136034
   3 H :    0.127273
   4 H :    0.127268
   5 C :   -0.274842
   6 H :    0.144862
   7 H :    0.144873
   8 C :   -0.281898
   9 H :    0.146417
  10 H :    0.146418
  11 N :    0.159689
  12 H :    0.158266
  13 H :    0.158260
  14 H :    0.232603
  15 H :    0.232724
  16 H :    0.232630

-------------------------------
LOEWDIN REDUCED ORBITAL CHARGES
-------------------------------
  0 C s       :     2.838849  s :     2.838849
      pz      :     1.070664  p :     3.179983
      px      :     1.046767
      py      :     1.062551
      dz2     :     0.038943  d :     0.257711
      dxz     :     0.022202
      dyz     :     0.075299
      dx2y2   :     0.059908
      dxy     :     0.061358
      f0      :     0.002562  f :     0.024485
      f+1     :     0.002583
      f-1     :     0.003239
      f+2     :     0.002876
      f-2     :     0.003457
      f+3     :     0.004817
      f-3     :     0.004951
  1 C s       :     2.783954  s :     2.783954
      pz      :     1.030430  p :     3.067585
      px      :     1.003437
      py      :     1.033718
      dz2     :     0.048898  d :     0.399299
      dxz     :     0.053141
      dyz     :     0.103938
      dx2y2   :     0.102109
      dxy     :     0.091212
      f0      :     0.004457  f :     0.038711
      f+1     :     0.003328
      f-1     :     0.003836
      f+2     :     0.003994
      f-2     :     0.006098
      f+3     :     0.010418
      f-3     :     0.006580
  2 H s       :     0.805362  s :     0.805362
      pz      :     0.012088  p :     0.058604
      px      :     0.028314
      py      :     0.018203
  3 H s       :     0.814572  s :     0.814572
      pz      :     0.029565  p :     0.058155
      px      :     0.011709
      py      :     0.016882
  4 H s       :     0.814572  s :     0.814572
      pz      :     0.024463  p :     0.058159
      px      :     0.011729
      py      :     0.021967
  5 C s       :     2.788162  s :     2.788162
      pz      :     1.029918  p :     3.058073
      px      :     1.005799
      py      :     1.022356
      dz2     :     0.048907  d :     0.391011
      dxz     :     0.053842
      dyz     :     0.104512
      dx2y2   :     0.087220
      dxy     :     0.096529
      f0      :     0.004420  f :     0.037595
      f+1     :     0.003333
      f-1     :     0.003755
      f+2     :     0.003923
      f-2     :     0.006246
      f+3     :     0.010015
      f-3     :     0.005903
  6 H s       :     0.798992  s :     0.798992
      pz      :     0.023611  p :     0.056147
      px      :     0.011493
      py      :     0.021043
  7 H s       :     0.798986  s :     0.798986
      pz      :     0.028541  p :     0.056141
      px      :     0.011316
      py      :     0.016284
  8 C s       :     2.801273  s :     2.801273
      pz      :     1.073281  p :     2.988642
      px      :     0.896157
      py      :     1.019204
      dz2     :     0.056665  d :     0.440101
      dxz     :     0.057066
      dyz     :     0.103155
      dx2y2   :     0.114191
      dxy     :     0.109023
      f0      :     0.005567  f :     0.051881
      f+1     :     0.005419
      f-1     :     0.003919
      f+2     :     0.004518
      f-2     :     0.007610
      f+3     :     0.013828
      f-3     :     0.011021
  9 H s       :     0.796742  s :     0.796742
      pz      :     0.023846  p :     0.056841
      px      :     0.011568
      py      :     0.021427
 10 H s       :     0.796743  s :     0.796743
      pz      :     0.028769  p :     0.056838
      px      :     0.011609
      py      :     0.016459
 11 N s       :     2.981179  s :     2.981179
      pz      :     1.213957  p :     3.682723
      px      :     1.242544
      py      :     1.226222
      dz2     :     0.023203  d :     0.166206
      dxz     :     0.022185
      dyz     :     0.042082
      dx2y2   :     0.035916
      dxy     :     0.042820
      f0      :     0.001132  f :     0.010204
      f+1     :     0.000988
      f-1     :     0.001237
      f+2     :     0.001665
      f-2     :     0.001128
      f+3     :     0.002755
      f-3     :     0.001299
 12 H s       :     0.783418  s :     0.783418
      pz      :     0.025479  p :     0.058317
      px      :     0.009318
      py      :     0.023520
 13 H s       :     0.783425  s :     0.783425
      pz      :     0.031716  p :     0.058314
      px      :     0.009025
      py      :     0.017573
 14 H s       :     0.673330  s :     0.673330
      pz      :     0.052223  p :     0.094068
      px      :     0.016116
      py      :     0.025728
 15 H s       :     0.673054  s :     0.673054
      pz      :     0.015952  p :     0.094222
      px      :     0.041568
      py      :     0.036702
 16 H s       :     0.673300  s :     0.673300
      pz      :     0.041778  p :     0.094070
      px      :     0.016241
      py      :     0.036051


                      *****************************
                      * MAYER POPULATION ANALYSIS *
                      *****************************

  NA   - Mulliken gross atomic population
  ZA   - Total nuclear charge
  QA   - Mulliken gross atomic charge
  VA   - Mayer's total valence
  BVA  - Mayer's bonded valence
  FA   - Mayer's free valence

  ATOM       NA         ZA         QA         VA         BVA        FA
  0 C      6.3586     6.0000    -0.3586     3.9300     3.9300    -0.0000
  1 C      6.2067     6.0000    -0.2067     3.9065     3.9065    -0.0000
  2 H      0.8454     1.0000     0.1546     0.9699     0.9699    -0.0000
  3 H      0.8750     1.0000     0.1250     0.9669     0.9669    -0.0000
  4 H      0.8749     1.0000     0.1251     0.9669     0.9669     0.0000
  5 C      6.2492     6.0000    -0.2492     3.8102     3.8102    -0.0000
  6 H      0.8765     1.0000     0.1235     0.9621     0.9621    -0.0000
  7 H      0.8765     1.0000     0.1235     0.9621     0.9621    -0.0000
  8 C      6.2233     6.0000    -0.2233     3.7480     3.7480    -0.0000
  9 H      0.8653     1.0000     0.1347     0.9676     0.9676     0.0000
 10 H      0.8653     1.0000     0.1347     0.9676     0.9676    -0.0000
 11 N      7.2979     7.0000    -0.2979     3.4838     3.4838    -0.0000
 12 H      0.8054     1.0000     0.1946     0.9561     0.9561    -0.0000
 13 H      0.8053     1.0000     0.1947     0.9561     0.9561     0.0000
 14 H      0.6604     1.0000     0.3396     0.8846     0.8846    -0.0000
 15 H      0.6542     1.0000     0.3458     0.8768     0.8768     0.0000
 16 H      0.6603     1.0000     0.3397     0.8845     0.8845    -0.0000

  Mayer bond orders larger than 0.100000
B(  0-C ,  1-C ) :   0.9844 B(  0-C ,  2-H ) :   0.9779 B(  0-C ,  3-H ) :   0.9748 
B(  0-C ,  4-H ) :   0.9748 B(  1-C ,  5-C ) :   0.9815 B(  1-C ,  6-H ) :   0.9661 
B(  1-C ,  7-H ) :   0.9661 B(  5-C ,  8-C ) :   0.9397 B(  5-C ,  9-H ) :   0.9614 
B(  5-C , 10-H ) :   0.9615 B(  8-C , 11-N ) :   0.8819 B(  8-C , 12-H ) :   0.9621 
B(  8-C , 13-H ) :   0.9622 B( 11-N , 14-H ) :   0.8678 B( 11-N , 15-H ) :   0.8707 
B( 11-N , 16-H ) :   0.8677 

-------
TIMINGS
-------

Total SCF time: 0 days 0 hours 0 min 20 sec 

Total time                  ....      20.038 sec
Sum of individual times     ....      19.037 sec  ( 95.0%)

Fock matrix formation       ....      17.601 sec  ( 87.8%)
  Split-RI-J                ....       0.977 sec  (  5.5% of F)
  Chain of spheres X        ....      11.530 sec  ( 65.5% of F)
  XC integration            ....       4.099 sec  ( 23.3% of F)
    Basis function eval.    ....       0.409 sec  ( 10.0% of XC)
    Density eval.           ....       0.357 sec  (  8.7% of XC)
    XC-Functional eval.     ....       0.150 sec  (  3.7% of XC)
    XC-Potential eval.      ....       0.518 sec  ( 12.6% of XC)
Diagonalization             ....       0.236 sec  (  1.2%)
Density matrix formation    ....       0.016 sec  (  0.1%)
Population analysis         ....       0.051 sec  (  0.3%)
Initial guess               ....       0.141 sec  (  0.7%)
Orbital Transformation      ....       0.000 sec  (  0.0%)
Orbital Orthonormalization  ....       0.000 sec  (  0.0%)
DIIS solution               ....       0.170 sec  (  0.8%)
SOSCF solution              ....       0.066 sec  (  0.3%)
Grid generation             ....       0.755 sec  (  3.8%)

Maximum memory used throughout the entire SCF-calculation: 70.6 MB


-------------------------------------------------------------------------------
                          DFT DISPERSION CORRECTION                            
                                                                               
                                 DFTD4 V2.5                                    
-------------------------------------------------------------------------------
The WB97X functional is recognized
Active option DFTDOPT                   ...         5   

Starting D4
-------------------------   ----------------
Dispersion correction           -0.001258279
-------------------------   ----------------


-------------------------   --------------------
FINAL SINGLE POINT ENERGY      -214.184387994615
-------------------------   --------------------



           ************************************************************
           *        Program running with 16 parallel MPI-processes    *
           *              working on a common directory               *
           ************************************************************
------------------------------------------------------------------------------
                         ORCA SCF GRADIENT CALCULATION
------------------------------------------------------------------------------

 ... reading COSX grid (gridx3)
Gradient of the Kohn-Sham DFT energy:
Kohn-Sham wavefunction type      ... RKS
Hartree-Fock exchange scaling    ...    0.158
Number of operators              ...    1
Number of atoms                  ...   17
Basis set dimensions             ...  227
Integral neglect threshold       ... 2.5e-11
Integral primitive cutoff        ... 2.5e-12
SHARK Integral package           ... ON

Nuc. rep. gradient       (SHARK) ... done (  0.0 sec)
HCore & Overlap gradient (SHARK) ... done (  0.0 sec)
RI-J gradient            (SHARK) ... done (  0.2 sec)
COSX-gradient                    ... done (  2.1 sec)
Exchange-correlation gradient    ... done
Dispersion correction            ... Starting D4
Starting D4
Starting D4
Starting D4
Starting D4
Starting D4
Starting D4
Starting D4
Starting D4
Starting D4


------------------- 
Dispersion Gradient 
------------------- 
Starting D4
   1  :   -0.000025705    0.000006792   -0.000000097
   2  :   -0.000013944   -0.000006172    0.000001140
   3  :   -0.000005019    0.000001396   -0.000000027
   4  :   -0.000007484    0.000000560    0.000000890
   5  :   -0.000007526    0.000000383   -0.000000581
   6  :    0.000000213    0.000004533   -0.000000554
   7  :   -0.000005731    0.000000835    0.000000442
   8  :   -0.000005752    0.000000744   -0.000000309
   9  :    0.000008347   -0.000009486    0.000000912
  10  :    0.000000450   -0.000001559   -0.000000488
  11  :    0.000000486   -0.000001401    0.000000820
  12  :    0.000024914   -0.000000550   -0.000000636
  13  :    0.000006307    0.000000795    0.000000567
  14  :    0.000006260    0.000000595   -0.000001089
  15  :    0.000006316    0.000002998   -0.000005494
  16  :    0.000011277   -0.000004640    0.000000243
  17  :    0.000006591    0.000004177    0.000004261

  |G| =    0.000047536

Starting D4
Starting D4
Starting D4
Starting D4
Starting D4
done

------------------
CARTESIAN GRADIENT
------------------

   1   C   :    0.006056813   -0.001598418    0.000175856
   2   C   :    0.001152543    0.003371306   -0.000429910
   3   H   :   -0.010059072   -0.009436240    0.001525410
   4   H   :    0.001878435    0.004600158   -0.011585828
   5   H   :    0.002500730    0.007178293    0.010036444
   6   C   :   -0.005087204    0.000301283    0.000148234
   7   H   :   -0.002341860   -0.005534370   -0.010355943
   8   H   :   -0.001805309   -0.002912774    0.011463104
   9   C   :    0.038188785    0.018556385   -0.003379160
  10   H   :    0.001030453    0.005145785    0.008997065
  11   H   :    0.000518304    0.002897081   -0.009987095
  12   N   :   -0.028642587   -0.006329805    0.001509629
  13   H   :   -0.005163545   -0.009161697   -0.010467390
  14   H   :   -0.004594648   -0.006374971    0.012569612
  15   H   :   -0.002242507    0.006133630   -0.018587712
  16   H   :    0.009874772   -0.017204524    0.001779309
  17   H   :   -0.001297596    0.010420388    0.016726755

Difference to translation invariance:
           :   -0.0000334918    0.0000515098    0.0001383813

Difference to rotation invariance:
           :    0.0007526968    0.0016500683   -0.0013451598

Norm of the cartesian gradient     ...    0.0733703033
RMS gradient                       ...    0.0102738975
MAX gradient                       ...    0.0381887854

-------
TIMINGS
-------

Total SCF gradient time            ...        3.400 sec

One electron gradient       ....       0.034 sec  (  1.0%)
RI-J Coulomb gradient       ....       0.209 sec  (  6.1%)
COSX gradient               ....       2.134 sec  ( 62.8%)
XC gradient                 ....       0.591 sec  ( 17.4%)

Maximum memory used throughout the entire SCFGRAD-calculation: 44.1 MB
------------------------------------------------------------------------------
                         ORCA GEOMETRY RELAXATION STEP
------------------------------------------------------------------------------

Reading the OPT-File                    .... done
Getting information on internals        .... done
Copying old internal coords+grads       .... done
Making the new internal coordinates     .... (new redundants).... done
Validating the new internal coordinates .... (new redundants).... done
Calculating the B-matrix                .... done
Calculating the G,G- and P matrices     .... done
Transforming gradient to internals      .... done
Projecting the internal gradient        .... done
Number of atoms                         ....  17
Number of internal coordinates          ....  82
Current Energy                          ....  -214.184387995 Eh
Current gradient norm                   ....     0.073370303 Eh/bohr
Maximum allowed component of the step   ....  0.300
Current trust radius                    ....  0.300
Evaluating the initial hessian          ....  (Almloef) done
Projecting the Hessian                  .... done
Forming the augmented Hessian           .... done
Diagonalizing the augmented Hessian     .... done
Last element of RFO vector              ....  0.985951401
Lowest eigenvalues of augmented Hessian:
 -0.009437295  0.010810795  0.010921625  0.011462452  0.016788134
Length of the computed step             ....  0.169412444
The final length of the internal step   ....  0.169412444
Converting the step to cartesian space:
 Initial RMS(Int)=    0.0187084747
Transforming coordinates:
 Iter   0:  RMS(Cart)=    0.0244097707 RMS(Int)=    1.5498109944
 Iter   1:  RMS(Cart)=    0.0003235089 RMS(Int)=    0.0002058106
 Iter   2:  RMS(Cart)=    0.0000106743 RMS(Int)=    0.0000074707
 Iter   3:  RMS(Cart)=    0.0000003286 RMS(Int)=    0.0000002315
 Iter   4:  RMS(Cart)=    0.0000000097 RMS(Int)=    0.0000000069
done
Storing new coordinates                 .... done

                                .--------------------.
          ----------------------|Geometry convergence|-------------------------
          Item                value                   Tolerance       Converged
          ---------------------------------------------------------------------
          RMS gradient        0.0063841914            0.0001000000      NO
          MAX gradient        0.0228006506            0.0003000000      NO
          RMS step            0.0187084747            0.0020000000      NO
          MAX step            0.0520420067            0.0040000000      NO
          ........................................................
          Max(Bonds)      0.0275      Max(Angles)    1.64
          Max(Dihed)        1.11      Max(Improp)    0.00
          ---------------------------------------------------------------------

The optimization has not yet converged - more geometry cycles are needed


    ---------------------------------------------------------------------------
                         Redundant Internal Coordinates
                            (Angstroem and degrees)

        Definition                    Value    dE/dq     Step     New-Value
    ----------------------------------------------------------------------------
     1. B(C   1,C   0)                1.5259  0.000115 -0.0002    1.5258   
     2. B(H   2,C   0)                1.1104  0.013606 -0.0210    1.0894   
     3. B(H   3,C   0)                1.1109  0.012384 -0.0191    1.0918   
     4. B(H   4,C   0)                1.1109  0.012301 -0.0190    1.0919   
     5. B(C   5,C   1)                1.5329  0.004534 -0.0063    1.5266   
     6. B(H   6,C   1)                1.1119  0.011530 -0.0179    1.0941   
     7. B(H   7,C   1)                1.1119  0.011498 -0.0178    1.0941   
     8. B(C   8,C   5)                1.5344  0.007226 -0.0101    1.5243   
     9. B(H   9,C   5)                1.1123  0.010144 -0.0157    1.0965   
    10. B(H  10,C   5)                1.1123  0.010172 -0.0158    1.0965   
    11. B(N  11,C   8)                1.4625 -0.022801  0.0275    1.4901   
    12. B(H  12,C   8)                1.1129  0.014182 -0.0220    1.0909   
    13. B(H  13,C   8)                1.1129  0.014162 -0.0220    1.0909   
    14. B(H  14,N  11)                1.0460  0.019184 -0.0261    1.0199   
    15. B(H  15,N  11)                1.0456  0.018727 -0.0255    1.0201   
    16. B(H  16,N  11)                1.0460  0.019243 -0.0262    1.0198   
    17. A(H   3,C   0,H   4)          109.19  0.002712   -0.55    108.64   
    18. A(C   1,C   0,H   4)          110.34 -0.002395    0.43    110.77   
    19. A(C   1,C   0,H   2)          109.59 -0.003122    0.59    110.18   
    20. A(H   2,C   0,H   4)          108.67  0.002687   -0.47    108.20   
    21. A(H   2,C   0,H   3)          108.67  0.002726   -0.48    108.19   
    22. A(C   1,C   0,H   3)          110.34 -0.002432    0.44    110.78   
    23. A(C   0,C   1,C   5)          111.16 -0.001567    0.52    111.68   
    24. A(H   6,C   1,H   7)          108.72  0.001294   -0.88    107.84   
    25. A(C   5,C   1,H   7)          109.64  0.001067   -0.25    109.40   
    26. A(C   0,C   1,H   7)          108.81 -0.000941    0.43    109.25   
    27. A(C   5,C   1,H   6)          109.64  0.001029   -0.25    109.39   
    28. A(C   0,C   1,H   6)          108.82 -0.000846    0.40    109.21   
    29. A(C   1,C   5,H   9)          109.33  0.000112    0.02    109.34   
    30. A(C   1,C   5,C   8)          111.03 -0.000621    0.30    111.33   
    31. A(C   8,C   5,H   9)          109.18 -0.000387    0.19    109.37   
    32. A(H   9,C   5,H  10)          108.75  0.001141   -0.68    108.07   
    33. A(C   8,C   5,H  10)          109.18 -0.000397    0.18    109.36   
    34. A(C   1,C   5,H  10)          109.33  0.000188   -0.02    109.31   
    35. A(H  12,C   8,H  13)          108.40 -0.000082   -0.07    108.33   
    36. A(N  11,C   8,H  13)          109.20  0.002937   -0.88    108.32   
    37. A(C   5,C   8,H  13)          109.52 -0.002253    0.82    110.34   
    38. A(N  11,C   8,H  12)          109.20  0.002894   -0.89    108.32   
    39. A(C   5,C   8,H  12)          109.52 -0.002139    0.78    110.30   
    40. A(C   5,C   8,N  11)          110.95 -0.001303    0.23    111.17   
    41. A(H  15,N  11,H  16)          108.87  0.004941   -0.68    108.19   
    42. A(H  14,N  11,H  16)          109.72  0.005008   -1.29    108.43   
    43. A(C   8,N  11,H  16)          110.12 -0.003241    0.51    110.63   
    44. A(H  14,N  11,H  15)          108.87  0.004904   -0.68    108.19   
[...]
     29       0.204053  -0.000159   0.011048  -0.508943   0.093171  -0.027340
     30       0.052464  -0.015359  -0.004370  -0.010448   0.002035  -0.002528
     31      -0.234971   0.002200  -0.019283  -0.328681   0.061987  -0.017611
     32      -0.152926   0.004773  -0.005070   0.616853  -0.114878   0.032564
     33       0.080804   0.006418  -0.024826  -0.000302  -0.000171  -0.000041
     34       0.048258  -0.003154   0.042761   0.000346   0.000087   0.000030
     35      -0.008598   0.047909   0.005785  -0.000035   0.000001  -0.000009
     36      -0.040294   0.030898   0.035278   0.000190  -0.002575   0.001031
     37      -0.089539   0.019620   0.022001   0.022200  -0.016830   0.003724
     38       0.090329  -0.001258  -0.003189   0.025815  -0.019504   0.004484
     39      -0.041010  -0.042066   0.020809  -0.001552  -0.001179   0.000721
     40      -0.109092  -0.024338   0.012732   0.015790  -0.011920   0.002527
     41      -0.062694   0.008056  -0.002108  -0.031333   0.023704  -0.005306
     42      -0.417434   0.420874   0.174420  -0.003991   0.001595  -0.000331
     43      -0.145289  -0.064375  -0.591323  -0.001171   0.000392  -0.000356
     44      -0.121797   0.014367  -0.330067   0.005040  -0.001558   0.001021
     45      -0.277409  -0.062624   0.187650  -0.002842  -0.000075  -0.000593
     46      -0.383957  -0.143484   0.276869  -0.001786  -0.000094   0.000205
     47       0.053685  -0.695199  -0.186199   0.000366  -0.000001  -0.000012
     48      -0.410898  -0.461300   0.021205  -0.004157   0.001650  -0.000392
     49      -0.106609   0.260854  -0.426380  -0.002189   0.000690  -0.000582
     50       0.181329  -0.151237   0.419690  -0.004198   0.001274  -0.000894
                 42         43         44         45         46         47    
      0       0.000224   0.000642  -0.000319   0.001735  -0.063804  -0.000018
      1       0.000793   0.003077  -0.000385   0.010143  -0.065930  -0.000060
      2       0.007117   0.026138   0.000096   0.088438   0.008853  -0.000362
      3      -0.001127  -0.002036   0.000154   0.000702  -0.000526  -0.000081
      4      -0.005125  -0.009575   0.001916   0.003292  -0.004752  -0.000374
      5      -0.042659  -0.078138  -0.000360   0.027310   0.000444  -0.003147
      6      -0.000873  -0.001062   0.002500   0.001120   0.768903   0.000190
      7      -0.000410   0.000170   0.001984   0.002589   0.452777   0.000109
      8       0.001340   0.007948  -0.000268   0.017921  -0.067895   0.000039
      9      -0.000547   0.002422   0.000460  -0.001935  -0.011461   0.000646
     10       0.029495   0.099121   0.000563   0.335500   0.139154  -0.002136
     11      -0.050171  -0.173971  -0.001432  -0.583326  -0.271763   0.003159
     12      -0.001237  -0.008933   0.000485  -0.019874  -0.001144  -0.000529
     13      -0.039267  -0.136432   0.000405  -0.459273   0.198155   0.002908
     14      -0.041097  -0.146779   0.000740  -0.490397   0.233687   0.002744
     15       0.002327  -0.001225   0.000750   0.000160   0.000524  -0.000344
     16       0.010533  -0.005483   0.003069   0.000703  -0.000193  -0.001575
     17       0.081386  -0.043360  -0.000260   0.005731  -0.000001  -0.012591
     18       0.019875   0.041743  -0.002748  -0.010688   0.001647   0.003616
     19       0.227488   0.407086  -0.012515  -0.139885   0.029479   0.017525
     20       0.235649   0.424988  -0.013457  -0.145669   0.030296   0.017530
     21      -0.006561  -0.017655  -0.002015   0.002439  -0.000124  -0.002589
     22      -0.164839  -0.292305  -0.009840   0.101161   0.020229  -0.012890
     23       0.284134   0.508658   0.017810  -0.175444  -0.034535   0.021478
     24      -0.000280   0.000279  -0.001309  -0.000084   0.000000  -0.003062
     25      -0.001303   0.001010   0.068183  -0.000305  -0.000077  -0.011674
     26      -0.009261   0.008479  -0.008382  -0.002411   0.000041  -0.095323
     27      -0.038121   0.023449  -0.001025  -0.006077   0.001509   0.002282
     28      -0.428310   0.224323  -0.028083  -0.030209   0.002242   0.064553
     29      -0.451808   0.236579  -0.029407  -0.031066   0.002687   0.067904
     30       0.010359  -0.008948   0.000819   0.004224   0.001334   0.001847
     31       0.301387  -0.159114  -0.019491   0.021955   0.001471  -0.046235
     32      -0.528093   0.279078   0.033766  -0.037582  -0.003107   0.080548
     33       0.000020  -0.000009  -0.000020   0.000004   0.000034   0.000101
     34       0.000101  -0.000053  -0.001961   0.000010  -0.000011   0.000341
     35       0.000723  -0.000426   0.000252   0.000131  -0.000002   0.002775
     36       0.004055  -0.004623  -0.013180   0.001562  -0.000418   0.007067
     37       0.049017  -0.041846  -0.466244   0.010902   0.000884   0.471900
     38       0.053552  -0.046731  -0.527210   0.012476   0.000890   0.512665
     39      -0.000427   0.001306   0.023673  -0.000713  -0.000487   0.028907
     40      -0.033018   0.029560  -0.324486  -0.007437   0.000861  -0.333720
     41       0.060926  -0.056197   0.624205   0.014604  -0.001434   0.611182
     42       0.003290  -0.001985  -0.002192   0.000323   0.000178  -0.007116
     43       0.002349  -0.002140   0.004368   0.000667  -0.000021   0.004035
     44      -0.004641   0.003795  -0.010303  -0.001157  -0.000172  -0.014549
     45      -0.000098   0.000032   0.003569  -0.000002  -0.000325   0.000003
     46      -0.000249   0.000084   0.006661  -0.000015   0.000339   0.000029
     47      -0.001897   0.000722  -0.000921  -0.000033  -0.000032   0.000392
     48      -0.003634   0.002263  -0.001441  -0.000389   0.000188   0.006050
     49      -0.003412   0.002963   0.006679  -0.000923   0.000028  -0.007784
     50      -0.003854   0.003072   0.009100  -0.000935   0.000158  -0.013963
                 48         49         50    
      0      -0.000029   0.000016   0.000029
      1       0.000111   0.000006   0.000028
      2      -0.000018  -0.000045  -0.000022
      3       0.000093   0.000015  -0.000049
      4      -0.000152  -0.000008  -0.000045
      5       0.000001  -0.000118  -0.000009
      6       0.000701   0.000040  -0.000273
      7       0.000009   0.000041  -0.000305
      8      -0.000040   0.000024   0.000018
      9       0.000006   0.000077   0.000044
     10      -0.000309  -0.000165  -0.000129
     11       0.000484   0.000327   0.000212
     12      -0.000022  -0.000021   0.000012
     13      -0.000435   0.000271  -0.000142
     14      -0.000379   0.000296  -0.000155
     15       0.000177   0.000018  -0.000253
     16       0.000863  -0.000120   0.000423
     17      -0.000098  -0.000824  -0.000099
     18      -0.000114   0.000000   0.000135
     19      -0.000291   0.000722   0.000001
     20      -0.000376   0.000612  -0.000085
     21      -0.000108   0.000030   0.000127
     22      -0.000231  -0.000546  -0.000071
     23       0.000388   0.000756   0.000172
     24      -0.001032   0.000070  -0.000210
     25      -0.001504   0.000276  -0.000774
     26       0.000173   0.001995   0.000250
     27      -0.000984   0.001093  -0.000668
     28      -0.002401   0.002532  -0.001055
     29      -0.002839   0.003906  -0.001089
     30      -0.000794  -0.000738  -0.000710
     31      -0.001594  -0.001458  -0.000975
     32       0.003378   0.004297   0.002028
     33      -0.033963  -0.000606   0.043339
     34      -0.023669   0.014386  -0.067302
     35       0.003327   0.079541   0.012552
     36       0.003864  -0.003056   0.001042
     37       0.006868  -0.011213   0.005377
     38       0.005720  -0.012242   0.004250
     39       0.003420   0.002160   0.001080
     40       0.004919   0.007283   0.005164
     41      -0.006892  -0.013985  -0.007349
     42       0.008642   0.018281   0.019082
     43       0.277224   0.334855   0.200299
     44      -0.515050  -0.591622  -0.385883
     45       0.422329   0.052171  -0.652508
     46      -0.346409  -0.039333   0.515850
     47       0.027025   0.016757  -0.038493
     48       0.044418  -0.063030   0.036152
     49       0.399673  -0.494730   0.215602
     50       0.441649  -0.526420   0.250529


-----------
IR SPECTRUM
-----------

 Mode   freq       eps      Int      T**2         TX        TY        TZ
       cm**-1   L/(mol*cm) km/mol    a.u.
----------------------------------------------------------------------------
  6:     68.68   0.000214    1.08  0.000973  (-0.001843 -0.003799 -0.030898)
  7:    101.31   0.000673    3.40  0.002074  (-0.001198  0.009429  0.044537)
  8:    171.82   0.001139    5.76  0.002069  ( 0.025898 -0.036717  0.007072)
  9:    201.93   0.000027    0.14  0.000042  ( 0.003333 -0.005388 -0.001485)
 10:    224.73   0.000023    0.12  0.000032  (-0.002583  0.003559  0.003519)
 11:    395.96   0.000770    3.89  0.000607  (-0.024587 -0.001106  0.000876)
 12:    406.17   0.001394    7.05  0.001071  (-0.032050  0.006647  0.000137)
 13:    746.66   0.001203    6.08  0.000503  (-0.000691 -0.002780 -0.022236)
 14:    793.31   0.000258    1.30  0.000102  (-0.000518 -0.001286 -0.009981)
 15:    899.22   0.002500   12.63  0.000867  ( 0.024246 -0.012475  0.011134)
 16:    899.91   0.001787    9.03  0.000620  (-0.010790  0.009571  0.020287)
 17:    924.30   0.001351    6.83  0.000456  ( 0.020927  0.004015 -0.001443)
 18:   1005.71   0.000486    2.46  0.000151  (-0.000238  0.001600 -0.012177)
 19:   1009.28   0.000660    3.33  0.000204  (-0.000331  0.014259  0.000714)
 20:   1071.65   0.001860    9.40  0.000542  ( 0.020112 -0.011684  0.000718)
 21:   1094.27   0.002195   11.09  0.000626  ( 0.025012 -0.000245 -0.000541)
 22:   1188.16   0.001733    8.76  0.000455  (-0.004841  0.020657 -0.002221)
 23:   1221.49   0.000256    1.30  0.000066  (-0.000343 -0.000808 -0.008046)
 24:   1302.10   0.000495    2.50  0.000119  (-0.001145 -0.000666 -0.010807)
 25:   1319.95   0.000260    1.31  0.000061  (-0.003429  0.006960  0.001109)
 26:   1347.86   0.000458    2.32  0.000106  (-0.000558 -0.000968 -0.010239)
 27:   1357.03   0.000357    1.80  0.000082  ( 0.001101  0.000790  0.008960)
 28:   1405.52   0.000165    0.83  0.000037  (-0.001219  0.005889 -0.000690)
 29:   1430.04   0.003367   17.01  0.000735  ( 0.026196  0.006732 -0.001772)
 30:   1434.34   0.000614    3.10  0.000134  ( 0.006430 -0.009585  0.000607)
 31:   1493.42   0.000648    3.28  0.000136  (-0.010886 -0.002372  0.003373)
 32:   1495.24   0.000597    3.02  0.000125  ( 0.003489  0.010290 -0.002547)
 33:   1503.01   0.002399   12.13  0.000498  (-0.000394 -0.003895 -0.021974)
 34:   1505.75   0.000573    2.90  0.000119  ( 0.008104 -0.003274  0.006514)
 35:   1516.40   0.008693   43.93  0.001789  ( 0.042228 -0.001716 -0.001674)
 36:   1522.34   0.025567  129.21  0.005241  (-0.056219 -0.045025  0.007296)
 37:   1662.05   0.010518   53.16  0.001975  (-0.005433  0.001248 -0.044089)
 38:   1669.72   0.007715   38.99  0.001442  ( 0.020873 -0.031136 -0.006062)
 39:   3046.97   0.002146   10.85  0.000220  ( 0.009346  0.011368 -0.001801)
 40:   3067.32   0.003180   16.07  0.000324  (-0.001001 -0.017827  0.002178)
 41:   3074.10   0.003841   19.41  0.000390  (-0.008588  0.017689 -0.001809)
 42:   3088.16   0.000462    2.33  0.000047  ( 0.000218  0.000931  0.006766)
 43:   3112.35   0.002524   12.76  0.000253  (-0.000441 -0.002102 -0.015764)
 44:   3116.32   0.000566    2.86  0.000057  (-0.002173  0.007180 -0.000653)
 45:   3148.36   0.005346   27.01  0.000530  ( 0.000430  0.002731  0.022852)
 46:   3168.57   0.002022   10.22  0.000199  (-0.009422 -0.010408  0.001437)
 47:   3178.59   0.000344    1.74  0.000034  (-0.000180 -0.000863 -0.005743)
 48:   3443.68   0.009515   48.09  0.000862  ( 0.026943  0.011512 -0.001941)
 49:   3524.61   0.018234   92.15  0.001614  ( 0.000424 -0.007194 -0.039529)
 50:   3531.98   0.020037  101.26  0.001770  (-0.023243  0.034501 -0.006309)

* The epsilon (eps) is given for a Dirac delta lineshape.
** The dipole moment derivative (T) already includes vibrational overlap.

The first frequency considered to be a vibration is 6
The total number of vibrations considered is 45


--------------------------
THERMOCHEMISTRY AT 298.15K
--------------------------

Temperature         ... 298.15 K
Pressure            ... 1.00 atm
Total Mass          ... 74.15 AMU

Throughout the following assumptions are being made:
  (1) The electronic state is orbitally nondegenerate
  (2) There are no thermally accessible electronically excited states
  (3) Hindered rotations indicated by low frequency modes are not
      treated as such but are treated as vibrations and this may
      cause some error
  (4) All equations used are the standard statistical mechanics
      equations for an ideal gas
  (5) All vibrations are strictly harmonic

freq.      68.68  E(vib)   ...       0.50 
freq.     101.31  E(vib)   ...       0.46 
freq.     171.82  E(vib)   ...       0.38 
freq.     201.93  E(vib)   ...       0.35 
freq.     224.73  E(vib)   ...       0.33 
freq.     395.96  E(vib)   ...       0.20 
freq.     406.17  E(vib)   ...       0.19 
freq.     746.66  E(vib)   ...       0.06 
freq.     793.31  E(vib)   ...       0.05 
freq.     899.22  E(vib)   ...       0.03 
freq.     899.91  E(vib)   ...       0.03 
freq.     924.30  E(vib)   ...       0.03 
freq.    1005.71  E(vib)   ...       0.02 
freq.    1009.28  E(vib)   ...       0.02 
freq.    1071.65  E(vib)   ...       0.02 
freq.    1094.27  E(vib)   ...       0.02 
freq.    1188.16  E(vib)   ...       0.01 
freq.    1221.49  E(vib)   ...       0.01 
freq.    1302.10  E(vib)   ...       0.01 
freq.    1319.95  E(vib)   ...       0.01 
freq.    1347.86  E(vib)   ...       0.01 
freq.    1357.03  E(vib)   ...       0.01 
freq.    1405.52  E(vib)   ...       0.00 
freq.    1430.04  E(vib)   ...       0.00 
freq.    1434.34  E(vib)   ...       0.00 
freq.    1493.42  E(vib)   ...       0.00 
freq.    1495.24  E(vib)   ...       0.00 
freq.    1503.01  E(vib)   ...       0.00 
freq.    1505.75  E(vib)   ...       0.00 
freq.    1516.40  E(vib)   ...       0.00 
freq.    1522.34  E(vib)   ...       0.00 
freq.    1662.05  E(vib)   ...       0.00 
freq.    1669.72  E(vib)   ...       0.00 
freq.    3046.97  E(vib)   ...       0.00 
freq.    3067.32  E(vib)   ...       0.00 
freq.    3074.10  E(vib)   ...       0.00 
freq.    3088.16  E(vib)   ...       0.00 
freq.    3112.35  E(vib)   ...       0.00 
freq.    3116.32  E(vib)   ...       0.00 
freq.    3148.36  E(vib)   ...       0.00 
freq.    3168.57  E(vib)   ...       0.00 
freq.    3178.59  E(vib)   ...       0.00 
freq.    3443.68  E(vib)   ...       0.00 
freq.    3524.61  E(vib)   ...       0.00 
freq.    3531.98  E(vib)   ...       0.00 

------------
INNER ENERGY
------------

The inner energy is: U= E(el) + E(ZPE) + E(vib) + E(rot) + E(trans)
    E(el)   - is the total energy from the electronic structure calculation
              = E(kin-el) + E(nuc-el) + E(el-el) + E(nuc-nuc)
    E(ZPE)  - the the zero temperature vibrational energy from the frequency calculation
    E(vib)  - the the finite temperature correction to E(ZPE) due to population
              of excited vibrational states
    E(rot)  - is the rotational thermal energy
    E(trans)- is the translational thermal energy

Summary of contributions to the inner energy U:
Electronic energy                ...   -214.19037748 Eh
Zero point energy                ...      0.16605638 Eh     104.20 kcal/mol
Thermal vibrational correction   ...      0.00441675 Eh       2.77 kcal/mol
Thermal rotational correction    ...      0.00141627 Eh       0.89 kcal/mol
Thermal translational correction ...      0.00141627 Eh       0.89 kcal/mol
-----------------------------------------------------------------------
Total thermal energy                   -214.01707180 Eh


Summary of corrections to the electronic energy:
(perhaps to be used in another calculation)
Total thermal correction                  0.00724930 Eh       4.55 kcal/mol
Non-thermal (ZPE) correction              0.16605638 Eh     104.20 kcal/mol
-----------------------------------------------------------------------
Total correction                          0.17330568 Eh     108.75 kcal/mol


--------
ENTHALPY
--------

The enthalpy is H = U + kB*T
                kB is Boltzmann's constant
Total free energy                 ...   -214.01707180 Eh 
Thermal Enthalpy correction       ...      0.00094421 Eh       0.59 kcal/mol
-----------------------------------------------------------------------
Total Enthalpy                    ...   -214.01612759 Eh


Note: Only C1 symmetry has been detected, increase convergence thresholds 
      if your molecule has a higher symmetry. Symmetry factor of 1.0 is   
      used for the rotational entropy correction. 
 

Note: Rotational entropy computed according to Herzberg 
Infrared and Raman Spectra, Chapter V,1, Van Nostrand Reinhold, 1945 
Point Group:  C1, Symmetry Number:   1  
Rotational constants in cm-1:     0.567583     0.063833     0.060529 

Vibrational entropy computed according to the QRRHO of S. Grimme
Chem.Eur.J. 2012 18 9955


-------
ENTROPY
-------

The entropy contributions are T*S = T*(S(el)+S(vib)+S(rot)+S(trans))
     S(el)   - electronic entropy
     S(vib)  - vibrational entropy
     S(rot)  - rotational entropy
     S(trans)- translational entropy
The entropies will be listed as multiplied by the temperature to get
units of energy

Electronic entropy                ...      0.00000000 Eh      0.00 kcal/mol
Vibrational entropy               ...      0.00779954 Eh      4.89 kcal/mol
Rotational entropy                ...      0.01240118 Eh      7.78 kcal/mol
Translational entropy             ...      0.01844761 Eh     11.58 kcal/mol
-----------------------------------------------------------------------
Final entropy term                ...      0.03864832 Eh     24.25 kcal/mol

In case the symmetry of your molecule has not been determined correctly
or in case you have a reason to use a different symmetry number we print 
out the resulting rotational entropy values for sn=1,12 :
 --------------------------------------------------------
|  sn= 1 | S(rot)=       0.01240118 Eh      7.78 kcal/mol|
|  sn= 2 | S(rot)=       0.01174672 Eh      7.37 kcal/mol|
|  sn= 3 | S(rot)=       0.01136389 Eh      7.13 kcal/mol|
|  sn= 4 | S(rot)=       0.01109226 Eh      6.96 kcal/mol|
|  sn= 5 | S(rot)=       0.01088157 Eh      6.83 kcal/mol|
|  sn= 6 | S(rot)=       0.01070943 Eh      6.72 kcal/mol|
|  sn= 7 | S(rot)=       0.01056388 Eh      6.63 kcal/mol|
|  sn= 8 | S(rot)=       0.01043781 Eh      6.55 kcal/mol|
|  sn= 9 | S(rot)=       0.01032660 Eh      6.48 kcal/mol|
|  sn=10 | S(rot)=       0.01022712 Eh      6.42 kcal/mol|
|  sn=11 | S(rot)=       0.01013713 Eh      6.36 kcal/mol|
|  sn=12 | S(rot)=       0.01005497 Eh      6.31 kcal/mol|
 --------------------------------------------------------


-------------------
GIBBS FREE ENERGY
-------------------

The Gibbs free energy is G = H - T*S

Total enthalpy                    ...   -214.01612759 Eh 
Total entropy correction          ...     -0.03864832 Eh    -24.25 kcal/mol
-----------------------------------------------------------------------
Final Gibbs free energy         ...   -214.05477591 Eh

For completeness - the Gibbs free energy minus the electronic energy
G-E(el)                           ...      0.13560157 Eh     85.09 kcal/mol


Timings for individual modules:

Sum of individual times         ...      180.353 sec (=   3.006 min)
GTO integral calculation        ...        4.011 sec (=   0.067 min)   2.2 %
SCF iterations                  ...       82.695 sec (=   1.378 min)  45.9 %
SCF Gradient evaluation         ...       19.126 sec (=   0.319 min)  10.6 %
Geometry relaxation             ...        0.204 sec (=   0.003 min)   0.1 %
Analytical frequency calculation...       74.317 sec (=   1.239 min)  41.2 %
                             ****ORCA TERMINATED NORMALLY****
TOTAL RUN TIME: 0 days 0 hours 3 minutes 3 seconds 16 msec
