
                                 *****************
                                 * O   R   C   A *
                                 *****************

                                            #,                                       
                                            ###                                      
                                            ####                                     
                                            #####                                    
                                            ######                                   
                                           ########,                                 
                                     ,,################,,,,,                         
                               ,,#################################,,                 
                          ,,##########################################,,             
                       ,#########################################, ''#####,          
                    ,#############################################,,   '####,        
                  ,##################################################,,,,####,       
                ,###########''''           ''''###############################       
              ,#####''   ,,,,##########,,,,          '''####'''          '####       
            ,##' ,,,,###########################,,,                        '##       
           ' ,,###''''                  '''############,,,                           
         ,,##''                                '''############,,,,        ,,,,,,###''
      ,#''                                            '''#######################'''  
     '                                                          ''''####''''         
             ,#######,   #######,   ,#######,      ##                                
            ,#'     '#,  ##    ##  ,#'     '#,    #''#        ######   ,####,        
            ##       ##  ##   ,#'  ##            #'  '#       #        #'  '#        
            ##       ##  #######   ##           ,######,      #####,   #    #        
            '#,     ,#'  ##    ##  '#,     ,#' ,#      #,         ##   #,  ,#        
             '#######'   ##     ##  '#######'  #'      '#     #####' # '####'        



                  #######################################################
                  #                        -***-                        #
                  #          Department of theory and spectroscopy      #
                  #    Directorship and core code : Frank Neese         #
                  #        Max Planck Institute fuer Kohlenforschung    #
                  #                Kaiser Wilhelm Platz 1               #
                  #                 D-45470 Muelheim/Ruhr               #
                  #                      Germany                        #
                  #                                                     #
                  #                  All rights reserved                #
                  #                        -***-                        #
                  #######################################################


                         Program Version 5.0.3 -  RELEASE  -


 With contributions from (in alphabetic order):
   Daniel Aravena         : Magnetic Suceptibility
   Michael Atanasov       : Ab Initio Ligand Field Theory (pilot matlab implementation)
   Alexander A. Auer      : GIAO ZORA, VPT2 properties, NMR spectrum
   Ute Becker             : Parallelization
   Giovanni Bistoni       : ED, misc. LED, open-shell LED, HFLD
   Martin Brehm           : Molecular dynamics
   Dmytro Bykov           : SCF Hessian
   Vijay G. Chilkuri      : MRCI spin determinant printing, contributions to CSF-ICE
   Dipayan Datta          : RHF DLPNO-CCSD density
   Achintya Kumar Dutta   : EOM-CC, STEOM-CC
   Dmitry Ganyushin       : Spin-Orbit,Spin-Spin,Magnetic field MRCI
   Miquel Garcia          : C-PCM and meta-GGA Hessian, CC/C-PCM, Gaussian charge scheme
   Yang Guo               : DLPNO-NEVPT2, F12-NEVPT2, CIM, IAO-localization
   Andreas Hansen         : Spin unrestricted coupled pair/coupled cluster methods
   Benjamin Helmich-Paris : MC-RPA, TRAH-SCF, COSX integrals
   Lee Huntington         : MR-EOM, pCC
   Robert Izsak           : Overlap fitted RIJCOSX, COSX-SCS-MP3, EOM
   Marcus Kettner         : VPT2
   Christian Kollmar      : KDIIS, OOCD, Brueckner-CCSD(T), CCSD density, CASPT2, CASPT2-K
   Simone Kossmann        : Meta GGA functionals, TD-DFT gradient, OOMP2, MP2 Hessian
   Martin Krupicka        : Initial AUTO-CI
   Lucas Lang             : DCDCAS
   Marvin Lechner         : AUTO-CI (C++ implementation), FIC-MRCC
   Dagmar Lenk            : GEPOL surface, SMD
   Dimitrios Liakos       : Extrapolation schemes; Compound Job, initial MDCI parallelization
   Dimitrios Manganas     : Further ROCIS development; embedding schemes
   Dimitrios Pantazis     : SARC Basis sets
   Anastasios Papadopoulos: AUTO-CI, single reference methods and gradients
   Taras Petrenko         : DFT Hessian,TD-DFT gradient, ASA, ECA, R-Raman, ABS, FL, XAS/XES, NRVS
   Peter Pinski           : DLPNO-MP2, DLPNO-MP2 Gradient
   Christoph Reimann      : Effective Core Potentials
   Marius Retegan         : Local ZFS, SOC
   Christoph Riplinger    : Optimizer, TS searches, QM/MM, DLPNO-CCSD(T), (RO)-DLPNO pert. Triples
   Tobias Risthaus        : Range-separated hybrids, TD-DFT gradient, RPA, STAB
   Michael Roemelt        : Original ROCIS implementation
   Masaaki Saitow         : Open-shell DLPNO-CCSD energy and density
   Barbara Sandhoefer     : DKH picture change effects
   Avijit Sen             : IP-ROCIS
   Kantharuban Sivalingam : CASSCF convergence, NEVPT2, FIC-MRCI
   Bernardo de Souza      : ESD, SOC TD-DFT
   Georgi Stoychev        : AutoAux, RI-MP2 NMR, DLPNO-MP2 response
   Willem Van den Heuvel  : Paramagnetic NMR
   Boris Wezisla          : Elementary symmetry handling
   Frank Wennmohs         : Technical directorship


 We gratefully acknowledge several colleagues who have allowed us to
 interface, adapt or use parts of their codes:
   Stefan Grimme, W. Hujo, H. Kruse, P. Pracht,  : VdW corrections, initial TS optimization,
                  C. Bannwarth, S. Ehlert          DFT functionals, gCP, sTDA/sTD-DF
   Ed Valeev, F. Pavosevic, A. Kumar             : LibInt (2-el integral package), F12 methods
   Garnet Chan, S. Sharma, J. Yang, R. Olivares  : DMRG
   Ulf Ekstrom                                   : XCFun DFT Library
   Mihaly Kallay                                 : mrcc  (arbitrary order and MRCC methods)
   Jiri Pittner, Ondrej Demel                    : Mk-CCSD
   Frank Weinhold                                : gennbo (NPA and NBO analysis)
   Christopher J. Cramer and Donald G. Truhlar   : smd solvation model
   Lars Goerigk                                  : TD-DFT with DH, B97 family of functionals
   V. Asgeirsson, H. Jonsson                     : NEB implementation
   FAccTs GmbH                                   : IRC, NEB, NEB-TS, DLPNO-Multilevel, CI-OPT
                                                   MM, QMMM, 2- and 3-layer-ONIOM, Crystal-QMMM,
                                                   LR-CPCM, SF, NACMEs, symmetry and pop. for TD-DFT,
                                                   nearIR, NL-DFT gradient (VV10), updates on ESD,
                                                   ML-optimized integration grids
   S Lehtola, MJT Oliveira, MAL Marques          : LibXC Library
   Liviu Ungur et al                             : ANISO software


 Your calculation uses the libint2 library for the computation of 2-el integrals
 For citations please refer to: http://libint.valeyev.net

 Your ORCA version has been built with support for libXC version: 5.1.0
 For citations please refer to: https://tddft.org/programs/libxc/

 This ORCA versions uses:
   CBLAS   interface :  Fast vector & matrix operations
   LAPACKE interface :  Fast linear algebra routines
   SCALAPACK package :  Parallel linear algebra routines
   Shared memory     :  Shared parallel matrices
   BLAS/LAPACK       :  OpenBLAS 0.3.15  USE64BITINT DYNAMIC_ARCH NO_AFFINITY SkylakeX SINGLE_THREADED
        Core in use  :  SkylakeX
   Copyright (c) 2011-2014, The OpenBLAS Project


Your calculation utilizes the atom-pairwise dispersion correction
based on tight binding partial charges (D4)
Cite in your paper:
E.Caldeweyher, C.Bannwarth, S.Grimme, J.Chem.Phys., (2017), 147, 034112.
E.Caldeweyher, S.Ehlert, A.Hansen, H.Neugebauer, S.Grimme, J.Chem.Phys., (2018), in progress.
   

XCFun DFT library Copyright 2009-2010 Ulf Ekstrom and contributors.
See http://admol.org/xcfun for more information.
This is free software; see the source code for copying conditions.
There is ABSOLUTELY NO WARRANTY; not even for MERCHANTABILITY or FITNESS FOR A PARTICULAR PURPOSE.
For details see the documentation.
Scientific users of this library should cite U. Ekstrom, L. Visscher, R. Bast, A. J. Thorvaldsen and K. Ruud;
J.Chem.Theor.Comp. 2010, DOI: 10.1021/ct100117s
XCFun Version 0.99 

================================================================================

----- Orbital basis set information -----
Your calculation utilizes the basis: def2-SVP
   F. Weigend and R. Ahlrichs, Phys. Chem. Chem. Phys. 7, 3297 (2005).

----- AuxJ basis set information -----
Your calculation utilizes the auxiliary basis: def2/J
   F. Weigend, Phys. Chem. Chem. Phys. 8, 1057 (2006).

================================================================================
                                        WARNINGS
                       Please study these warnings very carefully!
================================================================================


WARNING: Geometry Optimization
  ===> : Switching off AutoStart
         For restart on a previous wavefunction, please use MOREAD

INFO   : the flag for use of the SHARK integral package has been found!

================================================================================
                                       INPUT FILE
================================================================================
NAME = Min_116.inp
|  1> ! Opt FREQ wB97X D4 Def2-SVP SlowConv TightSCF DEFGRID2 Def2/J RIJCOSX
|  2> %MAXCORE 4000
|  3> %scf MaxIter 20000 end
|  4> %geom
|  5> MaxIter 500
|  6> end
|  7> %PAL NPROCS 8 END
|  8> 
|  9> * xyz 1 1
| 10> N 0.11642 1.11977 1.04633
| 11> N -0.03944 -1.05348 1.03349
| 12> C 0.06405 0.67264 -0.28796
| 13> C 0.072 -0.68979 -0.28215
| 14> C 0.05861 0.03969 1.86197
| 15> Cl -0.17288 1.77087 -1.57584
| 16> Cl 0.12072 -1.84334 -1.52211
| 17> C 0.31268 2.47575 1.44556
| 18> C -0.40995 -2.38487 1.47401
| 19> H 0.26352 2.62701 2.53394
| 20> H -0.09598 -2.5416 2.51294
| 21> H -0.47577 3.0743 0.97132
| 22> H -1.50036 -2.44903 1.43847
| 23> H 0.11382 -3.10947 0.85108
| 24> H 1.30829 2.78248 1.08612
| 25> H 0.08511 -0.06316 2.94733
| 26> **                         ****END OF INPUT****
================================================================================

                       *****************************
                       * Geometry Optimization Run *
                       *****************************

Geometry optimization settings:
Update method            Update   .... BFGS
Choice of coordinates    CoordSys .... Z-matrix Internals
Initial Hessian          InHess   .... Almoef's Model

Convergence Tolerances:
Energy Change            TolE     ....  5.0000e-06 Eh
Max. Gradient            TolMAXG  ....  3.0000e-04 Eh/bohr
RMS Gradient             TolRMSG  ....  1.0000e-04 Eh/bohr
Max. Displacement        TolMAXD  ....  4.0000e-03 bohr
RMS Displacement         TolRMSD  ....  2.0000e-03 bohr
Strict Convergence                ....  False
------------------------------------------------------------------------------
                        ORCA OPTIMIZATION COORDINATE SETUP
------------------------------------------------------------------------------

The optimization will be done in new redundant internal coordinates
Making redundant internal coordinates   ...  (new redundants) done
Evaluating the initial hessian          ...  (Almloef) done
Evaluating the coordinates              ...  done
Calculating the B-matrix                .... done
Calculating the G-matrix                .... done
Diagonalizing the G-matrix              .... done
The first mode is                       ....   33
The number of degrees of freedom        ....   42

    -----------------------------------------------------------------
                    Redundant Internal Coordinates


    -----------------------------------------------------------------
         Definition                    Initial Value    Approx d2E/dq
    -----------------------------------------------------------------
      1. B(C   2,N   0)                  1.4082         0.523426   
      2. B(C   3,C   2)                  1.3625         0.691302   
      3. B(C   3,N   1)                  1.3695         0.603313   
      4. B(C   4,N   0)                  1.3547         0.637105   
      5. B(C   4,N   1)                  1.3751         0.590992   
      6. B(Cl  5,C   2)                  1.7091         0.434208   
      7. B(Cl  6,C   3)                  1.6943         0.458449   
      8. B(C   7,N   0)                  1.4271         0.488317   
      9. B(C   8,N   1)                  1.4505         0.448085   
     10. B(H   9,C   7)                  1.0999         0.347188   
     11. B(H  10,C   8)                  1.0966         0.351483   
     12. B(H  11,C   7)                  1.0976         0.350131   
     13. B(H  12,C   8)                  1.0929         0.356318   
     14. B(H  13,C   8)                  1.0897         0.360512   
     15. B(H  14,C   7)                  1.1021         0.344504   
     16. B(H  15,C   4)                  1.0905         0.359381   
     17. A(C   2,N   0,C   4)          108.4059         0.417667   
     18. A(C   4,N   0,C   7)          126.5124         0.412543   
     19. A(C   2,N   0,C   7)          124.8817         0.398466   
     20. A(C   3,N   1,C   8)          123.7998         0.402417   
     21. A(C   4,N   1,C   8)          124.3965         0.400957   
     22. A(C   3,N   1,C   4)          111.2142         0.422682   
     23. A(N   0,C   2,Cl  5)          121.0064         0.410376   
     24. A(C   3,C   2,Cl  5)          130.2857         0.434101   
     25. A(N   0,C   2,C   3)          108.2555         0.426575   
     26. A(C   2,C   3,Cl  6)          132.6784         0.438370   
     27. A(N   1,C   3,C   2)          105.6151         0.437604   
     28. A(N   1,C   3,Cl  6)          121.6408         0.424982   
     29. A(N   0,C   4,H  15)          132.3285         0.352235   
     30. A(N   1,C   4,H  15)          121.7602         0.347797   
     31. A(N   0,C   4,N   1)          105.9090         0.426824   
     32. A(N   0,C   7,H   9)          113.6613         0.334928   
     33. A(H  11,C   7,H  14)          110.8697         0.287561   
     34. A(H   9,C   7,H  14)          108.9552         0.287182   
     35. A(N   0,C   7,H  14)          107.3049         0.334496   
     36. A(H   9,C   7,H  11)          108.6883         0.287910   
     37. A(N   0,C   7,H  11)          107.3664         0.335398   
     38. A(N   1,C   8,H  10)          110.2298         0.330860   
     39. A(H  12,C   8,H  13)          114.9576         0.290410   
     40. A(H  10,C   8,H  13)          107.9953         0.289788   
     41. A(N   1,C   8,H  13)          108.2984         0.332252   
     42. A(H  10,C   8,H  12)          107.9440         0.289257   
     43. A(N   1,C   8,H  12)          107.3898         0.331609   
     44. D(Cl  5,C   2,N   0,C   7)    -16.1712         0.021733   
     45. D(Cl  5,C   2,N   0,C   4)    168.6917         0.021733   
     46. D(C   3,C   2,N   0,C   4)     -4.3457         0.021733   
     47. D(C   3,C   2,N   0,C   7)    170.7913         0.021733   
     48. D(Cl  6,C   3,C   2,Cl  5)     12.1161         0.033588   
     49. D(Cl  6,C   3,C   2,N   0)   -175.7121         0.033588   
     50. D(Cl  6,C   3,N   1,C   4)    174.7159         0.029353   
     51. D(C   2,C   3,N   1,C   8)    163.6441         0.029353   
     52. D(C   2,C   3,N   1,C   4)     -7.8807         0.029353   
     53. D(N   1,C   3,C   2,N   0)      7.2953         0.033588   
     54. D(Cl  6,C   3,N   1,C   8)    -13.7593         0.029353   
     55. D(N   1,C   3,C   2,Cl  5)   -164.8766         0.033588   
     56. D(H  15,C   4,N   0,C   2)    178.9460         0.033013   
     57. D(N   1,C   4,N   0,C   7)   -175.5294         0.033013   
     58. D(N   1,C   4,N   0,C   2)     -0.4930         0.033013   
     59. D(H  15,C   4,N   1,C   8)     14.2602         0.028084   
     60. D(H  15,C   4,N   1,C   3)   -174.2755         0.028084   
     61. D(N   0,C   4,N   1,C   8)   -166.2276         0.028084   
     62. D(N   0,C   4,N   1,C   3)      5.2368         0.028084   
     63. D(H  15,C   4,N   0,C   7)      3.9097         0.033013   
     64. D(H  14,C   7,N   0,C   4)    111.3887         0.020417   
     65. D(H  14,C   7,N   0,C   2)    -62.8676         0.020417   
     66. D(H  11,C   7,N   0,C   4)   -129.3764         0.020417   
     67. D(H  11,C   7,N   0,C   2)     56.3673         0.020417   
     68. D(H   9,C   7,N   0,C   4)     -9.1401         0.020417   
     69. D(H   9,C   7,N   0,C   2)    176.6036         0.020417   
     70. D(H  12,C   8,N   1,C   4)     87.7121         0.017126   
     71. D(H  12,C   8,N   1,C   3)    -82.7030         0.017126   
     72. D(H  10,C   8,N   1,C   4)    -29.6416         0.017126   
     73. D(H  13,C   8,N   1,C   3)     41.9966         0.017126   
     74. D(H  10,C   8,N   1,C   3)    159.9433         0.017126   
     75. D(H  13,C   8,N   1,C   4)   -147.5883         0.017126   
    -----------------------------------------------------------------

Number of atoms                         .... 16
Number of degrees of freedom            .... 75

         *************************************************************
         *                GEOMETRY OPTIMIZATION CYCLE   1            *
         *************************************************************
---------------------------------
CARTESIAN COORDINATES (ANGSTROEM)
---------------------------------
  N      0.116420    1.119770    1.046330
  N     -0.039440   -1.053480    1.033490
  C      0.064050    0.672640   -0.287960
  C      0.072000   -0.689790   -0.282150
  C      0.058610    0.039690    1.861970
  Cl    -0.172880    1.770870   -1.575840
  Cl     0.120720   -1.843340   -1.522110
  C      0.312680    2.475750    1.445560
  C     -0.409950   -2.384870    1.474010
  H      0.263520    2.627010    2.533940
  H     -0.095980   -2.541600    2.512940
  H     -0.475770    3.074300    0.971320
  H     -1.500360   -2.449030    1.438470
  H      0.113820   -3.109470    0.851080
  H      1.308290    2.782480    1.086120
  H      0.085110   -0.063160    2.947330

----------------------------
CARTESIAN COORDINATES (A.U.)
----------------------------
  NO LB      ZA    FRAG     MASS         X           Y           Z
   0 N     7.0000    0    14.007    0.220002    2.116059    1.977277
   1 N     7.0000    0    14.007   -0.074531   -1.990789    1.953013
   2 C     6.0000    0    12.011    0.121037    1.271105   -0.544166
   3 C     6.0000    0    12.011    0.136060   -1.303514   -0.533186
   4 C     6.0000    0    12.011    0.110757    0.075003    3.518613
   5 Cl   17.0000    0    35.453   -0.326696    3.346459   -2.977906
   6 Cl   17.0000    0    35.453    0.228128   -3.483408   -2.876371
   7 C     6.0000    0    12.011    0.590880    4.678489    2.731713
   8 C     6.0000    0    12.011   -0.774693   -4.506751    2.785475
   9 H     1.0000    0     1.008    0.497981    4.964329    4.788453
  10 H     1.0000    0     1.008   -0.181376   -4.802928    4.748768
  11 H     1.0000    0     1.008   -0.899075    5.809585    1.835529
  12 H     1.0000    0     1.008   -2.835270   -4.627996    2.718314
  13 H     1.0000    0     1.008    0.215089   -5.876047    1.608308
  14 H     1.0000    0     1.008    2.472310    5.258125    2.052469
  15 H     1.0000    0     1.008    0.160835   -0.119355    5.569647

--------------------------------
INTERNAL COORDINATES (ANGSTROEM)
--------------------------------
 N      0   0   0     0.000000000000     0.00000000     0.00000000
 N      1   0   0     2.178869607778     0.00000000     0.00000000
 C      1   2   0     1.408189496446    71.03768255     0.00000000
 C      3   1   2     1.362465582501   108.25552293   355.33787276
 C      1   2   3     1.354689415364    37.36948922   180.49466324
 Cl     3   1   2     1.709058176950   121.00642052   168.37531238
 Cl     4   3   1     1.694270356968   132.67841027   184.28793821
 C      1   2   3     1.427089464925   163.57832710   193.29811129
 C      2   1   3     1.450494695819   158.74904409   212.32331465
 H      8   1   2     1.099939688165   113.66129723   341.22605575
 H      9   2   1     1.096593360686   110.22982095   307.23398577
 H      8   1   2     1.097642511294   107.36635262   220.98977466
 H      9   2   1     1.092873993331   107.38984445    64.58775377
 H      9   2   1     1.089688927080   108.29837111   189.28728995
 H      8   1   2     1.102052484503   107.30493352   101.75483919
 H      5   1   2     1.090544222900   132.32848520   179.43904066

---------------------------
INTERNAL COORDINATES (A.U.)
---------------------------
 N      0   0   0     0.000000000000     0.00000000     0.00000000
 N      1   0   0     4.117466840225     0.00000000     0.00000000
 C      1   2   0     2.661092492947    71.03768255     0.00000000
 C      3   1   2     2.574686817821   108.25552293   355.33787276
 C      1   2   3     2.559991991560    37.36948922   180.49466324
 Cl     3   1   2     3.229651901374   121.00642052   168.37531238
 Cl     4   3   1     3.201706971490   132.67841027   184.28793821
 C      1   2   3     2.696808257313   163.57832710   193.29811129
 C      2   1   3     2.741037733804   158.74904409   212.32331465
 H      8   1   2     2.078584774462   113.66129723   341.22605575
 H      9   2   1     2.072261131972   110.22982095   307.23398577
 H      8   1   2     2.074243739295   107.36635262   220.98977466
 H      9   2   1     2.065232546281   107.38984445    64.58775377
 H      9   2   1     2.059213643347   108.29837111   189.28728995
 H      8   1   2     2.082577380919   107.30493352   101.75483919
 H      5   1   2     2.060829918210   132.32848520   179.43904066

---------------------
BASIS SET INFORMATION
---------------------
There are 4 groups of distinct atoms

 Group   1 Type N   : 7s4p1d contracted to 3s2p1d pattern {511/31/1}
 Group   2 Type C   : 7s4p1d contracted to 3s2p1d pattern {511/31/1}
 Group   3 Type Cl  : 10s7p1d contracted to 4s3p1d pattern {5311/511/1}
 Group   4 Type H   : 4s1p contracted to 2s1p pattern {31/1}

Atom   0N    basis set group =>   1
Atom   1N    basis set group =>   1
Atom   2C    basis set group =>   2
Atom   3C    basis set group =>   2
Atom   4C    basis set group =>   2
Atom   5Cl   basis set group =>   3
Atom   6Cl   basis set group =>   3
Atom   7C    basis set group =>   2
Atom   8C    basis set group =>   2
Atom   9H    basis set group =>   4
Atom  10H    basis set group =>   4
Atom  11H    basis set group =>   4
Atom  12H    basis set group =>   4
Atom  13H    basis set group =>   4
Atom  14H    basis set group =>   4
Atom  15H    basis set group =>   4
---------------------------------
AUXILIARY/J BASIS SET INFORMATION
---------------------------------
There are 4 groups of distinct atoms

 Group   1 Type N   : 12s5p4d2f1g contracted to 6s4p3d1f1g pattern {711111/2111/211/2/1}
 Group   2 Type C   : 12s5p4d2f1g contracted to 6s4p3d1f1g pattern {711111/2111/211/2/1}
 Group   3 Type Cl  : 14s5p5d2f1g contracted to 8s4p3d1f1g pattern {71111111/2111/311/2/1}
 Group   4 Type H   : 5s2p1d contracted to 3s1p1d pattern {311/2/1}

Atom   0N    basis set group =>   1
Atom   1N    basis set group =>   1
Atom   2C    basis set group =>   2
Atom   3C    basis set group =>   2
Atom   4C    basis set group =>   2
Atom   5Cl   basis set group =>   3
Atom   6Cl   basis set group =>   3
Atom   7C    basis set group =>   2
Atom   8C    basis set group =>   2
Atom   9H    basis set group =>   4
Atom  10H    basis set group =>   4
Atom  11H    basis set group =>   4
Atom  12H    basis set group =>   4
Atom  13H    basis set group =>   4
Atom  14H    basis set group =>   4
Atom  15H    basis set group =>   4


           ************************************************************
           *        Program running with 8 parallel MPI-processes     *
           *              working on a common directory               *
           ************************************************************
------------------------------------------------------------------------------
                           ORCA GTO INTEGRAL CALCULATION
                           -- RI-GTO INTEGRALS CHOSEN --
------------------------------------------------------------------------------
------------------------------------------------------------------------------
                   ___                                                        
                  /   \      - P O W E R E D   B Y -                         
                 /     \                                                     
                 |  |  |   _    _      __       _____    __    __             
                 |  |  |  | |  | |    /  \     |  _  \  |  |  /  |          
                  \  \/   | |  | |   /    \    | | | |  |  | /  /          
                 / \  \   | |__| |  /  /\  \   | |_| |  |  |/  /          
                |  |  |   |  __  | /  /__\  \  |    /   |      \           
                |  |  |   | |  | | |   __   |  |    \   |  |\   \          
                \     /   | |  | | |  |  |  |  | |\  \  |  | \   \       
                 \___/    |_|  |_| |__|  |__|  |_| \__\ |__|  \__/        
                                                                              
                      - O R C A' S   B I G   F R I E N D -                    
                                      &                                       
                       - I N T E G R A L  F E E D E R -                       
                                                                              
 v1 FN, 2020, v2 2021                                                         
------------------------------------------------------------------------------


Reading SHARK input file Min_116.SHARKINP.tmp ... ok
----------------------
SHARK INTEGRAL PACKAGE
----------------------

Number of atoms                             ...     16
Number of basis functions                   ...    169
Number of shells                            ...     79
Maximum angular momentum                    ...      2
Integral batch strategy                     ... SHARK/LIBINT Hybrid
RI-J (if used) integral strategy            ... SPLIT-RIJ (Revised 2003 algorithm where possible)
Printlevel                                  ...      1
Contraction scheme used                     ... SEGMENTED contraction
Coulomb Range Separation                    ... NOT USED
Exchange Range Separation                   ... Long Range
   Mu parameter                             ...  0.300000
   Scaling (regular/separated)              ...  0.157706  0.842294
Finite Nucleus Model                        ... NOT USED
Auxiliary Coulomb fitting basis             ... AVAILABLE
   # of basis functions in Aux-J            ...    522
   # of shells in Aux-J                     ...    174
   Maximum angular momentum in Aux-J        ...      4
Auxiliary J/K fitting basis                 ... NOT available
Auxiliary Correlation fitting basis         ... NOT available
Auxiliary 'external' fitting basis          ... NOT available
Integral threshold                          ...     2.500000e-11
Primitive cut-off                           ...     2.500000e-12
Primitive pair pre-selection threshold      ...     2.500000e-12

Calculating pre-screening integrals         ... done (  0.1 sec) Dimension = 79
Organizing shell pair data                  ... done (  0.0 sec)
Shell pair information
Total number of shell pairs                 ...      3160
Shell pairs after pre-screening             ...      2855
Total number of primitive shell pairs       ...     12248
Primitive shell pairs kept                  ...      7801
          la=0 lb=0:    858 shell pairs
          la=1 lb=0:   1041 shell pairs
          la=1 lb=1:    338 shell pairs
          la=2 lb=0:    353 shell pairs
          la=2 lb=1:    223 shell pairs
          la=2 lb=2:     42 shell pairs

Calculating one electron integrals          ... done (  0.0 sec)
Calculating RI/J V-Matrix + Cholesky decomp.... done (  0.0 sec)
Calculating Nuclear repulsion               ... done (  0.0 sec) ENN=    620.726331009962 Eh

SHARK setup successfully completed in   0.2 seconds

Maximum memory used throughout the entire GTOINT-calculation: 11.6 MB


           ************************************************************
           *        Program running with 8 parallel MPI-processes     *
           *              working on a common directory               *
           ************************************************************
-------------------------------------------------------------------------------
                                 ORCA SCF
-------------------------------------------------------------------------------

------------
SCF SETTINGS
------------
Hamiltonian:
 Density Functional     Method          .... DFT(GTOs)
 Exchange Functional    Exchange        .... WB97X
 Correlation Functional Correlation     .... WB97X
 Gradients option       PostSCFGGA      .... off
 Hybrid DFT is turned on
   Fraction HF Exchange ScalHFX         ....  0.157706
   Scaling of DF-GGA-X  ScalDFX         ....  0.000000
   Scaling of DF-GGA-C  ScalDFC         ....  1.000000
   Scaling of DF-LDA-C  ScalLDAC        ....  1.000000
   Perturbative correction              ....  0.000000
   Density functional embedding theory  .... OFF
 Long-range corrected/Screened/Range-Separated Hybrid DFT is turned on
   Amount of maximum screened exact exchange              ....  0.842294
   Range separation parameter mu (erf(mu*r12)/r12)        ....  0.300000
 RI-approximation to the Coulomb term is turned on
   Number of AuxJ basis functions       .... 522
   RIJ-COSX (HFX calculated with COS-X)).... on


General Settings:
 Integral files         IntName         .... Min_116
 Hartree-Fock type      HFTyp           .... RHF
 Total Charge           Charge          ....    1
 Multiplicity           Mult            ....    1
 Number of Electrons    NEL             ....   84
 Basis Dimension        Dim             ....  169
 Nuclear Repulsion      ENuc            ....    620.7263310100 Eh

Convergence Acceleration:
 DIIS                   CNVDIIS         .... on
   Start iteration      DIISMaxIt       ....     0
   Startup error        DIISStart       ....  0.200000
   # of expansion vecs  DIISMaxEq       ....     5
   Bias factor          DIISBfac        ....   1.050
   Max. coefficient     DIISMaxC        ....  10.000
 Trust-Rad. Augm. Hess. CNVTRAH         .... auto
   Auto Start mean grad. ratio tolernc. ....  1.125000
   Auto Start start iteration           ....    20
   Auto Start num. interpolation iter.  ....    10
   Max. Number of Micro iterations      ....    16
   Max. Number of Macro iterations      .... Maxiter - #DIIS iter
   Number of Davidson start vectors     ....     2
   Converg. threshold I  (grad. norm)   ....   1.000e-05
   Converg. threshold II (energy diff.) ....   1.000e-08
   Grad. Scal. Fac. for Micro threshold ....   0.100
   Minimum threshold for Micro iter.    ....   0.010
   NR start threshold (gradient norm)   ....   0.001
   Initial trust radius                 ....   0.400
   Minimum AH scaling param. (alpha)    ....   1.000
   Maximum AH scaling param. (alpha)    .... 1000.000
   Orbital update algorithm             .... Taylor
   White noise on init. David. guess    .... on
   Maximum white noise                  ....   0.010
   Quad. conv. algorithm                .... NR
 SOSCF                  CNVSOSCF        .... on
   Start iteration      SOSCFMaxIt      ....   150
   Startup grad/error   SOSCFStart      ....  0.001000
 Level Shifting         CNVShift        .... on
   Level shift para.    LevelShift      ....    0.2500
   Turn off err/grad.   ShiftErr        ....    0.0000
 Zerner damping         CNVZerner       .... off
 Static damping         CNVDamp         .... on
   Fraction old density DampFac         ....    0.8500
   Max. Damping (<1)    DampMax         ....    0.9800
   Min. Damping (>=0)   DampMin         ....    0.0000
   Turn off err/grad.   DampErr         ....    0.0300
 Fernandez-Rico         CNVRico         .... off

SCF Procedure:
 Maximum # iterations   MaxIter         .... 20000
 SCF integral mode      SCFMode         .... Direct
   Integral package                     .... SHARK and LIBINT hybrid scheme
 Reset frequency        DirectResetFreq ....    20
 Integral Threshold     Thresh          ....  2.500e-11 Eh
 Primitive CutOff       TCut            ....  2.500e-12 Eh

Convergence Tolerance:
 Convergence Check Mode ConvCheckMode   .... Total+1el-Energy
 Convergence forced     ConvForced      .... 0
 Energy Change          TolE            ....  1.000e-08 Eh
 1-El. energy change                    ....  1.000e-05 Eh
 Orbital Gradient       TolG            ....  1.000e-05
 Orbital Rotation angle TolX            ....  1.000e-05
 DIIS Error             TolErr          ....  5.000e-07


Diagonalization of the overlap matrix:
Smallest eigenvalue                        ... 9.282e-04
Time for diagonalization                   ...    0.005 sec
Threshold for overlap eigenvalues          ... 1.000e-08
Number of eigenvalues below threshold      ... 0
Time for construction of square roots      ...    0.005 sec
Total time needed                          ...    0.011 sec

Time for model grid setup =    0.072 sec

------------------------------
INITIAL GUESS: MODEL POTENTIAL
------------------------------
Loading Hartree-Fock densities                     ... done
Calculating cut-offs                               ... done
Initializing the effective Hamiltonian             ... done
Setting up the integral package (SHARK)            ... done
Starting the Coulomb interaction                   ... done (   0.0 sec)
Reading the grid                                   ... done
Mapping shells                                     ... done
Starting the XC term evaluation                    ... done (   0.0 sec)
  promolecular density results
     # of electrons  =     84.994849022
     EX              =    -95.583614914
     EC              =     -3.059674123
     EX+EC           =    -98.643289037
Transforming the Hamiltonian                       ... done (   0.0 sec)
Diagonalizing the Hamiltonian                      ... done (   0.0 sec)
Back transforming the eigenvectors                 ... done (   0.0 sec)
Now organizing SCF variables                       ... done
                      ------------------
                      INITIAL GUESS DONE (   0.2 sec)
                      ------------------
-------------------
DFT GRID GENERATION
-------------------

General Integration Accuracy     IntAcc      ... 4.388
Radial Grid Type                 RadialGrid  ... OptM3 with GC (2021)
Angular Grid (max. ang.)         AngularGrid ... 4 (Lebedev-302)
Angular grid pruning method      GridPruning ... 4 (adaptive)
Weight generation scheme         WeightScheme... Becke
Basis function cutoff            BFCut       ... 1.0000e-11
Integration weight cutoff        WCut        ... 1.0000e-14
Angular grids for H and He will be reduced by one unit
Partially contracted basis set               ... off
Rotationally invariant grid construction     ... off

Total number of grid points                  ...    79212
Total number of batches                      ...     1247
Average number of points per batch           ...       63
Average number of grid points per atom       ...     4951
Time for grid setup =    0.415 sec

--------------------
COSX GRID GENERATION
--------------------

GRIDX 1
-------
General Integration Accuracy     IntAcc      ... 3.816
Radial Grid Type                 RadialGrid  ... OptM3 with GC (2021)
Angular Grid (max. ang.)         AngularGrid ... 1 (Lebedev-50)
Angular grid pruning method      GridPruning ... 4 (adaptive)
Weight generation scheme         WeightScheme... Becke
Basis function cutoff            BFCut       ... 1.0000e-11
Integration weight cutoff        WCut        ... 1.0000e-14
Angular grids for H and He will be reduced by one unit
Partially contracted basis set               ... on
Rotationally invariant grid construction     ... off

Total number of grid points                  ...     9928
Total number of batches                      ...      164
Average number of points per batch           ...       60
Average number of grid points per atom       ...      620
UseSFitting                                  ... on

GRIDX 2
-------
General Integration Accuracy     IntAcc      ... 4.020
Radial Grid Type                 RadialGrid  ... OptM3 with GC (2021)
Angular Grid (max. ang.)         AngularGrid ... 2 (Lebedev-110)
Angular grid pruning method      GridPruning ... 4 (adaptive)
Weight generation scheme         WeightScheme... Becke
Basis function cutoff            BFCut       ... 1.0000e-11
Integration weight cutoff        WCut        ... 1.0000e-14
Angular grids for H and He will be reduced by one unit
Partially contracted basis set               ... on
Rotationally invariant grid construction     ... off

Total number of grid points                  ...    21803
Total number of batches                      ...      349
Average number of points per batch           ...       62
Average number of grid points per atom       ...     1363
UseSFitting                                  ... on

GRIDX 3
-------
General Integration Accuracy     IntAcc      ... 4.338
Radial Grid Type                 RadialGrid  ... OptM3 with GC (2021)
Angular Grid (max. ang.)         AngularGrid ... 3 (Lebedev-194)
Angular grid pruning method      GridPruning ... 4 (adaptive)
Weight generation scheme         WeightScheme... Becke
Basis function cutoff            BFCut       ... 1.0000e-11
Integration weight cutoff        WCut        ... 1.0000e-14
Angular grids for H and He will be reduced by one unit
Partially contracted basis set               ... on
Rotationally invariant grid construction     ... off

Total number of grid points                  ...    49113
Total number of batches                      ...      774
Average number of points per batch           ...       63
Average number of grid points per atom       ...     3070
UseSFitting                                  ... on

Time for X-Grid setup             =    0.412 sec

--------------
SCF ITERATIONS
--------------
ITER       Energy         Delta-E        Max-DP      RMS-DP      [F,P]     Damp
               ***  Starting incremental Fock matrix formation  ***
  0  -1223.7418833670   0.000000000000 0.02353726  0.00054495  0.1015732 0.8500
  1  -1223.7546982531  -0.012814886145 0.02142074  0.00051290  0.0819512 0.8500
                               ***Turning on DIIS***
  2  -1223.7645277664  -0.009829513327 0.01693812  0.00042688  0.0631098 0.8500
  3  -1223.7719588735  -0.007431107044 0.01099132  0.00033191  0.0480378 0.8500
  4  -1223.7777875732  -0.005828699728 0.00756900  0.00027353  0.0383300 0.8500
  5  -1223.7824392436  -0.004651670397 0.00586775  0.00023281  0.0318060 0.8500
  6  -1223.7862612531  -0.003822009544 0.03229695  0.00133133  0.0268629 0.0000
                      *** Initiating the SOSCF procedure ***
                           *** Shutting down DIIS ***
                      *** Re-Reading the Fockian *** 
                      *** Removing any level shift *** 
ITER      Energy       Delta-E        Grad      Rot      Max-DP    RMS-DP
  7  -1223.80681362  -0.0205523660  0.000767  0.000767  0.000896  0.000051
               *** Restarting incremental Fock matrix formation ***
  8  -1223.80687326  -0.0000596432  0.000440  0.000813  0.000668  0.000034
  9  -1223.80687792  -0.0000046569  0.000245  0.000591  0.000613  0.000022
 10  -1223.80687879  -0.0000008683  0.000116  0.000114  0.000206  0.000007
 11  -1223.80687900  -0.0000002142  0.000009  0.000017  0.000031  0.000001
 12  -1223.80687900  -0.0000000016  0.000012  0.000014  0.000027  0.000001
                  ***Gradient check signals convergence***
              ***Rediagonalizing the Fockian in SOSCF/NRSCF***

               *****************************************************
               *                     SUCCESS                       *
               *           SCF CONVERGED AFTER  13 CYCLES          *
               *****************************************************

Old exchange energy                            =    -26.411483832 Eh
New exchange energy                            =    -26.411464300 Eh
Exchange energy change after final integration =      0.000019532 Eh
Total energy after final integration           =  -1223.806859478 Eh
Final COS-X integration done in                =     3.234 sec

----------------
TOTAL SCF ENERGY
----------------

Total Energy       :        -1223.80685948 Eh          -33301.47766 eV

Components:
Nuclear Repulsion  :          620.72633101 Eh           16890.82218 eV
Electronic Energy  :        -1844.53319049 Eh          -50192.29984 eV
One Electron Energy:        -2898.04718046 Eh          -78859.87294 eV
Two Electron Energy:         1053.51398997 Eh           28667.57310 eV
Max COSX asymmetry :            0.00000200 Eh               0.00005 eV

Virial components:
Potential Energy   :        -2442.23319676 Eh          -66456.54387 eV
Kinetic Energy     :         1218.42633728 Eh           33155.06621 eV
Virial Ratio       :            2.00441596


DFT components:
N(Alpha)           :       42.000002702776 electrons
N(Beta)            :       42.000002702776 electrons
N(Total)           :       84.000005405552 electrons
E(XC)              :      -73.257015870420 Eh       
DFET-embed. en.    :        0.000000000000 Eh       

---------------
SCF CONVERGENCE
---------------

  Last Energy change         ...   -6.7571e-09  Tolerance :   1.0000e-08
  Last MAX-Density change    ...    4.4409e-15  Tolerance :   1.0000e-07
  Last RMS-Density change    ...    6.8836e-17  Tolerance :   5.0000e-09
  Last Orbital Gradient      ...    1.4617e-06  Tolerance :   1.0000e-05
  Last Orbital Rotation      ...    4.3108e-06  Tolerance :   1.0000e-05

             **** THE GBW FILE WAS UPDATED (Min_116.gbw) ****
             **** DENSITY Min_116.scfp WAS UPDATED ****
             **** ENERGY FILE WAS UPDATED (Min_116.en.tmp) ****
             **** THE GBW FILE WAS UPDATED (Min_116.gbw) ****
             **** DENSITY Min_116.scfp WAS UPDATED ****
----------------
ORBITAL ENERGIES
----------------

  NO   OCC          E(Eh)            E(eV) 
   0   2.0000    -101.664289     -2766.4259 
   1   2.0000    -101.659670     -2766.3003 
   2   2.0000     -14.693839      -399.8397 
   3   2.0000     -14.685457      -399.6116 
   4   2.0000     -10.566613      -287.5322 
   5   2.0000     -10.552525      -287.1488 
   6   2.0000     -10.551764      -287.1281 
   7   2.0000     -10.487448      -285.3780 
   8   2.0000     -10.486594      -285.3547 
   9   2.0000      -9.736606      -264.9465 
  10   2.0000      -9.731670      -264.8122 
  11   2.0000      -7.506331      -204.2576 
  12   2.0000      -7.501437      -204.1245 
  13   2.0000      -7.494019      -203.9226 
  14   2.0000      -7.493856      -203.9182 
  15   2.0000      -7.489119      -203.7893 
  16   2.0000      -7.488953      -203.7848 
  17   2.0000      -1.387040       -37.7433 
  18   2.0000      -1.273514       -34.6541 
  19   2.0000      -1.196003       -32.5449 
  20   2.0000      -1.159169       -31.5426 
  21   2.0000      -1.096480       -29.8367 
  22   2.0000      -1.048346       -28.5269 
  23   2.0000      -0.996185       -27.1076 
  24   2.0000      -0.919393       -25.0180 
  25   2.0000      -0.912795       -24.8384 
  26   2.0000      -0.837120       -22.7792 
  27   2.0000      -0.816847       -22.2275 
  28   2.0000      -0.783415       -21.3178 
  29   2.0000      -0.764543       -20.8043 
  30   2.0000      -0.751887       -20.4599 
  31   2.0000      -0.746146       -20.3037 
  32   2.0000      -0.731333       -19.9006 
  33   2.0000      -0.692837       -18.8530 
  34   2.0000      -0.687722       -18.7139 
  35   2.0000      -0.676624       -18.4119 
  36   2.0000      -0.638624       -17.3778 
  37   2.0000      -0.628510       -17.1026 
  38   2.0000      -0.600313       -16.3353 
  39   2.0000      -0.596930       -16.2433 
  40   2.0000      -0.568264       -15.4633 
  41   2.0000      -0.506348       -13.7784 
  42   0.0000      -0.125661        -3.4194 
  43   0.0000      -0.087351        -2.3769 
  44   0.0000      -0.037907        -1.0315 
  45   0.0000      -0.009922        -0.2700 
  46   0.0000       0.001714         0.0466 
  47   0.0000       0.015634         0.4254 
  48   0.0000       0.026039         0.7086 
  49   0.0000       0.050552         1.3756 
  50   0.0000       0.064459         1.7540 
  51   0.0000       0.075476         2.0538 
  52   0.0000       0.081520         2.2183 
  53   0.0000       0.090830         2.4716 
  54   0.0000       0.095013         2.5854 
  55   0.0000       0.120835         3.2881 
  56   0.0000       0.143487         3.9045 
  57   0.0000       0.164234         4.4690 
  58   0.0000       0.218869         5.9557 
  59   0.0000       0.236162         6.4263 
  60   0.0000       0.275770         7.5041 
  61   0.0000       0.297704         8.1009 
  62   0.0000       0.305655         8.3173 
  63   0.0000       0.337425         9.1818 
  64   0.0000       0.356056         9.6888 
  65   0.0000       0.375669        10.2225 
  66   0.0000       0.389032        10.5861 
  67   0.0000       0.401573        10.9274 
  68   0.0000       0.420243        11.4354 
  69   0.0000       0.459476        12.5030 
  70   0.0000       0.478146        13.0110 
  71   0.0000       0.503534        13.7018 
  72   0.0000       0.513046        13.9607 
  73   0.0000       0.537282        14.6202 
  74   0.0000       0.543601        14.7921 
  75   0.0000       0.559206        15.2168 
  76   0.0000       0.565447        15.3866 
  77   0.0000       0.580643        15.8001 
  78   0.0000       0.595832        16.2134 
  79   0.0000       0.597634        16.2624 
  80   0.0000       0.599516        16.3137 
  81   0.0000       0.608746        16.5648 
  82   0.0000       0.625919        17.0321 
  83   0.0000       0.627542        17.0763 
  84   0.0000       0.648348        17.6424 
  85   0.0000       0.650483        17.7005 
  86   0.0000       0.670979        18.2583 
  87   0.0000       0.697518        18.9804 
  88   0.0000       0.702118        19.1056 
  89   0.0000       0.712252        19.3814 
  90   0.0000       0.717651        19.5283 
  91   0.0000       0.724797        19.7227 
  92   0.0000       0.751759        20.4564 
  93   0.0000       0.762144        20.7390 
  94   0.0000       0.773952        21.0603 
  95   0.0000       0.793062        21.5803 
  96   0.0000       0.806093        21.9349 
  97   0.0000       0.812988        22.1225 
  98   0.0000       0.849014        23.1028 
  99   0.0000       0.856186        23.2980 
 100   0.0000       0.872123        23.7317 
 101   0.0000       0.956854        26.0373 
 102   0.0000       0.974039        26.5049 
 103   0.0000       0.995582        27.0912 
 104   0.0000       1.012130        27.5415 
 105   0.0000       1.049982        28.5715 
 106   0.0000       1.065998        29.0073 
 107   0.0000       1.090797        29.6821 
 108   0.0000       1.133836        30.8532 
 109   0.0000       1.146736        31.2043 
 110   0.0000       1.170208        31.8430 
 111   0.0000       1.202840        32.7309 
 112   0.0000       1.235979        33.6327 
 113   0.0000       1.304365        35.4936 
 114   0.0000       1.345055        36.6008 
 115   0.0000       1.377647        37.4877 
 116   0.0000       1.406070        38.2611 
 117   0.0000       1.448803        39.4239 
 118   0.0000       1.460385        39.7391 
 119   0.0000       1.472319        40.0638 
 120   0.0000       1.491294        40.5802 
 121   0.0000       1.508839        41.0576 
 122   0.0000       1.578895        42.9639 
 123   0.0000       1.589823        43.2613 
 124   0.0000       1.611466        43.8502 
 125   0.0000       1.664810        45.3018 
 126   0.0000       1.685619        45.8680 
 127   0.0000       1.710214        46.5373 
 128   0.0000       1.728658        47.0392 
 129   0.0000       1.744180        47.4616 
 130   0.0000       1.771145        48.1953 
 131   0.0000       1.782828        48.5132 
 132   0.0000       1.788325        48.6628 
 133   0.0000       1.831150        49.8281 
 134   0.0000       1.848819        50.3089 
 135   0.0000       1.917398        52.1750 
 136   0.0000       1.926800        52.4309 
 137   0.0000       1.954409        53.1822 
 138   0.0000       1.959842        53.3300 
 139   0.0000       1.978152        53.8283 
 140   0.0000       2.011979        54.7487 
 141   0.0000       2.023457        55.0611 
 142   0.0000       2.090239        56.8783 
 143   0.0000       2.140257        58.2394 
 144   0.0000       2.165313        58.9212 
 145   0.0000       2.239527        60.9406 
 146   0.0000       2.253483        61.3204 
 147   0.0000       2.275113        61.9090 
 148   0.0000       2.302562        62.6559 
 149   0.0000       2.329491        63.3887 
 150   0.0000       2.356851        64.1332 
 151   0.0000       2.410082        65.5817 
 152   0.0000       2.501923        68.0808 
 153   0.0000       2.562323        69.7244 
 154   0.0000       2.585383        70.3518 
 155   0.0000       2.602043        70.8052 
 156   0.0000       2.641892        71.8895 
 157   0.0000       2.671497        72.6951 
 158   0.0000       2.701211        73.5037 
 159   0.0000       2.729889        74.2840 
 160   0.0000       2.769821        75.3707 
 161   0.0000       2.846295        77.4516 
 162   0.0000       2.849181        77.5301 
 163   0.0000       2.885726        78.5246 
 164   0.0000       2.919673        79.4483 
 165   0.0000       3.023420        82.2714 
 166   0.0000       3.081815        83.8605 
 167   0.0000       3.223143        87.7062 
 168   0.0000       3.336041        90.7783 

                    ********************************
                    * MULLIKEN POPULATION ANALYSIS *
                    ********************************

-----------------------
MULLIKEN ATOMIC CHARGES
-----------------------
   0 N :   -0.224116
   1 N :   -0.250208
   2 C :    0.103716
   3 C :    0.134788
   4 C :    0.240163
   5 Cl:    0.053314
   6 Cl:    0.060912
   7 C :    0.048650
   8 C :    0.061224
   9 H :    0.104396
  10 H :    0.092366
  11 H :    0.105613
  12 H :    0.113901
  13 H :    0.104471
  14 H :    0.112334
  15 H :    0.138476
Sum of atomic charges:    1.0000000

--------------------------------
MULLIKEN REDUCED ORBITAL CHARGES
--------------------------------
  0 N s       :     3.418097  s :     3.418097
      pz      :     1.137980  p :     3.773160
      px      :     1.467104
      py      :     1.168076
      dz2     :     0.006284  d :     0.032859
      dxz     :     0.006293
      dyz     :     0.009702
      dx2y2   :     0.004250
      dxy     :     0.006331
  1 N s       :     3.422755  s :     3.422755
      pz      :     1.129164  p :     3.794831
      px      :     1.466821
      py      :     1.198845
      dz2     :     0.006713  d :     0.032621
      dxz     :     0.006772
      dyz     :     0.009447
      dx2y2   :     0.004373
      dxy     :     0.005317
  2 C s       :     3.015656  s :     3.015656
      pz      :     0.765005  p :     2.813230
      px      :     1.103549
      py      :     0.944677
      dz2     :     0.019953  d :     0.067397
      dxz     :     0.010876
      dyz     :     0.017918
      dx2y2   :     0.007447
      dxy     :     0.011205
  3 C s       :     3.005973  s :     3.005973
      pz      :     0.777087  p :     2.787954
      px      :     1.072181
      py      :     0.938686
      dz2     :     0.021347  d :     0.071286
      dxz     :     0.012251
      dyz     :     0.017911
      dx2y2   :     0.007877
      dxy     :     0.011900
  4 C s       :     3.095246  s :     3.095246
      pz      :     0.894141  p :     2.602283
      px      :     0.955246
      py      :     0.752897
      dz2     :     0.011127  d :     0.062307
      dxz     :     0.006212
      dyz     :     0.022160
      dx2y2   :     0.008446
      dxy     :     0.014362
  5 Cls       :     5.942316  s :     5.942316
      pz      :     3.482016  p :    10.961537
      px      :     3.886330
      py      :     3.593191
      dz2     :     0.007422  d :     0.042833
      dxz     :     0.006565
      dyz     :     0.019512
      dx2y2   :     0.004549
      dxy     :     0.004785
  6 Cls       :     5.940701  s :     5.940701
      pz      :     3.508938  p :    10.954283
      px      :     3.902886
      py      :     3.542459
      dz2     :     0.006809  d :     0.044104
      dxz     :     0.005627
      dyz     :     0.021206
      dx2y2   :     0.005633
      dxy     :     0.004830
  7 C s       :     3.037580  s :     3.037580
      pz      :     1.059896  p :     2.876286
      px      :     1.073585
      py      :     0.742805
      dz2     :     0.007771  d :     0.037484
      dxz     :     0.003602
      dyz     :     0.005768
      dx2y2   :     0.011895
      dxy     :     0.008447
  8 C s       :     3.035305  s :     3.035305
      pz      :     1.052482  p :     2.866591
      px      :     1.048772
      py      :     0.765337
      dz2     :     0.007428  d :     0.036880
      dxz     :     0.003441
      dyz     :     0.006628
      dx2y2   :     0.011651
      dxy     :     0.007732
  9 H s       :     0.871772  s :     0.871772
      pz      :     0.015931  p :     0.023832
      px      :     0.004821
      py      :     0.003080
 10 H s       :     0.883790  s :     0.883790
      pz      :     0.014868  p :     0.023844
      px      :     0.005553
      py      :     0.003423
 11 H s       :     0.870594  s :     0.870594
      pz      :     0.006742  p :     0.023792
      px      :     0.010450
      py      :     0.006600
 12 H s       :     0.862624  s :     0.862624
      pz      :     0.004505  p :     0.023476
      px      :     0.016346
      py      :     0.002625
 13 H s       :     0.870992  s :     0.870992
      pz      :     0.008772  p :     0.024537
      px      :     0.006879
      py      :     0.008886
 14 H s       :     0.864444  s :     0.864444
      pz      :     0.005512  p :     0.023222
      px      :     0.014117
      py      :     0.003593
 15 H s       :     0.836992  s :     0.836992
      pz      :     0.018274  p :     0.024532
      px      :     0.004583
      py      :     0.001676


                     *******************************
                     * LOEWDIN POPULATION ANALYSIS *
                     *******************************

----------------------
LOEWDIN ATOMIC CHARGES
----------------------
   0 N :    0.080207
   1 N :    0.068650
   2 C :   -0.133163
   3 C :   -0.136392
   4 C :    0.135610
   5 Cl:    0.237646
   6 Cl:    0.256680
   7 C :    0.037611
   8 C :    0.048713
   9 H :    0.059851
  10 H :    0.054929
  11 H :    0.054826
  12 H :    0.056848
  13 H :    0.049025
  14 H :    0.059560
  15 H :    0.069398

-------------------------------
LOEWDIN REDUCED ORBITAL CHARGES
-------------------------------
  0 N s       :     3.059242  s :     3.059242
      pz      :     1.188013  p :     3.786201
      px      :     1.399521
      py      :     1.198667
      dz2     :     0.016998  d :     0.074350
      dxz     :     0.012028
      dyz     :     0.025524
      dx2y2   :     0.009460
      dxy     :     0.010341
  1 N s       :     3.060632  s :     3.060632
      pz      :     1.189099  p :     3.796834
      px      :     1.401379
      py      :     1.206357
      dz2     :     0.018119  d :     0.073884
      dxz     :     0.013189
      dyz     :     0.024719
      dx2y2   :     0.008977
      dxy     :     0.008880
  2 C s       :     2.890924  s :     2.890924
      pz      :     0.920249  p :     3.089811
      px      :     1.117517
      py      :     1.052045
      dz2     :     0.049540  d :     0.152428
      dxz     :     0.020570
      dyz     :     0.041360
      dx2y2   :     0.019310
      dxy     :     0.021648
  3 C s       :     2.880404  s :     2.880404
      pz      :     0.944083  p :     3.092985
      px      :     1.085479
      py      :     1.063423
      dz2     :     0.054379  d :     0.163003
      dxz     :     0.023721
      dyz     :     0.041396
      dx2y2   :     0.020494
      dxy     :     0.023013
  4 C s       :     2.857102  s :     2.857102
      pz      :     1.014478  p :     2.865508
      px      :     0.975110
      py      :     0.875921
      dz2     :     0.024990  d :     0.141780
      dxz     :     0.009930
      dyz     :     0.057383
      dx2y2   :     0.020416
      dxy     :     0.029060
  5 Cls       :     5.740837  s :     5.740837
      pz      :     3.497361  p :    10.970852
      px      :     3.872117
      py      :     3.601374
      dz2     :     0.008420  d :     0.050665
      dxz     :     0.007477
      dyz     :     0.024060
      dx2y2   :     0.005193
      dxy     :     0.005515
  6 Cls       :     5.732432  s :     5.732432
      pz      :     3.520713  p :    10.958692
      px      :     3.884045
      py      :     3.553934
      dz2     :     0.007680  d :     0.052196
      dxz     :     0.006254
      dyz     :     0.026240
      dx2y2   :     0.006507
      dxy     :     0.005516
  7 C s       :     2.829798  s :     2.829798
      pz      :     1.088807  p :     3.037550
      px      :     1.093951
      py      :     0.854791
      dz2     :     0.020838  d :     0.095042
      dxz     :     0.007902
      dyz     :     0.014929
      dx2y2   :     0.028945
      dxy     :     0.022427
  8 C s       :     2.831607  s :     2.831607
      pz      :     1.081695  p :     3.026871
      px      :     1.077642
      py      :     0.867534
      dz2     :     0.019188  d :     0.092809
      dxz     :     0.007675
      dyz     :     0.017404
      dx2y2   :     0.029843
      dxy     :     0.018700
  9 H s       :     0.873593  s :     0.873593
      pz      :     0.044348  p :     0.066555
      px      :     0.012981
      py      :     0.009227
 10 H s       :     0.878558  s :     0.878558
      pz      :     0.041303  p :     0.066513
      px      :     0.014998
      py      :     0.010212
 11 H s       :     0.877625  s :     0.877625
      pz      :     0.018742  p :     0.067549
      px      :     0.029380
      py      :     0.019426
 12 H s       :     0.875632  s :     0.875632
      pz      :     0.012642  p :     0.067520
      px      :     0.045886
      py      :     0.008992
 13 H s       :     0.880950  s :     0.880950
      pz      :     0.024466  p :     0.070025
      px      :     0.020032
      py      :     0.025527
 14 H s       :     0.874353  s :     0.874353
      pz      :     0.015345  p :     0.066088
      px      :     0.039333
      py      :     0.011410
 15 H s       :     0.855815  s :     0.855815
      pz      :     0.053070  p :     0.074787
      px      :     0.014537
      py      :     0.007179


                      *****************************
                      * MAYER POPULATION ANALYSIS *
                      *****************************

  NA   - Mulliken gross atomic population
  ZA   - Total nuclear charge
  QA   - Mulliken gross atomic charge
  VA   - Mayer's total valence
  BVA  - Mayer's bonded valence
  FA   - Mayer's free valence

  ATOM       NA         ZA         QA         VA         BVA        FA
  0 N      7.2241     7.0000    -0.2241     3.4754     3.4754    -0.0000
  1 N      7.2502     7.0000    -0.2502     3.4664     3.4664     0.0000
  2 C      5.8963     6.0000     0.1037     3.9971     3.9971     0.0000
  3 C      5.8652     6.0000     0.1348     4.0084     4.0084    -0.0000
  4 C      5.7598     6.0000     0.2402     3.8333     3.8333     0.0000
  5 Cl    16.9467    17.0000     0.0533     1.2859     1.2859     0.0000
  6 Cl    16.9391    17.0000     0.0609     1.3016     1.3016     0.0000
  7 C      5.9513     6.0000     0.0487     3.8406     3.8406    -0.0000
  8 C      5.9388     6.0000     0.0612     3.8373     3.8373     0.0000
  9 H      0.8956     1.0000     0.1044     0.9930     0.9930     0.0000
 10 H      0.9076     1.0000     0.0924     0.9958     0.9958    -0.0000
 11 H      0.8944     1.0000     0.1056     0.9994     0.9994    -0.0000
 12 H      0.8861     1.0000     0.1139     0.9869     0.9869     0.0000
 13 H      0.8955     1.0000     0.1045     1.0073     1.0073     0.0000
 14 H      0.8877     1.0000     0.1123     0.9889     0.9889    -0.0000
 15 H      0.8615     1.0000     0.1385     0.9918     0.9918     0.0000

  Mayer bond orders larger than 0.100000
B(  0-N ,  2-C ) :   1.1445 B(  0-N ,  4-C ) :   1.3368 B(  0-N ,  7-C ) :   0.8978 
B(  1-N ,  3-C ) :   1.1641 B(  1-N ,  4-C ) :   1.3129 B(  1-N ,  8-C ) :   0.8866 
B(  2-C ,  3-C ) :   1.5450 B(  2-C ,  5-Cl) :   1.1687 B(  3-C ,  6-Cl) :   1.1797 
B(  4-C , 15-H ) :   0.9674 B(  7-C ,  9-H ) :   0.9692 B(  7-C , 11-H ) :   0.9652 
B(  7-C , 14-H ) :   0.9693 B(  8-C , 10-H ) :   0.9704 B(  8-C , 12-H ) :   0.9719 
B(  8-C , 13-H ) :   0.9655 

-------
TIMINGS
-------

Total SCF time: 0 days 0 hours 0 min 24 sec 

Total time                  ....      24.431 sec
Sum of individual times     ....      23.701 sec  ( 97.0%)

Fock matrix formation       ....      22.346 sec  ( 91.5%)
  Split-RI-J                ....       1.115 sec  (  5.0% of F)
  Chain of spheres X        ....      16.695 sec  ( 74.7% of F)
  XC integration            ....       3.912 sec  ( 17.5% of F)
    Basis function eval.    ....       0.700 sec  ( 17.9% of XC)
    Density eval.           ....       0.415 sec  ( 10.6% of XC)
    XC-Functional eval.     ....       0.408 sec  ( 10.4% of XC)
    XC-Potential eval.      ....       0.450 sec  ( 11.5% of XC)
Diagonalization             ....       0.103 sec  (  0.4%)
Density matrix formation    ....       0.005 sec  (  0.0%)
Population analysis         ....       0.011 sec  (  0.0%)
Initial guess               ....       0.124 sec  (  0.5%)
Orbital Transformation      ....       0.000 sec  (  0.0%)
Orbital Orthonormalization  ....       0.000 sec  (  0.0%)
DIIS solution               ....       0.108 sec  (  0.4%)
SOSCF solution              ....       0.105 sec  (  0.4%)
Grid generation             ....       0.899 sec  (  3.7%)

Maximum memory used throughout the entire SCF-calculation: 53.3 MB


-------------------------------------------------------------------------------
                          DFT DISPERSION CORRECTION                            
                                                                               
                                 DFTD4 V2.5                                    
-------------------------------------------------------------------------------
The WB97X functional is recognized
Active option DFTDOPT                   ...         5   

Starting D4
-------------------------   ----------------
Dispersion correction           -0.002508803
-------------------------   ----------------


-------------------------   --------------------
FINAL SINGLE POINT ENERGY     -1223.809368280599
-------------------------   --------------------



           ************************************************************
           *        Program running with 8 parallel MPI-processes     *
           *              working on a common directory               *
           ************************************************************
------------------------------------------------------------------------------
                         ORCA SCF GRADIENT CALCULATION
------------------------------------------------------------------------------

 ... reading COSX grid (gridx3)
Gradient of the Kohn-Sham DFT energy:
Kohn-Sham wavefunction type      ... RKS
Hartree-Fock exchange scaling    ...    0.158
Number of operators              ...    1
Number of atoms                  ...   16
Basis set dimensions             ...  169
Integral neglect threshold       ... 2.5e-11
Integral primitive cutoff        ... 2.5e-12
SHARK Integral package           ... ON

Nuc. rep. gradient       (SHARK) ... done (  0.0 sec)
HCore & Overlap gradient (SHARK) ... done (  0.0 sec)
RI-J gradient            (SHARK) ... done (  0.3 sec)
COSX-gradient                    ... done (  3.5 sec)
Exchange-correlation gradient    ... done
Dispersion correction            ... Starting D4
Starting D4
Starting D4
Starting D4
Starting D4
Starting D4
Starting D4
Starting D4


------------------- 
Dispersion Gradient 
------------------- 
   1  :    0.000001572    0.000014380    0.000008019
   2  :   -0.000000083   -0.000015761    0.000009845
   3  :    0.000000454    0.000004293   -0.000006821
   4  :    0.000000380   -0.000008858   -0.000011036
   5  :    0.000000605   -0.000000610    0.000025520
   6  :   -0.000002916    0.000036572   -0.000040302
   7  :    0.000002235   -0.000038280   -0.000039283
   8  :    0.000004931    0.000037983    0.000013978
   9  :   -0.000006502   -0.000036020    0.000015247
  10  :    0.000001011    0.000009789    0.000009252
  11  :   -0.000000010   -0.000009872    0.000008926
  12  :   -0.000002340    0.000010332    0.000000620
  13  :   -0.000005863   -0.000009133    0.000003355
  14  :    0.000000832   -0.000010214   -0.000000267
  15  :    0.000005122    0.000009646    0.000001801
  16  :    0.000000441   -0.000000173    0.000010130

  |G| =    0.000491614

done

------------------
CARTESIAN GRADIENT
------------------

   1   N   :    0.004551593    0.047402649   -0.006050284
   2   N   :   -0.013023511   -0.017554270   -0.036278137
   3   C   :   -0.001226306   -0.026929079   -0.002285183
   4   C   :    0.011543130    0.000623124   -0.002933146
   5   C   :    0.005601670    0.019955044    0.058629878
   6   Cl  :   -0.008419395    0.008729027   -0.008552102
   7   Cl  :    0.003041056   -0.009198018   -0.001139249
   8   C   :   -0.004410022   -0.024250271    0.002439771
   9   C   :   -0.005561785    0.000688878   -0.011188111
  10   H   :    0.001217720    0.007678789    0.001765950
  11   H   :   -0.001845425   -0.002228251   -0.000837587
  12   H   :   -0.002646428   -0.004567916   -0.000196844
  13   H   :    0.003016597    0.007792937    0.004843831
  14   H   :    0.004073950    0.005815451    0.003127814
  15   H   :    0.003411731   -0.005234704   -0.001203576
  16   H   :    0.000786476   -0.008873946   -0.000031161

Difference to translation invariance:
           :    0.0001110533   -0.0001505565    0.0001118629

Difference to rotation invariance:
           :   -0.0018424077   -0.0000823282   -0.0004366014

Norm of the cartesian gradient     ...    0.1014825426
RMS gradient                       ...    0.0146477433
MAX gradient                       ...    0.0586298781

-------
TIMINGS
-------

Total SCF gradient time            ...        4.878 sec

One electron gradient       ....       0.035 sec  (  0.7%)
RI-J Coulomb gradient       ....       0.263 sec  (  5.4%)
COSX gradient               ....       3.487 sec  ( 71.5%)
XC gradient                 ....       0.758 sec  ( 15.5%)

Maximum memory used throughout the entire SCFGRAD-calculation: 41.3 MB
------------------------------------------------------------------------------
                         ORCA GEOMETRY RELAXATION STEP
------------------------------------------------------------------------------

Reading the OPT-File                    .... done
Getting information on internals        .... done
Copying old internal coords+grads       .... done
Making the new internal coordinates     .... (new redundants).... done
Validating the new internal coordinates .... (new redundants).... done
Calculating the B-matrix                .... done
Calculating the G,G- and P matrices     .... done
Transforming gradient to internals      .... done
Projecting the internal gradient        .... done
Number of atoms                         ....  16
Number of internal coordinates          ....  75
Current Energy                          .... -1223.809368281 Eh
Current gradient norm                   ....     0.101482543 Eh/bohr
Maximum allowed component of the step   ....  0.300
Current trust radius                    ....  0.300
Evaluating the initial hessian          ....  (Almloef) done
Projecting the Hessian                  .... done
Forming the augmented Hessian           .... done
Diagonalizing the augmented Hessian     .... done
Last element of RFO vector              ....  0.924838748
Lowest eigenvalues of augmented Hessian:
 -0.018408349  0.017146564  0.020417552  0.024201583  0.025132697
Length of the computed step             ....  0.411271071
Warning: the length of the step is outside the trust region - taking restricted step instead
The input lambda is                     ....    -0.018408
   iter:   1  x=   -0.031280  g=    6.148632 f(x)=     0.079144
   iter:   2  x=   -0.038854  g=    3.049521 f(x)=     0.023095
   iter:   3  x=   -0.040513  g=    2.168086 f(x)=     0.003598
   iter:   4  x=   -0.040574  g=    2.023088 f(x)=     0.000122
   iter:   5  x=   -0.040574  g=    2.018065 f(x)=     0.000000
   iter:   6  x=   -0.040574  g=    2.018059 f(x)=     0.000000
   iter:   7  x=   -0.040574  g=    2.018059 f(x)=    -0.000000
The output lambda is                    ....    -0.040574 (7 iterations)
The final length of the internal step   ....  0.300000000
Converting the step to cartesian space:
 Initial RMS(Int)=    0.0346410162
Transforming coordinates:
 Iter   0:  RMS(Cart)=    0.0777127906 RMS(Int)=    0.0346255298
 Iter   1:  RMS(Cart)=    0.0028099823 RMS(Int)=    0.0016205383
 Iter   2:  RMS(Cart)=    0.0001667553 RMS(Int)=    0.0000806690
 Iter   3:  RMS(Cart)=    0.0000128291 RMS(Int)=    0.0000082298
 Iter   4:  RMS(Cart)=    0.0000008393 RMS(Int)=    0.0000004531
 Iter   5:  RMS(Cart)=    0.0000000652 RMS(Int)=    0.0000000455
done
Storing new coordinates                 .... done

                                .--------------------.
          ----------------------|Geometry convergence|-------------------------
          Item                value                   Tolerance       Converged
          ---------------------------------------------------------------------
          RMS gradient        0.0088381886            0.0001000000      NO
          MAX gradient        0.0355321710            0.0003000000      NO
          RMS step            0.0346410162            0.0020000000      NO
          MAX step            0.1034715517            0.0040000000      NO
          ........................................................
          Max(Bonds)      0.0304      Max(Angles)    2.54
          Max(Dihed)        5.93      Max(Improp)    0.00
          ---------------------------------------------------------------------

The optimization has not yet converged - more geometry cycles are needed


    ---------------------------------------------------------------------------
                         Redundant Internal Coordinates
                            (Angstroem and degrees)

        Definition                    Value    dE/dq     Step     New-Value
    ----------------------------------------------------------------------------
     1. B(C   2,N   0)                1.4082  0.024315 -0.0231    1.3851   
     2. B(C   3,C   2)                1.3625 -0.003952  0.0041    1.3665   
     3. B(C   3,N   1)                1.3695 -0.008318  0.0079    1.3774   
     4. B(C   4,N   0)                1.3547  0.019862 -0.0170    1.3377   
     5. B(C   4,N   1)                1.3751  0.035532 -0.0304    1.3447   
     6. B(Cl  5,C   2)                1.7091  0.013240 -0.0148    1.6943   
     7. B(Cl  6,C   3)                1.6943  0.007178 -0.0076    1.6867   
     8. B(C   7,N   0)                1.4271 -0.024574  0.0246    1.4517   
     9. B(C   8,N   1)                1.4505 -0.012281  0.0133    1.4638   
    10. B(H   9,C   7)                1.0999  0.002771 -0.0038    1.0962   
    11. B(H  10,C   8)                1.0966 -0.001035  0.0014    1.0980   
    12. B(H  11,C   7)                1.0976 -0.000504  0.0007    1.0983   
    13. B(H  12,C   8)                1.0929 -0.003628  0.0048    1.0977   
    14. B(H  13,C   8)                1.0897 -0.003676  0.0049    1.0945   
    15. B(H  14,C   7)                1.1021  0.002002 -0.0028    1.0993   
    16. B(H  15,C   4)                1.0905  0.000818 -0.0011    1.0895   
    17. A(C   2,N   0,C   4)          108.41 -0.001596    0.08    108.49   
    18. A(C   4,N   0,C   7)          126.51 -0.000721    0.14    126.66   
    19. A(C   2,N   0,C   7)          124.88  0.002377   -0.26    124.62   
    20. A(C   3,N   1,C   8)          123.80 -0.011973    1.40    125.20   
    21. A(C   4,N   1,C   8)          124.40 -0.004743    0.46    124.86   
    22. A(C   3,N   1,C   4)          111.21  0.016837   -1.98    109.24   
    23. A(N   0,C   2,Cl  5)          121.01 -0.005808    0.58    121.58   
    24. A(C   3,C   2,Cl  5)          130.29 -0.003033    0.23    130.52   
    25. A(N   0,C   2,C   3)          108.26  0.008765   -0.76    107.50   
    26. A(C   2,C   3,Cl  6)          132.68  0.011486   -1.57    131.11   
    27. A(N   1,C   3,C   2)          105.62 -0.004835    1.11    106.73   
    28. A(N   1,C   3,Cl  6)          121.64 -0.006874    0.65    122.29   
    29. A(N   0,C   4,H  15)          132.33  0.019163   -2.54    129.78   
    30. A(N   1,C   4,H  15)          121.76  0.001029    0.10    121.86   
    31. A(N   0,C   4,N   1)          105.91 -0.020177    2.43    108.34   
    32. A(N   0,C   7,H   9)          113.66  0.014254   -2.26    111.41   
    33. A(H  11,C   7,H  14)          110.87  0.006145   -0.83    110.04   
    34. A(H   9,C   7,H  14)          108.96 -0.001073    0.12    109.08   
    35. A(N   0,C   7,H  14)          107.30 -0.009635    1.54    108.84   
    36. A(H   9,C   7,H  11)          108.69 -0.001513    0.14    108.83   
    37. A(N   0,C   7,H  11)          107.37 -0.008033    1.26    108.63   
    38. A(N   1,C   8,H  10)          110.23  0.005034   -0.61    109.62   
    39. A(H  12,C   8,H  13)          114.96  0.009223   -1.90    113.06   
    40. A(H  10,C   8,H  13)          108.00 -0.000517    0.18    108.18   
    41. A(N   1,C   8,H  13)          108.30 -0.004957    0.67    108.97   
    42. A(H  10,C   8,H  12)          107.94 -0.001093    0.50    108.44   
    43. A(N   1,C   8,H  12)          107.39 -0.007471    1.15    108.54   
    44. D(Cl  5,C   2,N   0,C   7)    -16.17 -0.003823    3.24    -12.93   
    45. D(Cl  5,C   2,N   0,C   4)    168.69 -0.004472    3.64    172.33   
    46. D(C   3,C   2,N   0,C   4)     -4.35 -0.003772    3.20     -1.15   
    47. D(C   3,C   2,N   0,C   7)    170.79 -0.003122    2.80    173.59   
    48. D(Cl  6,C   3,C   2,Cl  5)     12.12  0.001620   -1.51     10.61   
    49. D(Cl  6,C   3,C   2,N   0)   -175.71  0.000705   -0.99   -176.71   
    50. D(Cl  6,C   3,N   1,C   4)    174.72 -0.003183    2.24    176.96   
    51. D(C   2,C   3,N   1,C   8)    163.64 -0.006495    5.13    168.77   
    52. D(C   2,C   3,N   1,C   4)     -7.88 -0.007227    5.93     -1.95   
    53. D(N   1,C   3,C   2,N   0)      7.30  0.006168   -5.36      1.93   
    54. D(Cl  6,C   3,N   1,C   8)    -13.76 -0.002451    1.44    -12.32   
    55. D(N   1,C   3,C   2,Cl  5)   -164.88  0.007084   -5.88   -170.76   
    56. D(H  15,C   4,N   0,C   2)    178.95  0.001772   -1.16    177.79   
    57. D(N   1,C   4,N   0,C   7)   -175.53 -0.000895    0.81   -174.72   
    58. D(N   1,C   4,N   0,C   2)     -0.49 -0.000042    0.38     -0.12   
    59. D(H  15,C   4,N   1,C   8)     14.26  0.002839   -1.89     12.37   
    60. D(H  15,C   4,N   1,C   3)   -174.28  0.002861   -2.60   -176.88   
    61. D(N   0,C   4,N   1,C   8)   -166.23  0.004559   -3.25   -169.48   
    62. D(N   0,C   4,N   1,C   3)      5.24  0.004581   -3.96      1.28   
    63. D(H  15,C   4,N   0,C   7)      3.91  0.000919   -0.73      3.18   
    64. D(H  14,C   7,N   0,C   4)    111.39  0.001449   -0.53    110.86   
    65. D(H  14,C   7,N   0,C   2)    -62.87  0.000681   -0.06    -62.92   
    66. D(H  11,C   7,N   0,C   4)   -129.38 -0.000736   -0.01   -129.39   
    67. D(H  11,C   7,N   0,C   2)     56.37 -0.001504    0.47     56.83   
    68. D(H   9,C   7,N   0,C   4)     -9.14  0.000629   -0.35     -9.49   
    69. D(H   9,C   7,N   0,C   2)    176.60 -0.000139    0.13    176.73   
    70. D(H  12,C   8,N   1,C   4)     87.71 -0.001351    0.59     88.31   
    71. D(H  12,C   8,N   1,C   3)    -82.70 -0.003833    1.68    -81.02   
    72. D(H  10,C   8,N   1,C   4)    -29.64  0.001532   -0.33    -29.97   
    73. D(H  13,C   8,N   1,C   3)     42.00 -0.000257    0.49     42.49   
    74. D(H  10,C   8,N   1,C   3)    159.94 -0.000951    0.76    160.71   
    75. D(H  13,C   8,N   1,C   4)   -147.59  0.002226   -0.60   -148.18   
    ----------------------------------------------------------------------------

         *************************************************************
         *                GEOMETRY OPTIMIZATION CYCLE   2            *
         *************************************************************
---------------------------------
CARTESIAN COORDINATES (ANGSTROEM)
---------------------------------
  N      0.102282    1.109021    1.020639
  N     -0.059961   -1.059715    1.031110
  C      0.076448    0.687202   -0.298414
  C      0.001541   -0.677047   -0.290458
  C      0.019455    0.032821    1.811275
  Cl    -0.030960    1.788896   -1.581142
  Cl     0.008507   -1.795276   -1.553126
  C      0.311490    2.481738    1.444011
  C     -0.381122   -2.406505    1.506193
  H      0.233248    2.581123    2.532847
  H     -0.032402   -2.525463    2.540516
  H     -0.453755    3.114206    0.974221
  H     -1.471632   -2.531108    1.490928
  H      0.142763   -3.137989    0.882901
  H      1.313162    2.802953    1.124737
  H      0.041777   -0.037086    2.898263

----------------------------
CARTESIAN COORDINATES (A.U.)
----------------------------
  NO LB      ZA    FRAG     MASS         X           Y           Z
   0 N     7.0000    0    14.007    0.193285    2.095746    1.928729
   1 N     7.0000    0    14.007   -0.113310   -2.002572    1.948515
   2 C     6.0000    0    12.011    0.144466    1.298623   -0.563920
   3 C     6.0000    0    12.011    0.002912   -1.279433   -0.548886
   4 C     6.0000    0    12.011    0.036765    0.062022    3.422814
   5 Cl   17.0000    0    35.453   -0.058506    3.380523   -2.987925
   6 Cl   17.0000    0    35.453    0.016077   -3.392580   -2.934984
   7 C     6.0000    0    12.011    0.588630    4.689805    2.728785
   8 C     6.0000    0    12.011   -0.720216   -4.547636    2.846292
[...]
     37      -0.034515   0.101347   0.333634   0.496482  -0.030517   0.048891
     38      -0.330355  -0.332516  -0.163057  -0.109385   0.244082  -0.385727
     39      -0.152770  -0.043021   0.203314   0.337979   0.057442  -0.088421
     40      -0.013247   0.121277   0.229251   0.326060   0.173721  -0.271366
     41      -0.386273  -0.366404   0.002062   0.149106  -0.244528   0.373588
     42      -0.175361   0.101525   0.173684  -0.158968   0.138947   0.102164
     43       0.026003   0.137771  -0.481164   0.353670   0.038651   0.019048
     44      -0.350427   0.366958  -0.183625   0.051813   0.354232   0.250482
     45       0.003867   0.022952  -0.000746  -0.002280   0.001145   0.009654
     46       0.000794   0.169642   0.012046  -0.040056  -0.003029   0.005505
     47       0.182485  -0.001111  -0.055350  -0.010209  -0.016976   0.000697
                 36         37         38         39         40         41    
      0       0.013623  -0.004617  -0.020150   0.037895  -0.022397  -0.000038
      1       0.094629  -0.009705  -0.164632   0.286923  -0.185701  -0.000454
      2       0.036619  -0.113303   0.090335  -0.060332   0.120284   0.000130
      3      -0.012554   0.001244   0.025082   0.040417   0.030055   0.000042
      4      -0.093186  -0.009147   0.165858   0.285326   0.196671   0.000754
      5       0.037232   0.113377   0.086934   0.050456   0.116587   0.000122
      6      -0.000601   0.003787  -0.017360  -0.009282   0.073655  -0.000016
      7       0.006005   0.005473  -0.132603  -0.061758   0.550256  -0.000069
      8      -0.055359   0.110946   0.039965  -0.028928  -0.102473  -0.000318
      9      -0.002457  -0.002610   0.019502  -0.006143  -0.079222  -0.000007
     10      -0.007403   0.002435   0.133632  -0.050593  -0.554102   0.000046
     11      -0.053138  -0.111711   0.035182   0.032437  -0.086460  -0.000785
     12       0.001192   0.000793  -0.004913  -0.066747  -0.004589   0.000043
     13       0.000050   0.004489  -0.001367  -0.480491  -0.008391   0.000388
     14       0.043481   0.000633  -0.181072   0.007549  -0.131024  -0.000243
     15      -0.000293   0.000314   0.000725   0.000466  -0.002765  -0.000002
     16      -0.003066   0.003369   0.007132   0.003249  -0.023901  -0.000033
     17       0.004174  -0.005393  -0.009733   0.001174   0.019804   0.000023
     18       0.000494   0.000609  -0.001278   0.000314   0.003877   0.000008
     19       0.003105   0.003547  -0.007323   0.002750   0.024434   0.000057
     20       0.003998   0.005376  -0.009512  -0.001647   0.019113   0.000043
     21      -0.000540  -0.000375   0.003786  -0.003848   0.004690   0.002121
     22      -0.008354   0.001877   0.022497  -0.033566   0.039605   0.017567
     23       0.027186  -0.005013   0.003661   0.004614  -0.023837   0.003831
     24      -0.000609  -0.000725  -0.003700  -0.003480  -0.006009  -0.004048
     25       0.007696   0.001951  -0.022068  -0.032971  -0.041028  -0.043330
     26       0.027876   0.005302   0.004204  -0.003368  -0.022932   0.010500
     27      -0.031636   0.046106  -0.023279  -0.003330  -0.025072  -0.012877
     28      -0.453195   0.421798  -0.196660  -0.017133  -0.193471  -0.000739
     29       0.022985  -0.003318   0.004261   0.005037  -0.024957  -0.198577
     30       0.055170   0.040190   0.012934  -0.006994   0.020336   0.018152
     31       0.455154   0.426330   0.200752  -0.021778   0.192231  -0.008820
     32       0.014088  -0.007078  -0.001189  -0.004089  -0.030072  -0.492192
     33       0.157088  -0.212209   0.254365  -0.103031   0.076007   0.176334
     34       0.017668  -0.168202   0.313981  -0.206757   0.149251  -0.125938
     35      -0.350287   0.247293  -0.117529  -0.065939  -0.020519   0.066662
     36       0.177898   0.186653   0.181942   0.041751   0.038991   0.466193
     37      -0.073702  -0.236251  -0.387708  -0.221567  -0.181052   0.195862
     38      -0.319284  -0.210847  -0.078444   0.081459  -0.003799   0.198400
     39      -0.163790  -0.216013  -0.256162  -0.098030  -0.077649  -0.437356
     40      -0.029021  -0.168785  -0.313872  -0.202515  -0.152690   0.314560
     41      -0.329655  -0.241985  -0.111909   0.072334  -0.014684   0.172456
     42      -0.182952   0.190448  -0.180035   0.038829  -0.037171  -0.188031
     43       0.082405  -0.231741   0.376165  -0.223737   0.170586  -0.076700
     44      -0.292429   0.209673  -0.087739  -0.074268  -0.011282   0.087846
     45       0.002200  -0.031143  -0.006846   0.081607  -0.004244   0.000035
     46       0.003165  -0.217729  -0.004068   0.587573   0.006717  -0.000606
     47       0.059566   0.003999  -0.225410  -0.007281  -0.185196   0.004871
                 42         43         44         45         46         47    
      0       0.000048  -0.000160   0.000747  -0.000065   0.000001  -0.000420
      1       0.000615   0.000001  -0.000063  -0.000440   0.000131  -0.003466
      2      -0.000074   0.000004  -0.000019  -0.000579   0.000011   0.002679
      3      -0.000011   0.000763  -0.000012   0.000010  -0.000017   0.000569
      4       0.000097  -0.000029   0.000000   0.000151  -0.000429   0.003525
      5      -0.000048  -0.000035  -0.000001  -0.000039   0.000598   0.002589
      6       0.000030  -0.000089   0.000157  -0.000080   0.000006   0.000207
      7       0.000020   0.000009  -0.000004  -0.000704   0.000069   0.001100
      8       0.000785  -0.000003   0.000016   0.000009   0.000097   0.002082
      9      -0.000009   0.000171  -0.000057   0.000007  -0.000063  -0.000090
     10      -0.000042   0.000014   0.000012   0.000097  -0.000702  -0.001059
     11      -0.000314  -0.000036   0.000000  -0.000097   0.000003   0.002112
     12       0.000124  -0.000125  -0.000155   0.000001   0.000020  -0.002618
     13       0.000927   0.000031   0.000035   0.000234   0.000263  -0.000969
     14       0.000097  -0.000044   0.000026  -0.000586   0.000516  -0.093627
     15       0.000006   0.000001  -0.000007   0.000005   0.000002  -0.000002
     16       0.000047  -0.000001   0.000006   0.000042  -0.000001  -0.000019
     17      -0.000040  -0.000001   0.000006  -0.000021   0.000002   0.000012
     18       0.000003  -0.000006   0.000000   0.000001   0.000005   0.000002
     19       0.000010   0.000008   0.000001  -0.000002   0.000043   0.000019
     20       0.000011  -0.000009  -0.000001  -0.000003   0.000019   0.000012
     21      -0.005246   0.009309  -0.095149  -0.002185  -0.000003  -0.000008
     22      -0.043454  -0.001276   0.012916  -0.026772  -0.000633   0.000077
     23      -0.009501  -0.000089   0.001514   0.092381   0.002022  -0.000758
     24      -0.001636  -0.094953  -0.009363   0.000252  -0.008995  -0.000038
     25      -0.017490   0.013180   0.001285   0.000578  -0.028196  -0.000084
     26       0.004248   0.005238   0.000466   0.002030  -0.091580  -0.000724
     27       0.031923   0.000469  -0.005135  -0.054023  -0.001182   0.000583
     28       0.001774  -0.000107   0.001076   0.001284   0.000018   0.001235
     29       0.492400  -0.005080   0.046246  -0.841176  -0.018413   0.006401
     30       0.007340  -0.004874  -0.000497   0.000675  -0.030424  -0.000375
     31      -0.003591  -0.000883  -0.000080  -0.000441   0.019409  -0.001096
     32      -0.199162  -0.088519  -0.008244  -0.018593   0.839182   0.006076
     33      -0.436342  -0.054077   0.549366  -0.267642  -0.006321   0.000064
     34       0.311418   0.039086  -0.396091   0.186235   0.004470   0.001324
     35      -0.165005  -0.021127   0.215115  -0.092676  -0.002198   0.000357
     36       0.188230   0.573798   0.056535  -0.008543   0.378642  -0.000066
     37       0.079005   0.245876   0.024128  -0.003447   0.154987  -0.001262
     38       0.080132   0.252901   0.024963  -0.003493   0.154195   0.000543
     39      -0.176600   0.554027   0.054293   0.004831  -0.240753   0.000117
     40       0.126929  -0.402495  -0.039346  -0.003295   0.167812  -0.001409
     41       0.069657  -0.225295  -0.022126  -0.001713   0.086064   0.000317
     42       0.465194  -0.056867   0.580983   0.348826   0.007533   0.000109
     43       0.189567  -0.023720   0.241305   0.137936   0.003028   0.001259
     44      -0.217393   0.027352  -0.279876  -0.155305  -0.003341   0.000492
     45      -0.000283   0.000363   0.000448   0.000341   0.000125   0.027843
     46      -0.001566  -0.000123  -0.000110   0.000922   0.000843   0.010258
     47      -0.002100   0.000153  -0.000087   0.005429  -0.004871   0.995091


-----------
IR SPECTRUM
-----------

 Mode   freq       eps      Int      T**2         TX        TY        TZ
       cm**-1   L/(mol*cm) km/mol    a.u.
----------------------------------------------------------------------------
  6:    110.50   0.000006    0.03  0.000018  ( 0.004029 -0.000503 -0.001069)
  7:    114.70   0.000044    0.22  0.000119  (-0.010837  0.001141 -0.000645)
  8:    119.57   0.000021    0.11  0.000055  (-0.007145  0.000810 -0.001882)
  9:    173.29   0.000169    0.85  0.000304  ( 0.002681 -0.000635 -0.017225)
 10:    177.52   0.000916    4.63  0.001611  ( 0.039728 -0.005702 -0.000134)
 11:    239.25   0.000006    0.03  0.000008  (-0.001324 -0.002385 -0.000649)
 12:    275.82   0.000627    3.17  0.000709  ( 0.001324  0.000126  0.026591)
 13:    285.65   0.000126    0.63  0.000137  ( 0.011516 -0.001703 -0.001313)
 14:    328.50   0.000000    0.00  0.000000  (-0.000008  0.000057 -0.000411)
 15:    445.52   0.001559    7.88  0.001092  ( 0.004697  0.032703 -0.000451)
 16:    552.80   0.001683    8.50  0.000950  ( 0.000841  0.000270  0.030809)
 17:    562.42   0.000015    0.08  0.000008  (-0.000615 -0.002818 -0.000096)
 18:    646.31   0.002944   14.88  0.001421  ( 0.037319 -0.005162 -0.001407)
 19:    650.38   0.000178    0.90  0.000085  ( 0.002073 -0.000195  0.008999)
 20:    692.19   0.000000    0.00  0.000000  (-0.000099 -0.000049  0.000008)
 21:    851.56   0.001888    9.54  0.000692  (-0.026007  0.003893  0.000692)
 22:    874.77   0.000080    0.40  0.000028  (-0.001071 -0.005218  0.000054)
 23:   1104.11   0.000325    1.64  0.000092  ( 0.000460  0.006157 -0.007335)
 24:   1106.34   0.000827    4.18  0.000233  (-0.001980 -0.014886 -0.002764)
 25:   1137.01   0.001321    6.68  0.000363  (-0.000667 -0.000164 -0.019032)
 26:   1146.64   0.000002    0.01  0.000001  ( 0.000175  0.000027  0.000779)
 27:   1152.30   0.000063    0.32  0.000017  (-0.003112  0.002694  0.000090)
 28:   1212.69   0.019679   99.45  0.005064  (-0.009923 -0.070460  0.000971)
 29:   1238.89   0.001226    6.20  0.000309  ( 0.002470  0.017397 -0.000252)
 30:   1399.95   0.000418    2.11  0.000093  (-0.000020  0.000224  0.009649)
 31:   1435.69   0.000013    0.06  0.000003  ( 0.001645 -0.000147  0.000096)
 32:   1451.31   0.001281    6.48  0.000276  (-0.002314  0.003681  0.016020)
 33:   1453.01   0.002205   11.15  0.000474  ( 0.009686 -0.019180  0.003463)
 34:   1457.80   0.000477    2.41  0.000102  ( 0.009004  0.000078  0.004581)
 35:   1459.11   0.008285   41.87  0.001772  ( 0.042091  0.000488 -0.000222)
 36:   1475.89   0.012179   61.55  0.002575  ( 0.000113 -0.000717 -0.050741)
 37:   1506.35   0.000864    4.37  0.000179  (-0.000964 -0.013348  0.000010)
 38:   1521.62   0.000180    0.91  0.000037  ( 0.000086  0.000109  0.006076)
 39:   1664.44   0.022324  112.82  0.004186  (-0.008633 -0.064100  0.001495)
 40:   1671.37   0.014559   73.58  0.002718  (-0.001522 -0.001342 -0.052099)
 41:   3103.86   0.000281    1.42  0.000028  ( 0.000011 -0.001243  0.005169)
 42:   3103.95   0.000138    0.70  0.000014  (-0.000380 -0.003041 -0.002129)
 43:   3222.96   0.000239    1.21  0.000023  ( 0.004768 -0.000636  0.000159)
 44:   3223.06   0.000356    1.80  0.000034  ( 0.005814 -0.000771 -0.000270)
 45:   3235.35   0.000138    0.70  0.000013  ( 0.000412  0.002178 -0.002898)
 46:   3235.82   0.000141    0.71  0.000014  ( 0.000773  0.002316  0.002767)
 47:   3298.38   0.008357   42.23  0.000791  ( 0.000807  0.000268  0.028106)

* The epsilon (eps) is given for a Dirac delta lineshape.
** The dipole moment derivative (T) already includes vibrational overlap.

The first frequency considered to be a vibration is 6
The total number of vibrations considered is 42


--------------------------
THERMOCHEMISTRY AT 298.15K
--------------------------

Temperature         ... 298.15 K
Pressure            ... 1.00 atm
Total Mass          ... 166.03 AMU

Throughout the following assumptions are being made:
  (1) The electronic state is orbitally nondegenerate
  (2) There are no thermally accessible electronically excited states
  (3) Hindered rotations indicated by low frequency modes are not
      treated as such but are treated as vibrations and this may
      cause some error
  (4) All equations used are the standard statistical mechanics
      equations for an ideal gas
  (5) All vibrations are strictly harmonic

freq.     110.50  E(vib)   ...       0.45 
freq.     114.70  E(vib)   ...       0.44 
freq.     119.57  E(vib)   ...       0.44 
freq.     173.29  E(vib)   ...       0.38 
freq.     177.52  E(vib)   ...       0.37 
freq.     239.25  E(vib)   ...       0.31 
freq.     275.82  E(vib)   ...       0.28 
freq.     285.65  E(vib)   ...       0.28 
freq.     328.50  E(vib)   ...       0.24 
freq.     445.52  E(vib)   ...       0.17 
freq.     552.80  E(vib)   ...       0.12 
freq.     562.42  E(vib)   ...       0.11 
freq.     646.31  E(vib)   ...       0.09 
freq.     650.38  E(vib)   ...       0.08 
freq.     692.19  E(vib)   ...       0.07 
freq.     851.56  E(vib)   ...       0.04 
freq.     874.77  E(vib)   ...       0.04 
freq.    1104.11  E(vib)   ...       0.02 
freq.    1106.34  E(vib)   ...       0.02 
freq.    1137.01  E(vib)   ...       0.01 
freq.    1146.64  E(vib)   ...       0.01 
freq.    1152.30  E(vib)   ...       0.01 
freq.    1212.69  E(vib)   ...       0.01 
freq.    1238.89  E(vib)   ...       0.01 
freq.    1399.95  E(vib)   ...       0.00 
freq.    1435.69  E(vib)   ...       0.00 
freq.    1451.31  E(vib)   ...       0.00 
freq.    1453.01  E(vib)   ...       0.00 
freq.    1457.80  E(vib)   ...       0.00 
freq.    1459.11  E(vib)   ...       0.00 
freq.    1475.89  E(vib)   ...       0.00 
freq.    1506.35  E(vib)   ...       0.00 
freq.    1521.62  E(vib)   ...       0.00 
freq.    1664.44  E(vib)   ...       0.00 
freq.    1671.37  E(vib)   ...       0.00 
freq.    3103.86  E(vib)   ...       0.00 
freq.    3103.95  E(vib)   ...       0.00 
freq.    3222.96  E(vib)   ...       0.00 
freq.    3223.06  E(vib)   ...       0.00 
freq.    3235.35  E(vib)   ...       0.00 
freq.    3235.82  E(vib)   ...       0.00 
freq.    3298.38  E(vib)   ...       0.00 

------------
INNER ENERGY
------------

The inner energy is: U= E(el) + E(ZPE) + E(vib) + E(rot) + E(trans)
    E(el)   - is the total energy from the electronic structure calculation
              = E(kin-el) + E(nuc-el) + E(el-el) + E(nuc-nuc)
    E(ZPE)  - the the zero temperature vibrational energy from the frequency calculation
    E(vib)  - the the finite temperature correction to E(ZPE) due to population
              of excited vibrational states
    E(rot)  - is the rotational thermal energy
    E(trans)- is the translational thermal energy

Summary of contributions to the inner energy U:
Electronic energy                ...  -1223.82458349 Eh
Zero point energy                ...      0.12329135 Eh      77.37 kcal/mol
Thermal vibrational correction   ...      0.00644411 Eh       4.04 kcal/mol
Thermal rotational correction    ...      0.00141627 Eh       0.89 kcal/mol
Thermal translational correction ...      0.00141627 Eh       0.89 kcal/mol
-----------------------------------------------------------------------
Total thermal energy                  -1223.69201549 Eh


Summary of corrections to the electronic energy:
(perhaps to be used in another calculation)
Total thermal correction                  0.00927665 Eh       5.82 kcal/mol
Non-thermal (ZPE) correction              0.12329135 Eh      77.37 kcal/mol
-----------------------------------------------------------------------
Total correction                          0.13256800 Eh      83.19 kcal/mol


--------
ENTHALPY
--------

The enthalpy is H = U + kB*T
                kB is Boltzmann's constant
Total free energy                 ...  -1223.69201549 Eh 
Thermal Enthalpy correction       ...      0.00094421 Eh       0.59 kcal/mol
-----------------------------------------------------------------------
Total Enthalpy                    ...  -1223.69107128 Eh


Note: Only C1 symmetry has been detected, increase convergence thresholds 
      if your molecule has a higher symmetry. Symmetry factor of 1.0 is   
      used for the rotational entropy correction. 
 

Note: Rotational entropy computed according to Herzberg 
Infrared and Raman Spectra, Chapter V,1, Van Nostrand Reinhold, 1945 
Point Group:  C1, Symmetry Number:   1  
Rotational constants in cm-1:     0.051277     0.036273     0.021420 

Vibrational entropy computed according to the QRRHO of S. Grimme
Chem.Eur.J. 2012 18 9955


-------
ENTROPY
-------

The entropy contributions are T*S = T*(S(el)+S(vib)+S(rot)+S(trans))
     S(el)   - electronic entropy
     S(vib)  - vibrational entropy
     S(rot)  - rotational entropy
     S(trans)- translational entropy
The entropies will be listed as multiplied by the temperature to get
units of energy

Electronic entropy                ...      0.00000000 Eh      0.00 kcal/mol
Vibrational entropy               ...      0.01125038 Eh      7.06 kcal/mol
Rotational entropy                ...      0.01429337 Eh      8.97 kcal/mol
Translational entropy             ...      0.01958930 Eh     12.29 kcal/mol
-----------------------------------------------------------------------
Final entropy term                ...      0.04513304 Eh     28.32 kcal/mol

In case the symmetry of your molecule has not been determined correctly
or in case you have a reason to use a different symmetry number we print 
out the resulting rotational entropy values for sn=1,12 :
 --------------------------------------------------------
|  sn= 1 | S(rot)=       0.01429337 Eh      8.97 kcal/mol|
|  sn= 2 | S(rot)=       0.01363891 Eh      8.56 kcal/mol|
|  sn= 3 | S(rot)=       0.01325608 Eh      8.32 kcal/mol|
|  sn= 4 | S(rot)=       0.01298445 Eh      8.15 kcal/mol|
|  sn= 5 | S(rot)=       0.01277377 Eh      8.02 kcal/mol|
|  sn= 6 | S(rot)=       0.01260162 Eh      7.91 kcal/mol|
|  sn= 7 | S(rot)=       0.01245608 Eh      7.82 kcal/mol|
|  sn= 8 | S(rot)=       0.01233000 Eh      7.74 kcal/mol|
|  sn= 9 | S(rot)=       0.01221879 Eh      7.67 kcal/mol|
|  sn=10 | S(rot)=       0.01211931 Eh      7.60 kcal/mol|
|  sn=11 | S(rot)=       0.01202932 Eh      7.55 kcal/mol|
|  sn=12 | S(rot)=       0.01194716 Eh      7.50 kcal/mol|
 --------------------------------------------------------


-------------------
GIBBS FREE ENERGY
-------------------

The Gibbs free energy is G = H - T*S

Total enthalpy                    ...  -1223.69107128 Eh 
Total entropy correction          ...     -0.04513304 Eh    -28.32 kcal/mol
-----------------------------------------------------------------------
Final Gibbs free energy         ...  -1223.73620432 Eh

For completeness - the Gibbs free energy minus the electronic energy
G-E(el)                           ...      0.08837917 Eh     55.46 kcal/mol


Timings for individual modules:

Sum of individual times         ...      439.166 sec (=   7.319 min)
GTO integral calculation        ...        8.327 sec (=   0.139 min)   1.9 %
SCF iterations                  ...      284.787 sec (=   4.746 min)  64.8 %
SCF Gradient evaluation         ...       69.634 sec (=   1.161 min)  15.9 %
Geometry relaxation             ...        0.554 sec (=   0.009 min)   0.1 %
Analytical frequency calculation...       75.863 sec (=   1.264 min)  17.3 %
                             ****ORCA TERMINATED NORMALLY****
TOTAL RUN TIME: 0 days 0 hours 7 minutes 38 seconds 261 msec
