      -----------------------------------------------------------      
     |                   =====================                   |     
     |                           x T B                           |     
     |                   =====================                   |     
     |                         S. Grimme                         |     
     |          Mulliken Center for Theoretical Chemistry        |     
     |                    University of Bonn                     |     
      -----------------------------------------------------------      

   * xtb version 6.6.1 (8d0f1dd) compiled by 'conda@1efc2f54142f' on 2023-08-01

   xtb is free software: you can redistribute it and/or modify it under
   the terms of the GNU Lesser General Public License as published by
   the Free Software Foundation, either version 3 of the License, or
   (at your option) any later version.
   
   xtb is distributed in the hope that it will be useful,
   but WITHOUT ANY WARRANTY; without even the implied warranty of
   MERCHANTABILITY or FITNESS FOR A PARTICULAR PURPOSE.  See the
   GNU Lesser General Public License for more details.
   
   Cite this work as:
   * C. Bannwarth, E. Caldeweyher, S. Ehlert, A. Hansen, P. Pracht,
     J. Seibert, S. Spicher, S. Grimme, WIREs Comput. Mol. Sci., 2020, 11,
     e01493. DOI: 10.1002/wcms.1493
   
   for GFN2-xTB:
   * C. Bannwarth, S. Ehlert and S. Grimme., J. Chem. Theory Comput., 2019,
     15, 1652-1671. DOI: 10.1021/acs.jctc.8b01176
   for GFN1-xTB:
   * S. Grimme, C. Bannwarth, P. Shushkov, J. Chem. Theory Comput., 2017,
     13, 1989-2009. DOI: 10.1021/acs.jctc.7b00118
   for GFN0-xTB:
   * P. Pracht, E. Caldeweyher, S. Ehlert, S. Grimme, ChemRxiv, 2019, preprint.
     DOI: 10.26434/chemrxiv.8326202.v1
   for GFN-FF:
   * S. Spicher and S. Grimme, Angew. Chem. Int. Ed., 2020, 59, 15665-15673.
     DOI: 10.1002/anie.202004239
   
   for ALPB and GBSA implicit solvation:
   * S. Ehlert, M. Stahn, S. Spicher, S. Grimme, J. Chem. Theory Comput.,
     2021, 17, 4250-4261. DOI: 10.1021/acs.jctc.1c00471
   
   for DFT-D4:
   * E. Caldeweyher, C. Bannwarth and S. Grimme, J. Chem. Phys., 2017,
     147, 034112. DOI: 10.1063/1.4993215
   * E. Caldeweyher, S. Ehlert, A. Hansen, H. Neugebauer, S. Spicher,
     C. Bannwarth and S. Grimme, J. Chem. Phys., 2019, 150, 154122.
     DOI: 10.1063/1.5090222
   * E. Caldeweyher, J.-M. Mewes, S. Ehlert and S. Grimme, Phys. Chem. Chem. Phys.
     2020, 22, 8499-8512. DOI: 10.1039/D0CP00502A
   
   for sTDA-xTB:
   * S. Grimme and C. Bannwarth, J. Chem. Phys., 2016, 145, 054103.
     DOI: 10.1063/1.4959605
   
   in the mass-spec context:
   * V. Asgeirsson, C. Bauer and S. Grimme, Chem. Sci., 2017, 8, 4879.
     DOI: 10.1039/c7sc00601b
   * J. Koopman and S. Grimme, ACS Omega 2019, 4, 12, 15120-15133.
     DOI: 10.1021/acsomega.9b02011
   
   for metadynamics refer to:
   * S. Grimme, J. Chem. Theory Comput., 2019, 155, 2847-2862
     DOI: 10.1021/acs.jctc.9b00143
   
   for SPH calculations refer to:
   * S. Spicher and S. Grimme, J. Chem. Theory Comput., 2021, 17, 1701-1714
     DOI: 10.1021/acs.jctc.0c01306
   
   with help from (in alphabetical order)
   P. Atkinson, C. Bannwarth, F. Bohle, G. Brandenburg, E. Caldeweyher
   M. Checinski, S. Dohm, S. Ehlert, S. Ehrlich, I. Gerasimov, C. Hölzer
   A. Katbashev, J. Koopman, C. Lavigne, S. Lehtola, F. März, M. Müller,
   F. Musil, H. Neugebauer, J. Pisarek, C. Plett, P. Pracht, F. Pultar,
   J. Seibert, P. Shushkov, S. Spicher, M. Stahn, M. Steiner, T. Strunk,
   J. Stückrath, T. Rose, and J. Unsleber
   
 * started run on 2024/02/12 at 14:13:51.615     

           -------------------------------------------------
          |                Calculation Setup                |
           -------------------------------------------------

          program call               : xtb struc.xyz --gfn2 --ceasefiles --opt
          hostname                   : node021
          coordinate file            : struc.xyz
          omp threads                :                     1

   ID    Z sym.   atoms
    1    6 C      1, 2, 5-7, 11-14, 27, 28
    2    7 N      3, 4
    3    1 H      8-10, 15-26, 29-34

           -------------------------------------------------
          |                 G F N 2 - x T B                 |
           -------------------------------------------------

        Reference                      10.1021/acs.jctc.8b01176
      * Hamiltonian:
        H0-scaling (s, p, d)           1.850000    2.230000    2.230000
        zeta-weighting                 0.500000
      * Dispersion:
        s8                             2.700000
        a1                             0.520000
        a2                             5.000000
        s9                             5.000000
      * Repulsion:
        kExp                           1.500000    1.000000
        rExp                           1.000000
      * Coulomb:
        alpha                          2.000000
        third order                    shell-resolved
        anisotropic                    true
        a3                             3.000000
        a5                             4.000000
        cn-shift                       1.200000
        cn-exp                         4.000000
        max-rad                        5.000000


          ...................................................
          :                      SETUP                      :
          :.................................................:
          :  # basis functions                  73          :
          :  # atomic orbitals                  73          :
          :  # shells                           47          :
          :  # electrons                        74          :
          :  max. iterations                   250          :
          :  Hamiltonian                  GFN2-xTB          :
          :  restarted?                      false          :
          :  GBSA solvation                  false          :
          :  PC potential                    false          :
          :  electronic temp.          300.0000000     K    :
          :  accuracy                    1.0000000          :
          :  -> integral cutoff          0.2500000E+02      :
          :  -> integral neglect         0.1000000E-07      :
          :  -> SCF convergence          0.1000000E-05 Eh   :
          :  -> wf. convergence          0.1000000E-03 e    :
          :  Broyden damping             0.4000000          :
          ...................................................

 iter      E             dE          RMSdq      gap      omega  full diag
   1    -40.2489210 -0.402489E+02  0.268E+00    5.41       0.0  T
   2    -40.3514351 -0.102514E+00  0.190E+00    4.54       1.0  T
   3    -40.3581553 -0.672021E-02  0.107E+00    4.77       1.0  T
   4    -40.3581410  0.143244E-04  0.275E-01    4.60       1.0  T
   5    -40.3591474 -0.100644E-02  0.767E-02    4.68       1.0  T
   6    -40.3592082 -0.607586E-04  0.393E-02    4.66       1.0  T
   7    -40.3592123 -0.408333E-05  0.180E-02    4.67       1.0  T
   8    -40.3592168 -0.454681E-05  0.175E-03    4.67       9.8  T
   9    -40.3592168 -0.644656E-08  0.826E-04    4.67      20.8  T
  10    -40.3592168 -0.863679E-09  0.225E-04    4.67      76.4  T

   *** convergence criteria satisfied after 10 iterations ***

         #    Occupation            Energy/Eh            Energy/eV
      -------------------------------------------------------------
         1        2.0000           -0.8799484             -23.9446
       ...           ...                  ...                  ...
        31        2.0000           -0.5848345             -15.9142
        32        2.0000           -0.5837525             -15.8847
        33        2.0000           -0.5810475             -15.8111
        34        2.0000           -0.5776230             -15.7179
        35        2.0000           -0.5750621             -15.6482
        36        2.0000           -0.5725886             -15.5809
        37        2.0000           -0.5709797             -15.5371 (HOMO)
        38                         -0.3993896             -10.8679 (LUMO)
        39                         -0.3604368              -9.8080
        40                         -0.1879809              -5.1152
        41                         -0.1500796              -4.0839
        42                         -0.0812886              -2.2120
       ...                                ...                  ...
        73                          0.4636682              12.6171
      -------------------------------------------------------------
                  HL-Gap            0.1715900 Eh            4.6692 eV
             Fermi-level           -0.4851846 Eh          -13.2025 eV

 SCC (total)                   0 d,  0 h,  0 min,  0.134 sec
 SCC setup                      ...        0 min,  0.000 sec (  0.362%)
 Dispersion                     ...        0 min,  0.000 sec (  0.358%)
 classical contributions        ...        0 min,  0.000 sec (  0.092%)
 integral evaluation            ...        0 min,  0.006 sec (  4.380%)
 iterations                     ...        0 min,  0.110 sec ( 81.948%)
 molecular gradient             ...        0 min,  0.017 sec ( 12.641%)
 printout                       ...        0 min,  0.000 sec (  0.205%)

         :::::::::::::::::::::::::::::::::::::::::::::::::::::
         ::                     SUMMARY                     ::
         :::::::::::::::::::::::::::::::::::::::::::::::::::::
         :: total energy             -39.747218378996 Eh    ::
         :: gradient norm              0.072753727676 Eh/a0 ::
         :: HOMO-LUMO gap              4.669202711346 eV    ::
         ::.................................................::
         :: SCC energy               -40.359216814699 Eh    ::
         :: -> isotropic ES            0.077026238149 Eh    ::
         :: -> anisotropic ES         -0.005669315220 Eh    ::
         :: -> anisotropic XC          0.026022777453 Eh    ::
         :: -> dispersion             -0.028022834655 Eh    ::
         :: repulsion energy           0.611704821716 Eh    ::
         :: add. restraining           0.000000000000 Eh    ::
         :: total charge               1.000000000000 e     ::
         :::::::::::::::::::::::::::::::::::::::::::::::::::::

      ----------------------------------------------------------- 
     |                   =====================                   |
     |                        A N C O P T                        |
     |                   =====================                   |
     |               Approximate Normal Coordinate               |
     |                Rational Function Optimizer                |
      ----------------------------------------------------------- 

Optimization log is written to '/dev/null'

          ...................................................
          :                      SETUP                      :
          :.................................................:
          :   optimization level             crude          :
          :   max. optcycles                   200          :
          :   ANC micro-cycles                  20          :
          :   degrees of freedom                96          :
          :.................................................:
          :   RF solver                   davidson          :
          :   write xtbopt.log                true          :
          :   linear?                        false          :
          :   energy convergence         0.5000000E-03 Eh   :
          :   grad. convergence          0.1000000E-01 Eh/α :
          :   maxmium RF displ.          1.0000000          :
          :   Hlow (freq-cutoff)         0.5000000E-02      :
          :   Hmax (freq-cutoff)         5.0000000          :
          :   S6 in model hess.         20.0000000          :
          ...................................................

generating ANC from model Hessian ...
Using Lindh-Hessian (1995)
 Shifting diagonal of input Hessian by    4.2754905937859326E-003
 Lowest  eigenvalues of input Hessian
    0.000000    0.000000    0.000000    0.000000    0.000000    0.000000
    0.005000    0.005222    0.006638    0.008673    0.009274    0.010136
    0.011359    0.014017    0.014044    0.014206    0.014408    0.014605
 Highest eigenvalues
    1.329886    1.689876    1.999350    2.018255    2.148655    2.208413


........................................................................
.............................. CYCLE    1 ..............................
........................................................................

 iter      E             dE          RMSdq      gap      omega  full diag
   1    -40.3592168 -0.403592E+02  0.818E-05    4.67       0.0  T
   2    -40.3592168 -0.193765E-10  0.462E-05    4.67     371.1  T
   3    -40.3592168 -0.147793E-11  0.285E-05    4.67     602.4  T
     SCC iter.                  ...        0 min,  0.006 sec
     gradient                   ...        0 min,  0.017 sec
 * total energy  :   -39.7472184 Eh     change       -0.1080238E-08 Eh
   gradient norm :     0.0727541 Eh/α   predicted     0.0000000E+00 (-100.00%)
   displ. norm   :     0.5099746 α      lambda       -0.2652019E-01
   maximum displ.:     0.2036961 α      in ANC's #16, #33, #24, ...

........................................................................
.............................. CYCLE    2 ..............................
........................................................................

 iter      E             dE          RMSdq      gap      omega  full diag
   1    -40.3713346 -0.403713E+02  0.367E-01    4.71       0.0  T
   2    -40.3714158 -0.812111E-04  0.214E-01    4.71       1.0  T
   3    -40.3714207 -0.488154E-05  0.226E-02    4.71       1.0  T
   4    -40.3714250 -0.431638E-05  0.699E-03    4.71       2.5  T
   5    -40.3714252 -0.197292E-06  0.410E-03    4.71       4.2  T
   6    -40.3714254 -0.150093E-06  0.117E-03    4.71      14.6  T
   7    -40.3714254 -0.204356E-07  0.396E-04    4.71      43.3  T
   8    -40.3714254 -0.128784E-08  0.157E-04    4.71     109.1  T
     SCC iter.                  ...        0 min,  0.013 sec
     gradient                   ...        0 min,  0.017 sec
 * total energy  :   -39.7657588 Eh     change       -0.1854043E-01 Eh
   gradient norm :     0.0332417 Eh/α   predicted    -0.1670916E-01 (  -9.88%)
   displ. norm   :     0.5040240 α      lambda       -0.9397834E-02
   maximum displ.:     0.2346900 α      in ANC's #16, #5, #4, ...

........................................................................
.............................. CYCLE    3 ..............................
........................................................................

 iter      E             dE          RMSdq      gap      omega  full diag
   1    -40.3751033 -0.403751E+02  0.222E-01    4.74       0.0  T
   2    -40.3751188 -0.155660E-04  0.129E-01    4.74       1.0  T
   3    -40.3751205 -0.163069E-05  0.102E-02    4.74       1.7  T
   4    -40.3751219 -0.138068E-05  0.466E-03    4.74       3.7  T
   5    -40.3751220 -0.122429E-06  0.228E-03    4.74       7.5  T
   6    -40.3751220 -0.471189E-07  0.607E-04    4.74      28.2  T
   7    -40.3751220 -0.470942E-08  0.221E-04    4.74      77.4  T
     SCC iter.                  ...        0 min,  0.012 sec
     gradient                   ...        0 min,  0.016 sec
 * total energy  :   -39.7720895 Eh     change       -0.6330739E-02 Eh
   gradient norm :     0.0189425 Eh/α   predicted    -0.5892635E-02 (  -6.92%)
   displ. norm   :     0.4568476 α      lambda       -0.3312544E-02
   maximum displ.:     0.2214168 α      in ANC's #4, #5, #16, ...

........................................................................
.............................. CYCLE    4 ..............................
........................................................................

 iter      E             dE          RMSdq      gap      omega  full diag
   1    -40.3783606 -0.403784E+02  0.110E-01    4.74       0.0  T
   2    -40.3783636 -0.301456E-05  0.646E-02    4.74       1.0  T
   3    -40.3783622  0.139477E-05  0.948E-03    4.74       1.8  T
   4    -40.3783645 -0.226556E-05  0.304E-03    4.74       5.6  T
   5    -40.3783646 -0.938465E-07  0.121E-03    4.74      14.2  T
   6    -40.3783646 -0.252882E-08  0.232E-04    4.74      73.8  T
   7    -40.3783646 -0.498304E-09  0.108E-04    4.74     159.4  T
     SCC iter.                  ...        0 min,  0.012 sec
     gradient                   ...        0 min,  0.016 sec
 * total energy  :   -39.7745465 Eh     change       -0.2456958E-02 Eh
   gradient norm :     0.0145325 Eh/α   predicted    -0.2001982E-02 ( -18.52%)
   displ. norm   :     0.4580390 α      lambda       -0.2054098E-02
   maximum displ.:     0.2586696 α      in ANC's #4, #5, #2, ...

........................................................................
.............................. CYCLE    5 ..............................
........................................................................

 iter      E             dE          RMSdq      gap      omega  full diag
   1    -40.3819169 -0.403819E+02  0.994E-02    4.76       0.0  T
   2    -40.3819194 -0.247893E-05  0.584E-02    4.76       1.0  T
   3    -40.3819168  0.253115E-05  0.113E-02    4.75       1.5  T
   4    -40.3819202 -0.338905E-05  0.245E-03    4.76       7.0  T
   5    -40.3819203 -0.539324E-07  0.109E-03    4.76      15.7  T
   6    -40.3819203 -0.289562E-08  0.235E-04    4.76      72.9  T
   7    -40.3819203 -0.574950E-09  0.897E-05    4.76     191.3  T
     SCC iter.                  ...        0 min,  0.012 sec
     gradient                   ...        0 min,  0.017 sec
 * total energy  :   -39.7760828 Eh     change       -0.1536267E-02 Eh
   gradient norm :     0.0104069 Eh/α   predicted    -0.1242532E-02 ( -19.12%)
   displ. norm   :     0.4337291 α      lambda       -0.1287589E-02
   maximum displ.:     0.2597032 α      in ANC's #4, #2, #5, ...

........................................................................
.............................. CYCLE    6 ..............................
........................................................................

 iter      E             dE          RMSdq      gap      omega  full diag
   1    -40.3846045 -0.403846E+02  0.933E-02    4.77       0.0  T
   2    -40.3846066 -0.206144E-05  0.547E-02    4.77       1.0  T
   3    -40.3846049  0.169215E-05  0.971E-03    4.77       1.8  T
   4    -40.3846072 -0.237851E-05  0.230E-03    4.77       7.5  T
   5    -40.3846073 -0.511576E-07  0.109E-03    4.77      15.8  T
   6    -40.3846073 -0.274596E-08  0.190E-04    4.77      90.2  T
   7    -40.3846073 -0.419973E-09  0.729E-05    4.77     235.4  T
     SCC iter.                  ...        0 min,  0.012 sec
     gradient                   ...        0 min,  0.017 sec
 * total energy  :   -39.7770458 Eh     change       -0.9630014E-03 Eh
   gradient norm :     0.0080205 Eh/α   predicted    -0.7649061E-03 ( -20.57%)
   displ. norm   :     0.3982889 α      lambda       -0.8022563E-03
   maximum displ.:     0.2367977 α      in ANC's #4, #2, #11, ...

........................................................................
.............................. CYCLE    7 ..............................
........................................................................

 iter      E             dE          RMSdq      gap      omega  full diag
   1    -40.3860169 -0.403860E+02  0.862E-02    4.79       0.0  T
   2    -40.3860182 -0.136129E-05  0.506E-02    4.79       1.0  T
   3    -40.3860180  0.258471E-06  0.579E-03    4.79       3.0  T
   4    -40.3860186 -0.673279E-06  0.204E-03    4.79       8.4  T
   5    -40.3860187 -0.376854E-07  0.982E-04    4.79      17.5  T
   6    -40.3860187 -0.405059E-08  0.107E-04    4.79     159.7  T
     SCC iter.                  ...        0 min,  0.011 sec
     gradient                   ...        0 min,  0.016 sec
 * total energy  :   -39.7776256 Eh     change       -0.5798613E-03 Eh
   gradient norm :     0.0070753 Eh/α   predicted    -0.4647611E-03 ( -19.85%)
   displ. norm   :     0.3079390 α      lambda       -0.4148111E-03
   maximum displ.:     0.1722938 α      in ANC's #4, #2, #11, ...

........................................................................
.............................. CYCLE    8 ..............................
........................................................................

 iter      E             dE          RMSdq      gap      omega  full diag
   1    -40.3876201 -0.403876E+02  0.667E-02    4.80       0.0  T
   2    -40.3876211 -0.938642E-06  0.392E-02    4.80       1.0  T
   3    -40.3876212 -0.137517E-06  0.276E-03    4.80       6.2  T
   4    -40.3876213 -0.804469E-07  0.144E-03    4.80      11.9  T
   5    -40.3876213 -0.149619E-07  0.780E-04    4.80      22.0  T
   6    -40.3876213 -0.467404E-08  0.846E-05    4.80     202.8  T
     SCC iter.                  ...        0 min,  0.011 sec
     gradient                   ...        0 min,  0.017 sec
 * total energy  :   -39.7779065 Eh     change       -0.2808900E-03 Eh
   gradient norm :     0.0061610 Eh/α   predicted    -0.2270732E-03 ( -19.16%)
   displ. norm   :     0.1985162 α      lambda       -0.1836224E-03
   maximum displ.:     0.1037321 α      in ANC's #2, #4, #11, ...

   *** GEOMETRY OPTIMIZATION CONVERGED AFTER 8 ITERATIONS ***

------------------------------------------------------------------------
 total energy gain   :        -0.0306881 Eh      -19.2571 kcal/mol
 total RMSD          :         0.4462611 a0        0.2362 Å
 total power (kW/mol):       -10.0714647 (step) -257.3916 (real)
------------------------------------------------------------------------

 ANCopt (total)                0 d,  0 h,  0 min,  0.313 sec
 optimizer setup                ...        0 min,  0.000 sec (  0.040%)
 model hessian                  ...        0 min,  0.035 sec ( 11.280%)
 ANC generation                 ...        0 min,  0.001 sec (  0.461%)
 coordinate transformation      ...        0 min,  0.000 sec (  0.066%)
 single point calculation       ...        0 min,  0.272 sec ( 86.904%)
 optimization log               ...        0 min,  0.001 sec (  0.461%)
 hessian update                 ...        0 min,  0.000 sec (  0.056%)
 rational function              ...        0 min,  0.001 sec (  0.475%)

================
 final structure:
================
34
 xtb: 6.6.1 (8d0f1dd)
C           -2.14572960327547        0.46606885867253        1.22984365453135
C            2.27688727431907       -0.45724870881174       -0.84270789331252
N           -1.08755393753915        0.24111781030445        0.22640494427673
N            0.83312628538370       -0.18528987435004       -0.70983058565550
C           -1.30922168665013        0.06950333112769       -1.10619266453909
C           -0.11158194339718       -0.19632836877292       -1.69226883707614
C            0.21520901492497        0.08451398747227        0.43821651058034
H           -2.27720884051598        0.13989920018552       -1.55714281810899
H            0.11805827842472       -0.38436010075719       -2.71855417084785
H            0.69897577969471        0.16014139728778        1.39009468711494
C           -1.51999079790595        0.76461430689093        2.58828837998946
C            3.04518143371641        0.80138515358906       -0.43333498865898
C            2.60247302958141       -0.82197813762674       -2.28824822972595
C           -3.00016001152352        1.65187381076982        0.78183490612369
H           -0.90034422928607        1.65504539392662        2.55058306490755
H            2.76549624191254        1.13211198894067        0.56326504338642
H            2.36909209729735       -0.00595432006941       -2.96837229835793
H           -2.39469554628393        2.55020476024145        0.67808355059221
H           -2.31321453781441        0.94477416921610        3.30650948084165
H            2.86158213585838        1.61422610655042       -1.13551520112186
H            3.66861759232033       -1.01757953860860       -2.36642184651223
H           -3.76481425454287        1.84326824795074        1.53086571099990
H           -0.93429022151867       -0.07280012969625        2.95553450501427
H            4.11241527244646        0.58763140807232       -0.43332881539265
H            2.07307624368555       -1.71944594387095       -2.59967304585640
H           -3.50325331994125        1.45812190099314       -0.16181952194516
C           -2.97842024851825       -0.81568184488956        1.29890763405908
C            2.61983324948075       -1.63158180508609        0.07867143903098
H           -3.81003138803089       -0.67326682131851        1.98564317206520
H            1.96324176590178       -2.47743417321520       -0.11157537165119
H           -3.38893903008236       -1.07587361795966        0.32619736229951
H            2.54407974888200       -1.35556827052817        1.12649972333465
H            3.64068161819278       -1.94978741104626       -0.10686180715944
H           -2.37670431869661       -1.64799239598434        1.66044373267358

 Bond Distances (Angstroems)
 ---------------------------
C1-N3=1.4755         C1-C11=1.5251        C1-C14=1.5287        C1-C27=1.5300        C2-N4=1.4751         C2-C12=1.5304        
C2-C13=1.5260        C2-C28=1.5315        N3-C1=1.4755         N3-C5=1.3618         N3-C7=1.3291         N4-C2=1.4751         
N4-C6=1.3630         N4-C7=1.3314         C5-N3=1.3618         C5-C6=1.3596         C5-H8=1.0702         C6-N4=1.3630         
C6-C5=1.3596         C6-H9=1.0683         C7-N3=1.3291         C7-N4=1.3314         C7-H10=1.0704        H8-C5=1.0702         
H9-C6=1.0683         H10-C7=1.0704        C11-C1=1.5251        C11-H15=1.0855       C11-H19=1.0851       C11-H23=1.0859       
C12-C2=1.5304        C12-H16=1.0867       C12-H20=1.0897       C12-H24=1.0884       C13-C2=1.5260        C13-H17=1.0876       
C13-H21=1.0868       C13-H25=1.0875       C14-C1=1.5287        C14-H18=1.0883       C14-H22=1.0874       C14-H26=1.0868       
H15-C11=1.0855       H16-C12=1.0867       H17-C13=1.0876       H18-C14=1.0883       H19-C11=1.0851       H20-C12=1.0897       
H21-C13=1.0868       H22-C14=1.0874       H23-C11=1.0859       H24-C12=1.0884       H25-C13=1.0875       H26-C14=1.0868       
C27-C1=1.5300        C27-H29=1.0879       C27-H31=1.0874       C27-H34=1.0888       C28-C2=1.5315        C28-H30=1.0876       
C28-H32=1.0862       C28-H33=1.0853       H29-C27=1.0879       H30-C28=1.0876       H31-C27=1.0874       H32-C28=1.0862       
H33-C28=1.0853       H34-C27=1.0888       
 C  H  Rav=1.0847 sigma=0.0062  Rmin=1.0683  Rmax=1.0897    21
 C  C  Rav=1.5045 sigma=0.0592  Rmin=1.3596  Rmax=1.5315     7
 N  C  Rav=1.3893 sigma=0.0622  Rmin=1.3291  Rmax=1.4755     6

 selected bond angles (degree)
 --------------------
C11-C1-N3=109.96               C14-C1-N3=108.65               C14-C1-C11=109.79              C27-C1-N3=107.05               
C27-C1-C11=110.31              C27-C1-C14=111.03              C12-C2-N4=108.40               C13-C2-N4=109.77               
C13-C2-C12=110.05              C28-C2-N4=107.84               C28-C2-C12=110.93              C28-C2-C13=109.81              
C5-N3-C1=124.61                C7-N3-C1=127.77                C7-N3-C5=107.50                C6-N4-C2=127.73                
C7-N4-C2=124.70                C7-N4-C6=107.55                C6-C5-N3=107.64                H8-C5-N3=123.46                
H8-C5-C6=128.90                C5-C6-N4=107.35                H9-C6-N4=123.01                H9-C6-C5=129.63                
N4-C7-N3=109.96                H10-C7-N3=125.19               H10-C7-N4=124.84               

 selected dihedral angles (degree)
 ---------------------------------
C5-N3-C1-C11=186.12           C5-N3-C1-C14=306.30           C5-N3-C1-C27= 66.28           C7-N3-C1-C11= 10.69           
C7-N3-C1-C14=130.87           C7-N3-C1-C27=250.85           C6-N4-C2-C12=118.17           C6-N4-C2-C13=357.94           
C6-N4-C2-C28=238.34           C7-N4-C2-C12=296.17           C7-N4-C2-C13=175.93           C7-N4-C2-C28= 56.34           
C6-C5-N3-C1=183.90            C6-C5-N3-C7=  0.11            H8-C5-N3-C1=  3.72            H8-C5-N3-C7=179.93            
C5-C6-N4-C2=178.12            C5-C6-N4-C7=359.85            H9-C6-N4-C2=357.96            H9-C6-N4-C7=179.69            
N4-C6-C5-N3=  0.03            N4-C6-C5-H8=180.21            H9-C6-C5-N3=180.20            H9-C6-C5-H8=  0.39            
N4-C7-N3-C1=175.85            N4-C7-N3-C5=359.79            H10-C7-N3-C1=356.04           H10-C7-N3-C5=179.98           
N3-C7-N4-C2=181.89            N3-C7-N4-C6=  0.22            H10-C7-N4-C2=  1.70           H10-C7-N4-C6=180.03           
           -------------------------------------------------
          |                Final Singlepoint                |
           -------------------------------------------------

          ...................................................
          :                      SETUP                      :
          :.................................................:
          :  # basis functions                  73          :
          :  # atomic orbitals                  73          :
          :  # shells                           47          :
          :  # electrons                        74          :
          :  max. iterations                   250          :
          :  Hamiltonian                  GFN2-xTB          :
          :  restarted?                      false          :
          :  GBSA solvation                  false          :
          :  PC potential                    false          :
          :  electronic temp.          300.0000000     K    :
          :  accuracy                    1.0000000          :
          :  -> integral cutoff          0.2500000E+02      :
          :  -> integral neglect         0.1000000E-07      :
          :  -> SCF convergence          0.1000000E-05 Eh   :
          :  -> wf. convergence          0.1000000E-03 e    :
          :  Broyden damping             0.4000000          :
          ...................................................

 iter      E             dE          RMSdq      gap      omega  full diag
   1    -40.3876213 -0.403876E+02  0.332E-05    4.80       0.0  T
   2    -40.3876213 -0.370193E-11  0.179E-05    4.80     958.0  T
   3    -40.3876213 -0.497380E-13  0.823E-06    4.80    2085.0  T

   *** convergence criteria satisfied after 3 iterations ***

         #    Occupation            Energy/Eh            Energy/eV
      -------------------------------------------------------------
         1        2.0000           -0.8781945             -23.8969
       ...           ...                  ...                  ...
        31        2.0000           -0.5905661             -16.0701
        32        2.0000           -0.5896560             -16.0454
        33        2.0000           -0.5817026             -15.8289
        34        2.0000           -0.5782481             -15.7349
        35        2.0000           -0.5778835             -15.7250
        36        2.0000           -0.5740387             -15.6204
        37        2.0000           -0.5696884             -15.5020 (HOMO)
        38                         -0.3932015             -10.6996 (LUMO)
        39                         -0.3564825              -9.7004
        40                         -0.1972018              -5.3661
        41                         -0.1482200              -4.0333
        42                         -0.0746668              -2.0318
       ...                                ...                  ...
        73                          0.4761295              12.9561
      -------------------------------------------------------------
                  HL-Gap            0.1764869 Eh            4.8025 eV
             Fermi-level           -0.4814450 Eh          -13.1008 eV

 SCC (total)                   0 d,  0 h,  0 min,  0.030 sec
 SCC setup                      ...        0 min,  0.000 sec (  0.892%)
 Dispersion                     ...        0 min,  0.000 sec (  0.969%)
 classical contributions        ...        0 min,  0.000 sec (  0.361%)
 integral evaluation            ...        0 min,  0.005 sec ( 17.807%)
 iterations                     ...        0 min,  0.006 sec ( 20.773%)
 molecular gradient             ...        0 min,  0.018 sec ( 58.593%)
 printout                       ...        0 min,  0.000 sec (  0.549%)

         :::::::::::::::::::::::::::::::::::::::::::::::::::::
         ::                     SUMMARY                     ::
         :::::::::::::::::::::::::::::::::::::::::::::::::::::
         :: total energy             -39.777906525629 Eh    ::
         :: gradient norm              0.006161401112 Eh/a0 ::
         :: HOMO-LUMO gap              4.802452225750 eV    ::
         ::.................................................::
         :: SCC energy               -40.387621304858 Eh    ::
         :: -> isotropic ES            0.076466320210 Eh    ::
         :: -> anisotropic ES         -0.005915284722 Eh    ::
         :: -> anisotropic XC          0.025758685592 Eh    ::
         :: -> dispersion             -0.027871094881 Eh    ::
         :: repulsion energy           0.609439998787 Eh    ::
         :: add. restraining           0.000000000000 Eh    ::
         :: total charge               1.000000000000 e     ::
         :::::::::::::::::::::::::::::::::::::::::::::::::::::

           -------------------------------------------------
          |                Property Printout                |
           -------------------------------------------------

    * Orbital Energies and Occupations

         #    Occupation            Energy/Eh            Energy/eV
      -------------------------------------------------------------
         1        2.0000           -0.8781945             -23.8969
       ...           ...                  ...                  ...
        25        2.0000           -0.6013741             -16.3642
        26        2.0000           -0.5996367             -16.3169
        27        2.0000           -0.5984786             -16.2854
        28        2.0000           -0.5957398             -16.2109
        29        2.0000           -0.5933668             -16.1463
        30        2.0000           -0.5913194             -16.0906
        31        2.0000           -0.5905661             -16.0701
        32        2.0000           -0.5896560             -16.0454
        33        2.0000           -0.5817026             -15.8289
        34        2.0000           -0.5782481             -15.7349
        35        2.0000           -0.5778835             -15.7250
        36        2.0000           -0.5740387             -15.6204
        37        2.0000           -0.5696884             -15.5020 (HOMO)
        38                         -0.3932015             -10.6996 (LUMO)
        39                         -0.3564825              -9.7004
        40                         -0.1972018              -5.3661
        41                         -0.1482200              -4.0333
        42                         -0.0746668              -2.0318
        43                         -0.0599331              -1.6309
        44                         -0.0580755              -1.5803
        45                         -0.0560297              -1.5246
        46                         -0.0411503              -1.1198
        47                         -0.0356123              -0.9691
        48                         -0.0323112              -0.8792
       ...                                ...                  ...
        73                          0.4761295              12.9561
      -------------------------------------------------------------
                  HL-Gap            0.1764869 Eh            4.8025 eV
             Fermi-level           -0.4814450 Eh          -13.1008 eV

     #   Z          covCN         q      C6AA      α(0)
     1   6 C        3.836     0.075    19.301     6.250
     2   6 C        3.837     0.074    19.314     6.252
     3   7 N        2.869     0.048    20.399     6.708
     4   7 N        2.871     0.045    20.446     6.716
     5   6 C        3.081    -0.005    28.063     8.685
     6   6 C        3.073    -0.007    28.119     8.695
     7   6 C        3.110     0.053    26.676     8.462
     8   1 H        0.927     0.099     1.796     2.096
     9   1 H        0.927     0.105     1.742     2.064
    10   1 H        0.926     0.107     1.719     2.050
    11   6 C        3.760    -0.133    23.100     6.852
    12   6 C        3.759    -0.129    23.020     6.840
    13   6 C        3.760    -0.131    23.064     6.847
    14   6 C        3.759    -0.129    23.023     6.840
    15   1 H        0.925     0.059     2.216     2.328
    16   1 H        0.925     0.053     2.287     2.365
    17   1 H        0.925     0.061     2.184     2.311
    18   1 H        0.925     0.059     2.205     2.322
    19   1 H        0.925     0.082     1.957     2.188
    20   1 H        0.925     0.062     2.179     2.308
    21   1 H        0.925     0.080     1.984     2.203
    22   1 H        0.925     0.079     1.990     2.206
    23   1 H        0.925     0.056     2.247     2.344
    24   1 H        0.925     0.080     1.977     2.199
    25   1 H        0.925     0.062     2.177     2.307
    26   1 H        0.925     0.061     2.185     2.312
    27   6 C        3.760    -0.128    22.998     6.837
    28   6 C        3.760    -0.129    23.036     6.842
    29   1 H        0.925     0.080     1.981     2.201
    30   1 H        0.925     0.057     2.230     2.335
    31   1 H        0.925     0.060     2.202     2.321
    32   1 H        0.925     0.055     2.253     2.347
    33   1 H        0.925     0.080     1.975     2.198
    34   1 H        0.925     0.057     2.230     2.335

 Mol. C6AA /au·bohr⁶  :       8559.312643
 Mol. C8AA /au·bohr⁸  :     188329.880566
 Mol. α(0) /au        :        140.164450


molecular dipole:
                 x           y           z       tot (Debye)
 q only:       -0.106      -0.010      -0.099
   full:       -0.100      -0.005      -0.083       0.332
molecular quadrupole (traceless):
                xx          xy          yy          xz          yz          zz
 q only:       13.390      -5.080     -11.953      -8.862       2.941      -1.437
  q+dip:       13.179      -4.984     -12.560      -8.048       3.006      -0.619
   full:       12.447      -4.694     -11.367      -7.973       2.745      -1.080

           -------------------------------------------------
          |                Geometry Summary                 |
           -------------------------------------------------

      molecular mass/u    :      181.2982571
   center of mass at/Å    :       -0.0334931      -0.0029467      -0.0120739
  moments of inertia/u·Å² :        0.3018985E+03   0.1124339E+04   0.1203026E+04
rotational constants/cm⁻¹ :        0.5583874E-01   0.1499337E-01   0.1401269E-01

 * 34 selected distances

     #   Z          #   Z                                           value/Å
     1   6 C        3   7 N                                       1.4755434
     2   6 C        4   7 N                                       1.4751489
     3   7 N        5   6 C                                       1.3617653
     4   7 N        6   6 C                                       1.3630043
     5   6 C        6   6 C                                       1.3595930
     3   7 N        7   6 C                                       1.3291277
     4   7 N        7   6 C                                       1.3314009
     5   6 C        8   1 H                                       1.0701920
     6   6 C        9   1 H                                       1.0683409 (min)
     7   6 C       10   1 H                                       1.0704308
     1   6 C       11   6 C                                       1.5251396
     2   6 C       12   6 C                                       1.5303665
     2   6 C       13   6 C                                       1.5259820
     1   6 C       14   6 C                                       1.5286913
    11   6 C       15   1 H                                       1.0854728
    12   6 C       16   1 H                                       1.0866535
    13   6 C       17   1 H                                       1.0876261
    14   6 C       18   1 H                                       1.0882786
    11   6 C       19   1 H                                       1.0851282
    12   6 C       20   1 H                                       1.0897139
    13   6 C       21   1 H                                       1.0867546
    14   6 C       22   1 H                                       1.0873708
    11   6 C       23   1 H                                       1.0858996
    12   6 C       24   1 H                                       1.0884296
    13   6 C       25   1 H                                       1.0875178
    14   6 C       26   1 H                                       1.0867965
     1   6 C       27   6 C                                       1.5300421
     2   6 C       28   6 C                                       1.5315386 (max)
    27   6 C       29   1 H                                       1.0878718
    28   6 C       30   1 H                                       1.0875535
    27   6 C       31   1 H                                       1.0873780
    28   6 C       32   1 H                                       1.0862166
    28   6 C       33   1 H                                       1.0852691
    27   6 C       34   1 H                                       1.0888120

 * 3 distinct bonds (by element types)

   Z      Z             #   av. dist./Å        max./Å        min./Å
   1 H    6 C          21     1.0846527     1.0897139     1.0683409
   6 C    6 C           7     1.5044790     1.5315386     1.3595930
   6 C    7 N           6     1.3893318     1.4755434     1.3291277


optimized geometry written to: xtbopt.xyz


           -------------------------------------------------
          | TOTAL ENERGY              -39.777906525629 Eh   |
          | GRADIENT NORM               0.006161401112 Eh/α |
          | HOMO-LUMO GAP               4.802452225750 eV   |
           -------------------------------------------------

------------------------------------------------------------------------
 * finished run on 2024/02/12 at 14:13:52.120     
------------------------------------------------------------------------
 total:
 * wall-time:     0 d,  0 h,  0 min,  0.504 sec
 *  cpu-time:     0 d,  0 h,  0 min,  0.411 sec
 * ratio c/w:     0.815 speedup
 SCF:
 * wall-time:     0 d,  0 h,  0 min,  0.134 sec
 *  cpu-time:     0 d,  0 h,  0 min,  0.045 sec
 * ratio c/w:     0.336 speedup
 ANC optimizer:
 * wall-time:     0 d,  0 h,  0 min,  0.345 sec
 *  cpu-time:     0 d,  0 h,  0 min,  0.341 sec
 * ratio c/w:     0.989 speedup

