
                                 *****************
                                 * O   R   C   A *
                                 *****************

                                            #,                                       
                                            ###                                      
                                            ####                                     
                                            #####                                    
                                            ######                                   
                                           ########,                                 
                                     ,,################,,,,,                         
                               ,,#################################,,                 
                          ,,##########################################,,             
                       ,#########################################, ''#####,          
                    ,#############################################,,   '####,        
                  ,##################################################,,,,####,       
                ,###########''''           ''''###############################       
              ,#####''   ,,,,##########,,,,          '''####'''          '####       
            ,##' ,,,,###########################,,,                        '##       
           ' ,,###''''                  '''############,,,                           
         ,,##''                                '''############,,,,        ,,,,,,###''
      ,#''                                            '''#######################'''  
     '                                                          ''''####''''         
             ,#######,   #######,   ,#######,      ##                                
            ,#'     '#,  ##    ##  ,#'     '#,    #''#        ######   ,####,        
            ##       ##  ##   ,#'  ##            #'  '#       #        #'  '#        
            ##       ##  #######   ##           ,######,      #####,   #    #        
            '#,     ,#'  ##    ##  '#,     ,#' ,#      #,         ##   #,  ,#        
             '#######'   ##     ##  '#######'  #'      '#     #####' # '####'        



                  #######################################################
                  #                        -***-                        #
                  #          Department of theory and spectroscopy      #
                  #    Directorship and core code : Frank Neese         #
                  #        Max Planck Institute fuer Kohlenforschung    #
                  #                Kaiser Wilhelm Platz 1               #
                  #                 D-45470 Muelheim/Ruhr               #
                  #                      Germany                        #
                  #                                                     #
                  #                  All rights reserved                #
                  #                        -***-                        #
                  #######################################################


                         Program Version 5.0.4 -  RELEASE  -


 With contributions from (in alphabetic order):
   Daniel Aravena         : Magnetic Suceptibility
   Michael Atanasov       : Ab Initio Ligand Field Theory (pilot matlab implementation)
   Alexander A. Auer      : GIAO ZORA, VPT2 properties, NMR spectrum
   Ute Becker             : Parallelization
   Giovanni Bistoni       : ED, misc. LED, open-shell LED, HFLD
   Martin Brehm           : Molecular dynamics
   Dmytro Bykov           : SCF Hessian
   Vijay G. Chilkuri      : MRCI spin determinant printing, contributions to CSF-ICE
   Dipayan Datta          : RHF DLPNO-CCSD density
   Achintya Kumar Dutta   : EOM-CC, STEOM-CC
   Dmitry Ganyushin       : Spin-Orbit,Spin-Spin,Magnetic field MRCI
   Miquel Garcia          : C-PCM and meta-GGA Hessian, CC/C-PCM, Gaussian charge scheme
   Yang Guo               : DLPNO-NEVPT2, F12-NEVPT2, CIM, IAO-localization
   Andreas Hansen         : Spin unrestricted coupled pair/coupled cluster methods
   Benjamin Helmich-Paris : MC-RPA, TRAH-SCF, COSX integrals
   Lee Huntington         : MR-EOM, pCC
   Robert Izsak           : Overlap fitted RIJCOSX, COSX-SCS-MP3, EOM
   Marcus Kettner         : VPT2
   Christian Kollmar      : KDIIS, OOCD, Brueckner-CCSD(T), CCSD density, CASPT2, CASPT2-K
   Simone Kossmann        : Meta GGA functionals, TD-DFT gradient, OOMP2, MP2 Hessian
   Martin Krupicka        : Initial AUTO-CI
   Lucas Lang             : DCDCAS
   Marvin Lechner         : AUTO-CI (C++ implementation), FIC-MRCC
   Dagmar Lenk            : GEPOL surface, SMD
   Dimitrios Liakos       : Extrapolation schemes; Compound Job, initial MDCI parallelization
   Dimitrios Manganas     : Further ROCIS development; embedding schemes
   Dimitrios Pantazis     : SARC Basis sets
   Anastasios Papadopoulos: AUTO-CI, single reference methods and gradients
   Taras Petrenko         : DFT Hessian,TD-DFT gradient, ASA, ECA, R-Raman, ABS, FL, XAS/XES, NRVS
   Peter Pinski           : DLPNO-MP2, DLPNO-MP2 Gradient
   Christoph Reimann      : Effective Core Potentials
   Marius Retegan         : Local ZFS, SOC
   Christoph Riplinger    : Optimizer, TS searches, QM/MM, DLPNO-CCSD(T), (RO)-DLPNO pert. Triples
   Tobias Risthaus        : Range-separated hybrids, TD-DFT gradient, RPA, STAB
   Michael Roemelt        : Original ROCIS implementation
   Masaaki Saitow         : Open-shell DLPNO-CCSD energy and density
   Barbara Sandhoefer     : DKH picture change effects
   Avijit Sen             : IP-ROCIS
   Kantharuban Sivalingam : CASSCF convergence, NEVPT2, FIC-MRCI
   Bernardo de Souza      : ESD, SOC TD-DFT
   Georgi Stoychev        : AutoAux, RI-MP2 NMR, DLPNO-MP2 response
   Willem Van den Heuvel  : Paramagnetic NMR
   Boris Wezisla          : Elementary symmetry handling
   Frank Wennmohs         : Technical directorship


 We gratefully acknowledge several colleagues who have allowed us to
 interface, adapt or use parts of their codes:
   Stefan Grimme, W. Hujo, H. Kruse, P. Pracht,  : VdW corrections, initial TS optimization,
                  C. Bannwarth, S. Ehlert          DFT functionals, gCP, sTDA/sTD-DF
   Ed Valeev, F. Pavosevic, A. Kumar             : LibInt (2-el integral package), F12 methods
   Garnet Chan, S. Sharma, J. Yang, R. Olivares  : DMRG
   Ulf Ekstrom                                   : XCFun DFT Library
   Mihaly Kallay                                 : mrcc  (arbitrary order and MRCC methods)
   Jiri Pittner, Ondrej Demel                    : Mk-CCSD
   Frank Weinhold                                : gennbo (NPA and NBO analysis)
   Christopher J. Cramer and Donald G. Truhlar   : smd solvation model
   Lars Goerigk                                  : TD-DFT with DH, B97 family of functionals
   V. Asgeirsson, H. Jonsson                     : NEB implementation
   FAccTs GmbH                                   : IRC, NEB, NEB-TS, DLPNO-Multilevel, CI-OPT
                                                   MM, QMMM, 2- and 3-layer-ONIOM, Crystal-QMMM,
                                                   LR-CPCM, SF, NACMEs, symmetry and pop. for TD-DFT,
                                                   nearIR, NL-DFT gradient (VV10), updates on ESD,
                                                   ML-optimized integration grids
   S Lehtola, MJT Oliveira, MAL Marques          : LibXC Library
   Liviu Ungur et al                             : ANISO software


 Your calculation uses the libint2 library for the computation of 2-el integrals
 For citations please refer to: http://libint.valeyev.net

 Your ORCA version has been built with support for libXC version: 5.1.0
 For citations please refer to: https://tddft.org/programs/libxc/

 This ORCA versions uses:
   CBLAS   interface :  Fast vector & matrix operations
   LAPACKE interface :  Fast linear algebra routines
   SCALAPACK package :  Parallel linear algebra routines
   Shared memory     :  Shared parallel matrices
   BLAS/LAPACK       :  OpenBLAS 0.3.15  USE64BITINT DYNAMIC_ARCH NO_AFFINITY SkylakeX SINGLE_THREADED
        Core in use  :  SkylakeX
   Copyright (c) 2011-2014, The OpenBLAS Project




***************************************
The coordinates will be read from file: 10_deprot.xyz
***************************************


Your calculation utilizes the atom-pairwise dispersion correction
based on tight binding partial charges (D4)
Cite in your paper:
E.Caldeweyher, C.Bannwarth, S.Grimme, J.Chem.Phys., (2017), 147, 034112.
E.Caldeweyher, S.Ehlert, A.Hansen, H.Neugebauer, S.Grimme, J.Chem.Phys., (2018), in progress.
   

XCFun DFT library Copyright 2009-2010 Ulf Ekstrom and contributors.
See http://admol.org/xcfun for more information.
This is free software; see the source code for copying conditions.
There is ABSOLUTELY NO WARRANTY; not even for MERCHANTABILITY or FITNESS FOR A PARTICULAR PURPOSE.
For details see the documentation.
Scientific users of this library should cite U. Ekstrom, L. Visscher, R. Bast, A. J. Thorvaldsen and K. Ruud;
J.Chem.Theor.Comp. 2010, DOI: 10.1021/ct100117s
XCFun Version 0.99 

================================================================================

----- Orbital basis set information -----
Your calculation utilizes the basis: def2-TZVP
   F. Weigend and R. Ahlrichs, Phys. Chem. Chem. Phys. 7, 3297 (2005).

----- AuxJ basis set information -----
Your calculation utilizes the auxiliary basis: def2/J
   F. Weigend, Phys. Chem. Chem. Phys. 8, 1057 (2006).

================================================================================
                                        WARNINGS
                       Please study these warnings very carefully!
================================================================================


WARNING: Geometry Optimization
  ===> : Switching off AutoStart
         For restart on a previous wavefunction, please use MOREAD

INFO   : the flag for use of the SHARK integral package has been found!

================================================================================
                                       INPUT FILE
================================================================================
NAME = 10_deprot.inp
|  1> # ORCA 5.0.4 - /users/bwb16179/postgrad/2024_06/pKa_Reviewer_Comments/Aq_Z=0/10_deprot.inp # write input file
|  2> # Basic Mode
|  3> #
|  4> ! Opt Freq wB97X Def2-TZVP D4 SlowConv TightSCF Defgrid2 Def2/J RIJCOSX CPCM(Water)
|  5> 
|  6> %PAL NPROCS 4 END
|  7> 
|  8> %maxcore 4500
|  9> 
| 10> %geom
| 11> Maxiter 150
| 12> END
| 13> 
| 14> * xyzfile 0 1 10_deprot.xyz
| 15> 
| 16>                          ****END OF INPUT****
================================================================================

                       *****************************
                       * Geometry Optimization Run *
                       *****************************

Geometry optimization settings:
Update method            Update   .... BFGS
Choice of coordinates    CoordSys .... Z-matrix Internals
Initial Hessian          InHess   .... Almoef's Model

Convergence Tolerances:
Energy Change            TolE     ....  5.0000e-06 Eh
Max. Gradient            TolMAXG  ....  3.0000e-04 Eh/bohr
RMS Gradient             TolRMSG  ....  1.0000e-04 Eh/bohr
Max. Displacement        TolMAXD  ....  4.0000e-03 bohr
RMS Displacement         TolRMSD  ....  2.0000e-03 bohr
Strict Convergence                ....  False
------------------------------------------------------------------------------
                        ORCA OPTIMIZATION COORDINATE SETUP
------------------------------------------------------------------------------

The optimization will be done in new redundant internal coordinates
Making redundant internal coordinates   ...  (new redundants) done
Evaluating the initial hessian          ...  (Almloef) done
Evaluating the coordinates              ...  done
Calculating the B-matrix                .... done
Calculating the G-matrix                .... done
Diagonalizing the G-matrix              .... done
The first mode is                       ....   49
The number of degrees of freedom        ....   54

    -----------------------------------------------------------------
                    Redundant Internal Coordinates


    -----------------------------------------------------------------
         Definition                    Initial Value    Approx d2E/dq
    -----------------------------------------------------------------
      1. B(C   3,C   2)                  1.5167         0.392279   
      2. B(C   3,C   0)                  1.5167         0.392280   
      3. B(H   4,C   0)                  1.1064         0.339019   
      4. B(H   5,C   2)                  1.1019         0.344638   
      5. B(H   6,C   3)                  1.1027         0.343725   
      6. B(N   7,C   1)                  1.3445         0.661336   
      7. B(N   7,C   0)                  1.4612         0.430880   
      8. B(N   8,C   2)                  1.4612         0.430880   
      9. B(N   8,C   1)                  1.3445         0.661336   
     10. B(H   9,C   2)                  1.1064         0.339020   
     11. B(H  10,C   3)                  1.0997         0.347431   
     12. B(H  11,C   0)                  1.1019         0.344639   
     13. B(C  12,N   7)                  1.4485         0.451363   
     14. B(H  13,C  12)                  1.0968         0.351183   
     15. B(H  14,C  12)                  1.1039         0.342172   
     16. B(H  15,C  12)                  1.1043         0.341725   
     17. B(C  16,N   8)                  1.4485         0.451363   
     18. B(H  17,C  16)                  1.1039         0.342171   
     19. B(H  18,C  16)                  1.0968         0.351183   
     20. B(H  19,C  16)                  1.1043         0.341726   
     21. A(C   3,C   0,H  11)          110.5532         0.324584   
     22. A(C   3,C   0,H   4)          110.6746         0.323709   
     23. A(H   4,C   0,H  11)          106.8225         0.286134   
     24. A(C   3,C   0,N   7)          110.2423         0.373151   
     25. A(H   4,C   0,N   7)          109.9401         0.326775   
     26. A(N   7,C   0,H  11)          108.5276         0.327662   
     27. A(N   7,C   1,N   8)          116.1872         0.438473   
     28. A(H   5,C   2,H   9)          106.8225         0.286134   
     29. A(C   3,C   2,H   5)          110.5532         0.324584   
     30. A(N   8,C   2,H   9)          109.9401         0.326775   
     31. A(H   5,C   2,N   8)          108.5276         0.327662   
     32. A(C   3,C   2,H   9)          110.6747         0.323709   
     33. A(C   3,C   2,N   8)          110.2423         0.373151   
     34. A(C   2,C   3,H   6)          109.5444         0.324442   
     35. A(H   6,C   3,H  10)          107.5575         0.287112   
     36. A(C   0,C   3,C   2)          109.3513         0.369487   
     37. A(C   0,C   3,H  10)          110.4085         0.325014   
     38. A(C   2,C   3,H  10)          110.4085         0.325014   
     39. A(C   0,C   3,H   6)          109.5444         0.324442   
     40. A(C   1,N   7,C  12)          119.4109         0.409528   
     41. A(C   0,N   7,C  12)          114.7958         0.379905   
     42. A(C   0,N   7,C   1)          125.6735         0.406176   
     43. A(C   1,N   8,C  16)          119.4109         0.409528   
     44. A(C   2,N   8,C  16)          114.7958         0.379905   
     45. A(C   1,N   8,C   2)          125.6735         0.406176   
     46. A(H  14,C  12,H  15)          107.7462         0.286169   
     47. A(H  13,C  12,H  15)          108.8217         0.287332   
     48. A(N   7,C  12,H  15)          110.9671         0.329721   
     49. A(H  13,C  12,H  14)          109.0995         0.287391   
     50. A(N   7,C  12,H  14)          111.2223         0.329792   
     51. A(N   7,C  12,H  13)          108.9339         0.331213   
     52. A(H  18,C  16,H  19)          108.8217         0.287332   
     53. A(H  17,C  16,H  19)          107.7462         0.286169   
     54. A(N   8,C  16,H  19)          110.9671         0.329721   
     55. A(H  17,C  16,H  18)          109.0995         0.287391   
     56. A(N   8,C  16,H  18)          108.9339         0.331213   
     57. A(N   8,C  16,H  17)          111.2223         0.329792   
     58. D(C   0,C   3,C   2,N   8)    -50.0912         0.012228   
     59. D(H   6,C   3,C   0,N   7)    -69.9697         0.012228   
     60. D(H   6,C   3,C   0,H   4)    168.1824         0.012228   
     61. D(C   0,C   3,C   2,H   9)     71.7566         0.012228   
     62. D(H  10,C   3,C   0,H  11)    -68.2417         0.012228   
     63. D(H  10,C   3,C   0,H   4)     49.9125         0.012228   
     64. D(H  10,C   3,C   2,N   8)   -171.7604         0.012228   
     65. D(H  10,C   3,C   0,N   7)    171.7604         0.012228   
     66. D(H   6,C   3,C   2,H   5)    -50.0282         0.012228   
     67. D(C   2,C   3,C   0,H  11)    170.0892         0.012228   
     68. D(H   6,C   3,C   2,N   8)     69.9697         0.012228   
     69. D(H   6,C   3,C   0,H  11)     50.0282         0.012228   
     70. D(H  10,C   3,C   2,H   5)     68.2416         0.012228   
     71. D(H   6,C   3,C   2,H   9)   -168.1824         0.012228   
     72. D(C   0,C   3,C   2,H   5)   -170.0892         0.012228   
     73. D(H  10,C   3,C   2,H   9)    -49.9126         0.012228   
     74. D(C   2,C   3,C   0,N   7)     50.0912         0.012228   
     75. D(C   2,C   3,C   0,H   4)    -71.7567         0.012228   
     76. D(C  12,N   7,C   1,N   8)    176.7174         0.032417   
     77. D(C   0,N   7,C   1,N   8)      0.9132         0.032417   
     78. D(C  12,N   7,C   0,H  11)     35.9386         0.015829   
     79. D(C  12,N   7,C   0,H   4)    -80.5662         0.015829   
     80. D(C  12,N   7,C   0,C   3)    157.1520         0.015829   
     81. D(C   1,N   7,C   0,H  11)   -148.0873         0.015829   
     82. D(C   1,N   7,C   0,H   4)     95.4079         0.015829   
     83. D(C   1,N   7,C   0,C   3)    -26.8739         0.015829   
     84. D(C   1,N   8,C   2,H   5)    148.0874         0.015829   
     85. D(C   1,N   8,C   2,C   3)     26.8740         0.015829   
     86. D(C  16,N   8,C   1,N   7)   -176.7174         0.032417   
     87. D(C   1,N   8,C   2,H   9)    -95.4078         0.015829   
     88. D(C   2,N   8,C   1,N   7)     -0.9132         0.032417   
     89. D(C  16,N   8,C   2,H   9)     80.5662         0.015829   
     90. D(C  16,N   8,C   2,H   5)    -35.9386         0.015829   
     91. D(C  16,N   8,C   2,C   3)   -157.1520         0.015829   
     92. D(H  15,C  12,N   7,C   1)   -118.7417         0.017381   
     93. D(H  15,C  12,N   7,C   0)     57.5044         0.017381   
     94. D(H  14,C  12,N   7,C   1)    121.3265         0.017381   
     95. D(H  14,C  12,N   7,C   0)    -62.4275         0.017381   
     96. D(H  13,C  12,N   7,C   1)      1.0414         0.017381   
     97. D(H  13,C  12,N   7,C   0)    177.2874         0.017381   
     98. D(H  19,C  16,N   8,C   2)    -57.5041         0.017381   
     99. D(H  19,C  16,N   8,C   1)    118.7419         0.017381   
    100. D(H  18,C  16,N   8,C   2)   -177.2873         0.017381   
    101. D(H  18,C  16,N   8,C   1)     -1.0413         0.017381   
    102. D(H  17,C  16,N   8,C   2)     62.4277         0.017381   
    103. D(H  17,C  16,N   8,C   1)   -121.3263         0.017381   
    -----------------------------------------------------------------

Number of atoms                         .... 20
Number of degrees of freedom            .... 103

         *************************************************************
         *                GEOMETRY OPTIMIZATION CYCLE   1            *
         *************************************************************
---------------------------------
CARTESIAN COORDINATES (ANGSTROEM)
---------------------------------
  C     -0.193162    1.051260    1.237464
  C      0.077463   -1.100366    0.000000
  C     -0.193163    1.051260   -1.237464
  C      0.355695    1.735233   -0.000000
  H     -1.266782    1.284192    1.368805
  H      0.324359    1.412433   -2.140797
  H      1.456429    1.669939   -0.000001
  N     -0.005065   -0.394546    1.141387
  N     -0.005065   -0.394546   -1.141387
  H     -1.266783    1.284191   -1.368804
  H      0.086611    2.801555   -0.000000
  H      0.324361    1.412433    2.140796
  C      0.003705   -1.091711    2.411059
  H      0.101295   -2.168274    2.225278
  H      0.843206   -0.756992    3.044936
  H     -0.932145   -0.909733    2.968241
  C      0.003705   -1.091711   -2.411059
  H      0.843208   -0.756994   -3.044935
  H      0.101293   -2.168274   -2.225278
  H     -0.932143   -0.909730   -2.968243

----------------------------
CARTESIAN COORDINATES (A.U.)
----------------------------
  NO LB      ZA    FRAG     MASS         X           Y           Z
   0 C     6.0000    0    12.011   -0.365023    1.986593    2.338468
   1 C     6.0000    0    12.011    0.146384   -2.079390    0.000000
   2 C     6.0000    0    12.011   -0.365025    1.986593   -2.338468
   3 C     6.0000    0    12.011    0.672166    3.279115   -0.000000
   4 H     1.0000    0     1.008   -2.393871    2.426771    2.586667
   5 H     1.0000    0     1.008    0.612950    2.669112   -4.045520
   6 H     1.0000    0     1.008    2.752252    3.155727   -0.000002
   7 N     7.0000    0    14.007   -0.009571   -0.745584    2.156909
   8 N     7.0000    0    14.007   -0.009571   -0.745584   -2.156909
   9 H     1.0000    0     1.008   -2.393873    2.426769   -2.586665
  10 H     1.0000    0     1.008    0.163671    5.294172   -0.000000
  11 H     1.0000    0     1.008    0.612953    2.669112    4.045518
  12 C     6.0000    0    12.011    0.007001   -2.063035    4.556241
  13 H     1.0000    0     1.008    0.191420   -4.097444    4.205166
  14 H     1.0000    0     1.008    1.593428   -1.430508    5.754095
  15 H     1.0000    0     1.008   -1.761499   -1.719146    5.609163
  16 C     6.0000    0    12.011    0.007001   -2.063035   -4.556241
  17 H     1.0000    0     1.008    1.593432   -1.430511   -5.754093
  18 H     1.0000    0     1.008    0.191416   -4.097444   -4.205166
  19 H     1.0000    0     1.008   -1.761495   -1.719141   -5.609166

--------------------------------
INTERNAL COORDINATES (ANGSTROEM)
--------------------------------
 C      0   0   0     0.000000000000     0.00000000     0.00000000
 C      1   0   0     2.496807859207     0.00000000     0.00000000
 C      1   2   0     2.474928000000    60.28946408     0.00000000
 C      1   2   3     1.516700439267    86.84839191   335.42062624
 H      1   2   3     1.106421113006   110.20811559    86.30734916
 H      3   1   2     1.101946217064   145.06089952   242.25810561
 H      4   1   2     1.102668873775   109.54444534   278.60789408
 N      2   1   3     1.344528551929    28.38514193   179.44434022
 N      2   1   3     1.344528551929    87.80511588     0.26438825
 H      3   1   2     1.106420783771    96.81751401   109.40995165
 H      4   1   2     1.099749429070   110.40850189   160.33799051
 H      1   2   3     1.101945866947   129.63029680   221.15734951
 C      8   2   1     1.448510592888   119.41093941   175.80419112
 H     13   8   2     1.096825547218   108.93388401     1.04140450
 H     13   8   2     1.103901621111   111.22234940   121.32646823
 H     13   8   2     1.104256761857   110.96711593   241.25833800
 C      9   2   1     1.448510592888   119.41093941   183.71705305
 H     17   9   2     1.103901961441   111.22234801   238.67369772
 H     17   9   2     1.096825369270   108.93388653   358.95870548
 H     17   9   2     1.104256570422   110.96713759   118.74188968

---------------------------
INTERNAL COORDINATES (A.U.)
---------------------------
 C      0   0   0     0.000000000000     0.00000000     0.00000000
 C      1   0   0     4.718283062923     0.00000000     0.00000000
 C      1   2   0     4.676936121174    60.28946408     0.00000000
 C      1   2   3     2.866148457413    86.84839191   335.42062624
 H      1   2   3     2.090832892369   110.20811559    86.30734916
 H      3   1   2     2.082376564562   145.06089952   242.25810561
 H      4   1   2     2.083742187835   109.54444534   278.60789408
 N      2   1   3     2.540790742384    28.38514193   179.44434022
 N      2   1   3     2.540790742384    87.80511588     0.26438825
 H      3   1   2     2.090832270206    96.81751401   109.40995165
 H      4   1   2     2.078225236879   110.40850189   160.33799051
 H      1   2   3     2.082375902937   129.63029680   221.15734951
 C      8   2   1     2.737288322642   119.41093941   175.80419112
 H     13   8   2     2.072699900930   108.93388401     1.04140450
 H     13   8   2     2.086071742691   111.22234940   121.32646823
 H     13   8   2     2.086742861441   110.96711593   241.25833800
 C      9   2   1     2.737288322642   119.41093941   183.71705305
 H     17   9   2     2.086072385823   111.22234801   238.67369772
 H     17   9   2     2.072699564657   108.93388653   358.95870548
 H     17   9   2     2.086742499681   110.96713759   118.74188968

---------------------
BASIS SET INFORMATION
---------------------
There are 3 groups of distinct atoms

 Group   1 Type C   : 11s6p2d1f contracted to 5s3p2d1f pattern {62111/411/11/1}
 Group   2 Type H   : 5s1p contracted to 3s1p pattern {311/1}
 Group   3 Type N   : 11s6p2d1f contracted to 5s3p2d1f pattern {62111/411/11/1}

Atom   0C    basis set group =>   1
Atom   1C    basis set group =>   1
Atom   2C    basis set group =>   1
Atom   3C    basis set group =>   1
Atom   4H    basis set group =>   2
Atom   5H    basis set group =>   2
Atom   6H    basis set group =>   2
Atom   7N    basis set group =>   3
Atom   8N    basis set group =>   3
Atom   9H    basis set group =>   2
Atom  10H    basis set group =>   2
Atom  11H    basis set group =>   2
Atom  12C    basis set group =>   1
Atom  13H    basis set group =>   2
Atom  14H    basis set group =>   2
Atom  15H    basis set group =>   2
Atom  16C    basis set group =>   1
Atom  17H    basis set group =>   2
Atom  18H    basis set group =>   2
Atom  19H    basis set group =>   2
---------------------------------
AUXILIARY/J BASIS SET INFORMATION
---------------------------------
There are 3 groups of distinct atoms

 Group   1 Type C   : 12s5p4d2f1g contracted to 6s4p3d1f1g pattern {711111/2111/211/2/1}
 Group   2 Type H   : 5s2p1d contracted to 3s1p1d pattern {311/2/1}
 Group   3 Type N   : 12s5p4d2f1g contracted to 6s4p3d1f1g pattern {711111/2111/211/2/1}

Atom   0C    basis set group =>   1
Atom   1C    basis set group =>   1
Atom   2C    basis set group =>   1
Atom   3C    basis set group =>   1
Atom   4H    basis set group =>   2
Atom   5H    basis set group =>   2
Atom   6H    basis set group =>   2
Atom   7N    basis set group =>   3
Atom   8N    basis set group =>   3
Atom   9H    basis set group =>   2
Atom  10H    basis set group =>   2
Atom  11H    basis set group =>   2
Atom  12C    basis set group =>   1
Atom  13H    basis set group =>   2
Atom  14H    basis set group =>   2
Atom  15H    basis set group =>   2
Atom  16C    basis set group =>   1
Atom  17H    basis set group =>   2
Atom  18H    basis set group =>   2
Atom  19H    basis set group =>   2


           ************************************************************
           *        Program running with 4 parallel MPI-processes     *
           *              working on a common directory               *
           ************************************************************
------------------------------------------------------------------------------
                           ORCA GTO INTEGRAL CALCULATION
                           -- RI-GTO INTEGRALS CHOSEN --
------------------------------------------------------------------------------
------------------------------------------------------------------------------
                   ___                                                        
                  /   \      - P O W E R E D   B Y -                         
                 /     \                                                     
                 |  |  |   _    _      __       _____    __    __             
                 |  |  |  | |  | |    /  \     |  _  \  |  |  /  |          
                  \  \/   | |  | |   /    \    | | | |  |  | /  /          
                 / \  \   | |__| |  /  /\  \   | |_| |  |  |/  /          
                |  |  |   |  __  | /  /__\  \  |    /   |      \           
                |  |  |   | |  | | |   __   |  |    \   |  |\   \          
                \     /   | |  | | |  |  |  |  | |\  \  |  | \   \       
                 \___/    |_|  |_| |__|  |__|  |_| \__\ |__|  \__/        
                                                                              
                      - O R C A' S   B I G   F R I E N D -                    
                                      &                                       
                       - I N T E G R A L  F E E D E R -                       
                                                                              
 v1 FN, 2020, v2 2021                                                         
------------------------------------------------------------------------------


Reading SHARK input file 10_deprot.SHARKINP.tmp ... ok
----------------------
SHARK INTEGRAL PACKAGE
----------------------

Number of atoms                             ...     20
Number of basis functions                   ...    320
Number of shells                            ...    136
Maximum angular momentum                    ...      3
Integral batch strategy                     ... SHARK/LIBINT Hybrid
RI-J (if used) integral strategy            ... SPLIT-RIJ (Revised 2003 algorithm where possible)
Printlevel                                  ...      1
Contraction scheme used                     ... SEGMENTED contraction
Coulomb Range Separation                    ... NOT USED
Exchange Range Separation                   ... Long Range
   Mu parameter                             ...  0.300000
   Scaling (regular/separated)              ...  0.157706  0.842294
Finite Nucleus Model                        ... NOT USED
Auxiliary Coulomb fitting basis             ... AVAILABLE
   # of basis functions in Aux-J            ...    524
   # of shells in Aux-J                     ...    180
   Maximum angular momentum in Aux-J        ...      4
Auxiliary J/K fitting basis                 ... NOT available
Auxiliary Correlation fitting basis         ... NOT available
Auxiliary 'external' fitting basis          ... NOT available
Integral threshold                          ...     2.500000e-11
Primitive cut-off                           ...     2.500000e-12
Primitive pair pre-selection threshold      ...     2.500000e-12

Calculating pre-screening integrals         ... done (  0.1 sec) Dimension = 136
Organizing shell pair data                  ... done (  0.1 sec)
Shell pair information
Total number of shell pairs                 ...      9316
Shell pairs after pre-screening             ...      8553
Total number of primitive shell pairs       ...     27240
Primitive shell pairs kept                  ...     18979
          la=0 lb=0:   2586 shell pairs
          la=1 lb=0:   2518 shell pairs
          la=1 lb=1:    613 shell pairs
          la=2 lb=0:   1147 shell pairs
          la=2 lb=1:    550 shell pairs
          la=2 lb=2:    133 shell pairs
          la=3 lb=0:    562 shell pairs
          la=3 lb=1:    282 shell pairs
          la=3 lb=2:    126 shell pairs
          la=3 lb=3:     36 shell pairs

Calculating one electron integrals          ... done (  0.0 sec)
Calculating RI/J V-Matrix + Cholesky decomp.... done (  0.0 sec)
Calculating Nuclear repulsion               ... done (  0.0 sec) ENN=    395.526432794588 Eh

SHARK setup successfully completed in   0.4 seconds

Maximum memory used throughout the entire GTOINT-calculation: 21.6 MB


           ************************************************************
           *        Program running with 4 parallel MPI-processes     *
           *              working on a common directory               *
           ************************************************************
-------------------------------------------------------------------------------
                                 ORCA SCF
-------------------------------------------------------------------------------

------------
SCF SETTINGS
------------
Hamiltonian:
 Density Functional     Method          .... DFT(GTOs)
 Exchange Functional    Exchange        .... WB97X
 Correlation Functional Correlation     .... WB97X
 Gradients option       PostSCFGGA      .... off
 Hybrid DFT is turned on
   Fraction HF Exchange ScalHFX         ....  0.157706
   Scaling of DF-GGA-X  ScalDFX         ....  0.000000
   Scaling of DF-GGA-C  ScalDFC         ....  1.000000
   Scaling of DF-LDA-C  ScalLDAC        ....  1.000000
   Perturbative correction              ....  0.000000
   Density functional embedding theory  .... OFF
 Long-range corrected/Screened/Range-Separated Hybrid DFT is turned on
   Amount of maximum screened exact exchange              ....  0.842294
   Range separation parameter mu (erf(mu*r12)/r12)        ....  0.300000
 RI-approximation to the Coulomb term is turned on
   Number of AuxJ basis functions       .... 524
   RIJ-COSX (HFX calculated with COS-X)).... on


General Settings:
 Integral files         IntName         .... 10_deprot
 Hartree-Fock type      HFTyp           .... RHF
 Total Charge           Charge          ....    0
 Multiplicity           Mult            ....    1
 Number of Electrons    NEL             ....   62
 Basis Dimension        Dim             ....  320
 Nuclear Repulsion      ENuc            ....    395.5264327946 Eh

Convergence Acceleration:
 DIIS                   CNVDIIS         .... on
   Start iteration      DIISMaxIt       ....     0
   Startup error        DIISStart       ....  0.200000
   # of expansion vecs  DIISMaxEq       ....     5
   Bias factor          DIISBfac        ....   1.050
   Max. coefficient     DIISMaxC        ....  10.000
 Trust-Rad. Augm. Hess. CNVTRAH         .... auto
   Auto Start mean grad. ratio tolernc. ....  1.125000
   Auto Start start iteration           ....    20
   Auto Start num. interpolation iter.  ....    10
   Max. Number of Micro iterations      ....    16
   Max. Number of Macro iterations      .... Maxiter - #DIIS iter
   Number of Davidson start vectors     ....     2
   Converg. threshold I  (grad. norm)   ....   1.000e-05
   Converg. threshold II (energy diff.) ....   1.000e-08
   Grad. Scal. Fac. for Micro threshold ....   0.100
   Minimum threshold for Micro iter.    ....   0.010
   NR start threshold (gradient norm)   ....   0.001
   Initial trust radius                 ....   0.400
   Minimum AH scaling param. (alpha)    ....   1.000
   Maximum AH scaling param. (alpha)    .... 1000.000
   Orbital update algorithm             .... Taylor
   White noise on init. David. guess    .... on
   Maximum white noise                  ....   0.010
   Quad. conv. algorithm                .... NR
 SOSCF                  CNVSOSCF        .... on
   Start iteration      SOSCFMaxIt      ....   150
   Startup grad/error   SOSCFStart      ....  0.001000
 Level Shifting         CNVShift        .... on
   Level shift para.    LevelShift      ....    0.2500
   Turn off err/grad.   ShiftErr        ....    0.0000
 Zerner damping         CNVZerner       .... off
 Static damping         CNVDamp         .... on
   Fraction old density DampFac         ....    0.8500
   Max. Damping (<1)    DampMax         ....    0.9800
   Min. Damping (>=0)   DampMin         ....    0.0000
   Turn off err/grad.   DampErr         ....    0.0300
 Fernandez-Rico         CNVRico         .... off

SCF Procedure:
 Maximum # iterations   MaxIter         ....   125
 SCF integral mode      SCFMode         .... Direct
   Integral package                     .... SHARK and LIBINT hybrid scheme
 Reset frequency        DirectResetFreq ....    20
 Integral Threshold     Thresh          ....  2.500e-11 Eh
 Primitive CutOff       TCut            ....  2.500e-12 Eh

Convergence Tolerance:
 Convergence Check Mode ConvCheckMode   .... Total+1el-Energy
 Convergence forced     ConvForced      .... 0
 Energy Change          TolE            ....  1.000e-08 Eh
 1-El. energy change                    ....  1.000e-05 Eh
 Orbital Gradient       TolG            ....  1.000e-05
 Orbital Rotation angle TolX            ....  1.000e-05
 DIIS Error             TolErr          ....  5.000e-07


Diagonalization of the overlap matrix:
Smallest eigenvalue                        ... 2.079e-04
Time for diagonalization                   ...    0.018 sec
Threshold for overlap eigenvalues          ... 1.000e-08
Number of eigenvalues below threshold      ... 0
Time for construction of square roots      ...    0.013 sec
Total time needed                          ...    0.033 sec

Time for model grid setup =    0.142 sec

------------------------------
INITIAL GUESS: MODEL POTENTIAL
------------------------------
Loading Hartree-Fock densities                     ... done
Calculating cut-offs                               ... done
Initializing the effective Hamiltonian             ... done
Setting up the integral package (SHARK)            ... done
Starting the Coulomb interaction                   ... done (   0.2 sec)
Reading the grid                                   ... done
Mapping shells                                     ... done
Starting the XC term evaluation                    ... done (   0.2 sec)
  promolecular density results
     # of electrons  =     61.994733289
     EX              =    -47.319023515
     EC              =     -2.050928866
     EX+EC           =    -49.369952380
Transforming the Hamiltonian                       ... done (   0.0 sec)
Diagonalizing the Hamiltonian                      ... done (   0.0 sec)
Back transforming the eigenvectors                 ... done (   0.0 sec)
Now organizing SCF variables                       ... done
                      ------------------
                      INITIAL GUESS DONE (   0.6 sec)
                      ------------------
-------------------
DFT GRID GENERATION
-------------------

General Integration Accuracy     IntAcc      ... 4.388
Radial Grid Type                 RadialGrid  ... OptM3 with GC (2021)
Angular Grid (max. ang.)         AngularGrid ... 4 (Lebedev-302)
Angular grid pruning method      GridPruning ... 4 (adaptive)
Weight generation scheme         WeightScheme... Becke
Basis function cutoff            BFCut       ... 1.0000e-11
Integration weight cutoff        WCut        ... 1.0000e-14
Angular grids for H and He will be reduced by one unit
Partially contracted basis set               ... off
Rotationally invariant grid construction     ... off

Total number of grid points                  ...    86471
Total number of batches                      ...     1360
Average number of points per batch           ...       63
Average number of grid points per atom       ...     4324
Time for grid setup =    0.630 sec

--------------------
COSX GRID GENERATION
--------------------

GRIDX 1
-------
General Integration Accuracy     IntAcc      ... 3.816
Radial Grid Type                 RadialGrid  ... OptM3 with GC (2021)
Angular Grid (max. ang.)         AngularGrid ... 1 (Lebedev-50)
Angular grid pruning method      GridPruning ... 4 (adaptive)
Weight generation scheme         WeightScheme... Becke
Basis function cutoff            BFCut       ... 1.0000e-11
Integration weight cutoff        WCut        ... 1.0000e-14
Angular grids for H and He will be reduced by one unit
Partially contracted basis set               ... on
Rotationally invariant grid construction     ... off

Total number of grid points                  ...    11105
Total number of batches                      ...      186
Average number of points per batch           ...       59
Average number of grid points per atom       ...      555
UseSFitting                                  ... on

GRIDX 2
-------
General Integration Accuracy     IntAcc      ... 4.020
Radial Grid Type                 RadialGrid  ... OptM3 with GC (2021)
Angular Grid (max. ang.)         AngularGrid ... 2 (Lebedev-110)
Angular grid pruning method      GridPruning ... 4 (adaptive)
Weight generation scheme         WeightScheme... Becke
Basis function cutoff            BFCut       ... 1.0000e-11
Integration weight cutoff        WCut        ... 1.0000e-14
Angular grids for H and He will be reduced by one unit
Partially contracted basis set               ... on
Rotationally invariant grid construction     ... off

Total number of grid points                  ...    23342
Total number of batches                      ...      375
Average number of points per batch           ...       62
Average number of grid points per atom       ...     1167
UseSFitting                                  ... on

GRIDX 3
-------
General Integration Accuracy     IntAcc      ... 4.338
Radial Grid Type                 RadialGrid  ... OptM3 with GC (2021)
Angular Grid (max. ang.)         AngularGrid ... 3 (Lebedev-194)
Angular grid pruning method      GridPruning ... 4 (adaptive)
Weight generation scheme         WeightScheme... Becke
Basis function cutoff            BFCut       ... 1.0000e-11
Integration weight cutoff        WCut        ... 1.0000e-14
Angular grids for H and He will be reduced by one unit
Partially contracted basis set               ... on
Rotationally invariant grid construction     ... off

Total number of grid points                  ...    50986
Total number of batches                      ...      806
Average number of points per batch           ...       63
Average number of grid points per atom       ...     2549
UseSFitting                                  ... on

Time for X-Grid setup             =    0.767 sec


--------------------
CPCM SOLVATION MODEL
--------------------
CPCM parameters:
  Epsilon                                         ...      80.4000
  Refrac                                          ...       1.3300
  Rsolv                                           ...       1.3000
  Surface type                                    ... GAUSSIAN VDW
  Epsilon function type                           ...         CPCM
Radii:
 Radius for C  used is    3.8550 Bohr (=   2.0400 Ang.)
 Radius for H  used is    2.4944 Bohr (=   1.3200 Ang.)
 Radius for N  used is    3.5149 Bohr (=   1.8600 Ang.)
Calculating surface                               ...        done! (  0.0s)
GEPOL surface points                              ...         1099
GEPOL Volume                                      ...    1046.8153
GEPOL Surface-area                                ...     596.8255
Calculating surface distance matrix               ...        done! (  0.0s)
Performing Cholesky decomposition & store         ...        done! (  0.1s)
Overall time for CPCM initialization              ...                 0.1s
--------------
SCF ITERATIONS
--------------
ITER       Energy         Delta-E        Max-DP      RMS-DP      [F,P]     Damp
               ***  Starting incremental Fock matrix formation  ***
  0   -345.1703218730   0.000000000000 0.02861185  0.00036135  0.1467293 0.8500
  1   -345.2091630466  -0.038841173560 0.03810829  0.00037795  0.1182303 0.8500
                               ***Turning on DIIS***
  2   -345.2388320670  -0.029669020349 0.03672519  0.00032625  0.0918107 0.8500
  3   -345.2609082087  -0.022076141715 0.03112081  0.00025456  0.0704388 0.8500
  4   -345.2779823252  -0.017074116514 0.02640982  0.00020796  0.0563672 0.8500
  5   -345.2914696205  -0.013487295329 0.02294856  0.00017738  0.0466570 0.8500
  6   -345.3024583234  -0.010988702881 0.02024433  0.00015407  0.0392751 0.8500
  7   -345.3115707626  -0.009112439217 0.01818390  0.00013576  0.0333098 0.8500
  8   -345.3192068278  -0.007636065194 0.10881269  0.00079538  0.0282471 0.0000
  9   -345.3606121507  -0.041405322886 0.00550825  0.00004090  0.0014481 0.0000
                      *** Initiating the SOSCF procedure ***
                           *** Shutting down DIIS ***
                      *** Re-Reading the Fockian *** 
                      *** Removing any level shift *** 
ITER      Energy       Delta-E        Grad      Rot      Max-DP    RMS-DP
 10   -345.36063554  -0.0000233864  0.000387  0.000387  0.003750  0.000026
               *** Restarting incremental Fock matrix formation ***
 11   -345.36065689  -0.0000213510  0.000238  0.000410  0.003502  0.000025
 12   -345.36065869  -0.0000017987  0.000084  0.000306  0.002137  0.000017
 13   -345.36065910  -0.0000004120  0.000038  0.000067  0.000506  0.000004
 14   -345.36065916  -0.0000000644  0.000005  0.000010  0.000022  0.000001
 15   -345.36065916   0.0000000009  0.000003  0.000006  0.000023  0.000000
                  ***Gradient check signals convergence***
              ***Rediagonalizing the Fockian in SOSCF/NRSCF***

               *****************************************************
               *                     SUCCESS                       *
               *           SCF CONVERGED AFTER  16 CYCLES          *
               *****************************************************

Old exchange energy                            =    -15.816831542 Eh
New exchange energy                            =    -15.816842475 Eh
Exchange energy change after final integration =     -0.000010933 Eh
Total energy after final integration           =   -345.360670102 Eh
Final COS-X integration done in                =    19.449 sec

----------------
TOTAL SCF ENERGY
----------------

Total Energy       :         -345.36067010 Eh           -9397.74161 eV

Components:
Nuclear Repulsion  :          395.52643279 Eh           10762.82141 eV
Electronic Energy  :         -740.88710290 Eh          -20160.56301 eV
One Electron Energy:        -1249.41628528 Eh          -33998.34556 eV
Two Electron Energy:          508.52918238 Eh           13837.78255 eV
Max COSX asymmetry :            0.00000396 Eh               0.00011 eV
CPCM Dielectric    :           -0.01555965 Eh              -0.42340 eV

Virial components:
Potential Energy   :         -688.96029560 Eh          -18747.56275 eV
Kinetic Energy     :          343.59962549 Eh            9349.82115 eV
Virial Ratio       :            2.00512528


DFT components:
N(Alpha)           :       31.000070516870 electrons
N(Beta)            :       31.000070516870 electrons
N(Total)           :       62.000141033739 electrons
E(XC)              :      -35.032481508084 Eh       
DFET-embed. en.    :        0.000000000000 Eh       
CPCM Solvation Model Properties:
Surface-charge          :           -0.03067308
Charge-correction       :           -0.00074536 Eh              -0.02028 eV
Free-energy (cav+disp)  :  This term is not implemented in the current solvation scheme

---------------
SCF CONVERGENCE
---------------

  Last Energy change         ...   -6.9753e-09  Tolerance :   1.0000e-08
  Last MAX-Density change    ...    1.3323e-15  Tolerance :   1.0000e-07
  Last RMS-Density change    ...    1.3762e-17  Tolerance :   5.0000e-09
  Last Orbital Gradient      ...    9.8641e-07  Tolerance :   1.0000e-05
  Last Orbital Rotation      ...    2.9215e-06  Tolerance :   1.0000e-05

             **** THE GBW FILE WAS UPDATED (10_deprot.gbw) ****
             **** DENSITY 10_deprot.scfp WAS UPDATED ****
             **** ENERGY FILE WAS UPDATED (10_deprot.en.tmp) ****
             **** THE GBW FILE WAS UPDATED (10_deprot.gbw) ****
             **** DENSITY 10_deprot.scfp WAS UPDATED ****
----------------
ORBITAL ENERGIES
----------------

  NO   OCC          E(Eh)            E(eV) 
   0   2.0000     -14.412454      -392.1828 
   1   2.0000     -14.412435      -392.1823 
   2   2.0000     -10.283013      -279.8150 
   3   2.0000     -10.283005      -279.8148 
   4   2.0000     -10.272635      -279.5326 
   5   2.0000     -10.272634      -279.5326 
   6   2.0000     -10.272132      -279.5189 
   7   2.0000     -10.255284      -279.0605 
   8   2.0000      -1.106121       -30.0991 
   9   2.0000      -1.038775       -28.2665 
  10   2.0000      -0.918778       -25.0012 
  11   2.0000      -0.845999       -23.0208 
  12   2.0000      -0.827771       -22.5248 
  13   2.0000      -0.758005       -20.6264 
  14   2.0000      -0.749700       -20.4004 
  15   2.0000      -0.637765       -17.3545 
  16   2.0000      -0.607754       -16.5378 
  17   2.0000      -0.607320       -16.5260 
  18   2.0000      -0.580319       -15.7913 
  19   2.0000      -0.562798       -15.3145 
  20   2.0000      -0.537784       -14.6338 
  21   2.0000      -0.532319       -14.4851 
  22   2.0000      -0.515913       -14.0387 
  23   2.0000      -0.499352       -13.5880 
  24   2.0000      -0.481860       -13.1121 
  25   2.0000      -0.465516       -12.6673 
  26   2.0000      -0.451810       -12.2944 
  27   2.0000      -0.436731       -11.8841 
  28   2.0000      -0.409223       -11.1355 
  29   2.0000      -0.313940        -8.5427 
  30   2.0000      -0.309493        -8.4217 
  31   0.0000       0.105513         2.8712 
  32   0.0000       0.123068         3.3488 
  33   0.0000       0.141299         3.8449 
  34   0.0000       0.157532         4.2867 
  35   0.0000       0.173524         4.7218 
  36   0.0000       0.185367         5.0441 
  37   0.0000       0.186658         5.0792 
  38   0.0000       0.196236         5.3398 
  39   0.0000       0.200682         5.4608 
  40   0.0000       0.202095         5.4993 
  41   0.0000       0.203910         5.5487 
  42   0.0000       0.216306         5.8860 
  43   0.0000       0.219616         5.9760 
  44   0.0000       0.226766         6.1706 
  45   0.0000       0.243524         6.6266 
  46   0.0000       0.245283         6.6745 
  47   0.0000       0.271837         7.3971 
  48   0.0000       0.273859         7.4521 
  49   0.0000       0.281184         7.6514 
  50   0.0000       0.287245         7.8163 
  51   0.0000       0.292697         7.9647 
  52   0.0000       0.305835         8.3222 
  53   0.0000       0.325729         8.8635 
  54   0.0000       0.336960         9.1692 
  55   0.0000       0.367855        10.0098 
  56   0.0000       0.368249        10.0206 
  57   0.0000       0.388561        10.5733 
  58   0.0000       0.393375        10.7043 
  59   0.0000       0.404630        11.0105 
  60   0.0000       0.414958        11.2916 
  61   0.0000       0.427507        11.6331 
  62   0.0000       0.444061        12.0835 
  63   0.0000       0.469151        12.7663 
  64   0.0000       0.469667        12.7803 
  65   0.0000       0.481326        13.0975 
  66   0.0000       0.487143        13.2558 
  67   0.0000       0.500573        13.6213 
  68   0.0000       0.513544        13.9743 
  69   0.0000       0.517362        14.0781 
  70   0.0000       0.518229        14.1017 
  71   0.0000       0.529010        14.3951 
  72   0.0000       0.538092        14.6422 
  73   0.0000       0.541040        14.7224 
  74   0.0000       0.545159        14.8345 
  75   0.0000       0.557540        15.1714 
  76   0.0000       0.564849        15.3703 
  77   0.0000       0.569063        15.4850 
  78   0.0000       0.578690        15.7470 
  79   0.0000       0.586832        15.9685 
  80   0.0000       0.596667        16.2361 
  81   0.0000       0.624957        17.0059 
  82   0.0000       0.632288        17.2054 
  83   0.0000       0.646773        17.5996 
  84   0.0000       0.655541        17.8382 
  85   0.0000       0.671792        18.2804 
  86   0.0000       0.677656        18.4399 
  87   0.0000       0.682838        18.5810 
  88   0.0000       0.704394        19.1675 
  89   0.0000       0.723964        19.7001 
  90   0.0000       0.727339        19.7919 
  91   0.0000       0.773702        21.0535 
  92   0.0000       0.787022        21.4160 
  93   0.0000       0.807179        21.9645 
  94   0.0000       0.808326        21.9957 
  95   0.0000       0.848059        23.0769 
  96   0.0000       0.875215        23.8158 
  97   0.0000       0.883741        24.0478 
  98   0.0000       0.934295        25.4235 
  99   0.0000       0.938012        25.5246 
 100   0.0000       0.951720        25.8976 
 101   0.0000       0.966459        26.2987 
 102   0.0000       0.991570        26.9820 
 103   0.0000       1.000647        27.2290 
 104   0.0000       1.006689        27.3934 
 105   0.0000       1.014615        27.6091 
 106   0.0000       1.049927        28.5700 
 107   0.0000       1.064823        28.9753 
 108   0.0000       1.112611        30.2757 
 109   0.0000       1.122020        30.5317 
 110   0.0000       1.137583        30.9552 
 111   0.0000       1.160784        31.5865 
 112   0.0000       1.162562        31.6349 
 113   0.0000       1.173216        31.9248 
 114   0.0000       1.192242        32.4425 
 115   0.0000       1.212711        32.9995 
 116   0.0000       1.218780        33.1647 
 117   0.0000       1.232287        33.5322 
 118   0.0000       1.265666        34.4405 
 119   0.0000       1.280585        34.8465 
 120   0.0000       1.317065        35.8392 
 121   0.0000       1.318569        35.8801 
 122   0.0000       1.350412        36.7466 
 123   0.0000       1.363449        37.1013 
 124   0.0000       1.385909        37.7125 
 125   0.0000       1.448249        39.4089 
 126   0.0000       1.506888        41.0045 
 127   0.0000       1.531179        41.6655 
 128   0.0000       1.552481        42.2451 
 129   0.0000       1.563587        42.5474 
 130   0.0000       1.585406        43.1411 
 131   0.0000       1.603512        43.6338 
 132   0.0000       1.612760        43.8854 
 133   0.0000       1.635903        44.5152 
 134   0.0000       1.641131        44.6575 
 135   0.0000       1.646684        44.8086 
 136   0.0000       1.657637        45.1066 
 137   0.0000       1.659087        45.1461 
 138   0.0000       1.682841        45.7924 
 139   0.0000       1.685921        45.8763 
 140   0.0000       1.703024        46.3417 
 141   0.0000       1.703564        46.3563 
 142   0.0000       1.707440        46.4618 
 143   0.0000       1.728925        47.0464 
 144   0.0000       1.748068        47.5674 
 145   0.0000       1.760553        47.9071 
 146   0.0000       1.770183        48.1691 
 147   0.0000       1.782786        48.5121 
 148   0.0000       1.787414        48.6380 
 149   0.0000       1.798736        48.9461 
 150   0.0000       1.832751        49.8717 
 151   0.0000       1.842209        50.1291 
 152   0.0000       1.853656        50.4405 
 153   0.0000       1.864105        50.7249 
 154   0.0000       1.884637        51.2836 
 155   0.0000       1.928410        52.4747 
 156   0.0000       1.982002        53.9330 
 157   0.0000       2.012848        54.7724 
 158   0.0000       2.013621        54.7934 
 159   0.0000       2.036467        55.4151 
 160   0.0000       2.080181        56.6046 
 161   0.0000       2.095768        57.0288 
 162   0.0000       2.099072        57.1186 
 163   0.0000       2.107616        57.3512 
 164   0.0000       2.135063        58.0980 
 165   0.0000       2.161863        58.8273 
 166   0.0000       2.193995        59.7016 
 167   0.0000       2.205681        60.0196 
 168   0.0000       2.233382        60.7734 
 169   0.0000       2.240073        60.9555 
 170   0.0000       2.302643        62.6581 
 171   0.0000       2.322041        63.1859 
 172   0.0000       2.328150        63.3522 
 173   0.0000       2.362443        64.2854 
 174   0.0000       2.379114        64.7390 
 175   0.0000       2.389804        65.0299 
 176   0.0000       2.394660        65.1620 
 177   0.0000       2.403009        65.3892 
 178   0.0000       2.426286        66.0226 
 179   0.0000       2.444675        66.5230 
 180   0.0000       2.458499        66.8992 
 181   0.0000       2.464056        67.0504 
 182   0.0000       2.500789        68.0499 
 183   0.0000       2.537497        69.0488 
 184   0.0000       2.552281        69.4511 
 185   0.0000       2.555645        69.5426 
 186   0.0000       2.572752        70.0081 
 187   0.0000       2.573764        70.0357 
 188   0.0000       2.611334        71.0580 
 189   0.0000       2.630995        71.5930 
 190   0.0000       2.633328        71.6565 
 191   0.0000       2.651942        72.1630 
 192   0.0000       2.655475        72.2592 
 193   0.0000       2.671669        72.6998 
 194   0.0000       2.671930        72.7069 
 195   0.0000       2.684680        73.0539 
 196   0.0000       2.723184        74.1016 
 197   0.0000       2.743695        74.6597 
 198   0.0000       2.745661        74.7132 
 199   0.0000       2.761837        75.1534 
 200   0.0000       2.793526        76.0157 
 201   0.0000       2.806134        76.3588 
 202   0.0000       2.807808        76.4043 
 203   0.0000       2.818471        76.6945 
 204   0.0000       2.833080        77.0920 
 205   0.0000       2.848102        77.5008 
 206   0.0000       2.864037        77.9344 
 207   0.0000       2.894921        78.7748 
 208   0.0000       2.927751        79.6682 
 209   0.0000       2.984063        81.2005 
 210   0.0000       2.985829        81.2485 
 211   0.0000       3.030266        82.4577 
 212   0.0000       3.052747        83.0695 
 213   0.0000       3.069515        83.5258 
 214   0.0000       3.130747        85.1920 
 215   0.0000       3.147765        85.6550 
 216   0.0000       3.165233        86.1304 
 217   0.0000       3.184227        86.6472 
 218   0.0000       3.187739        86.7428 
 219   0.0000       3.200260        87.0835 
 220   0.0000       3.213785        87.4515 
 221   0.0000       3.216841        87.5347 
 222   0.0000       3.220817        87.6429 
 223   0.0000       3.239170        88.1423 
 224   0.0000       3.263373        88.8009 
 225   0.0000       3.289692        89.5171 
 226   0.0000       3.303943        89.9049 
 227   0.0000       3.319066        90.3164 
 228   0.0000       3.322146        90.4002 
 229   0.0000       3.337240        90.8109 
 230   0.0000       3.353626        91.2568 
 231   0.0000       3.371891        91.7538 
 232   0.0000       3.384867        92.1069 
 233   0.0000       3.423684        93.1632 
 234   0.0000       3.425251        93.2058 
 235   0.0000       3.446466        93.7831 
 236   0.0000       3.449138        93.8558 
 237   0.0000       3.468916        94.3940 
 238   0.0000       3.483760        94.7979 
 239   0.0000       3.485794        94.8533 
 240   0.0000       3.492300        95.0303 
 241   0.0000       3.515391        95.6586 
 242   0.0000       3.539358        96.3108 
 243   0.0000       3.561649        96.9174 
 244   0.0000       3.593184        97.7755 
 245   0.0000       3.601806        98.0101 
 246   0.0000       3.619179        98.4829 
 247   0.0000       3.669022        99.8392 
 248   0.0000       3.678753       100.1040 
 249   0.0000       3.681642       100.1826 
 250   0.0000       3.688568       100.3710 
 251   0.0000       3.692542       100.4792 
 252   0.0000       3.717811       101.1668 
 253   0.0000       3.746807       101.9558 
 254   0.0000       3.766146       102.4820 
 255   0.0000       3.776895       102.7745 
 256   0.0000       3.829508       104.2062 
 257   0.0000       3.835103       104.3585 
 258   0.0000       3.859896       105.0331 
 259   0.0000       3.929692       106.9323 
 260   0.0000       3.956038       107.6493 
 261   0.0000       4.009227       109.0966 
 262   0.0000       4.038800       109.9013 
 263   0.0000       4.059029       110.4518 
 264   0.0000       4.067327       110.6776 
 265   0.0000       4.102465       111.6337 
 266   0.0000       4.102972       111.6476 
 267   0.0000       4.137317       112.5821 
 268   0.0000       4.156425       113.1021 
 269   0.0000       4.192710       114.0894 
 270   0.0000       4.267000       116.1110 
 271   0.0000       4.284787       116.5950 
 272   0.0000       4.326885       117.7405 
 273   0.0000       4.328901       117.7954 
 274   0.0000       4.371430       118.9526 
 275   0.0000       4.401553       119.7724 
 276   0.0000       4.429461       120.5318 
 277   0.0000       4.441689       120.8645 
 278   0.0000       4.454410       121.2107 
 279   0.0000       4.512614       122.7945 
 280   0.0000       4.530396       123.2783 
 281   0.0000       4.581716       124.6748 
 282   0.0000       4.589355       124.8827 
 283   0.0000       4.646823       126.4465 
 284   0.0000       4.732413       128.7755 
 285   0.0000       4.764252       129.6419 
 286   0.0000       4.860215       132.2532 
 287   0.0000       4.903321       133.4261 
 288   0.0000       4.970818       135.2628 
 289   0.0000       4.995162       135.9253 
 290   0.0000       5.069416       137.9458 
 291   0.0000       5.077138       138.1560 
 292   0.0000       5.186181       141.1232 
 293   0.0000       5.191025       141.2550 
 294   0.0000       5.270432       143.4157 
 295   0.0000       5.270697       143.4229 
 296   0.0000       5.290293       143.9562 
 297   0.0000       5.333932       145.1437 
 298   0.0000       5.335710       145.1920 
 299   0.0000       5.391587       146.7125 
 300   0.0000       5.397816       146.8820 
 301   0.0000       5.424133       147.5982 
 302   0.0000       5.505109       149.8016 
 303   0.0000       5.528627       150.4416 
 304   0.0000       5.690698       154.8518 
 305   0.0000       5.712571       155.4470 
 306   0.0000       5.825065       158.5081 
 307   0.0000       5.834100       158.7539 
 308   0.0000       5.963845       162.2845 
 309   0.0000       6.000054       163.2698 
 310   0.0000       6.043944       164.4641 
 311   0.0000       6.160906       167.6468 
 312   0.0000      22.432945       610.4315 
 313   0.0000      22.452088       610.9524 
 314   0.0000      22.523315       612.8906 
 315   0.0000      22.588674       614.6691 
 316   0.0000      22.611730       615.2965 
 317   0.0000      22.811020       620.7194 
 318   0.0000      32.852857       893.9717 
 319   0.0000      32.893717       895.0835 

                    ********************************
                    * MULLIKEN POPULATION ANALYSIS *
                    ********************************

-----------------------
MULLIKEN ATOMIC CHARGES
-----------------------
   0 C :   -0.173485
   1 C :   -0.337188
   2 C :   -0.173484
   3 C :   -0.208856
   4 H :    0.132248
   5 H :    0.142649
   6 H :    0.120912
   7 N :   -0.082314
   8 N :   -0.082305
   9 H :    0.132235
  10 H :    0.136454
  11 H :    0.142647
  12 C :   -0.272069
  13 H :    0.131341
  14 H :    0.134584
  15 H :    0.131385
  16 C :   -0.272070
  17 H :    0.134586
  18 H :    0.131342
  19 H :    0.131386
Sum of atomic charges:    0.0000000

--------------------------------
MULLIKEN REDUCED ORBITAL CHARGES
--------------------------------
  0 C s       :     3.252065  s :     3.252065
      pz      :     1.009638  p :     2.807368
      px      :     1.042274
      py      :     0.755455
      dz2     :     0.020037  d :     0.106554
      dxz     :     0.012527
      dyz     :     0.022468
      dx2y2   :     0.024936
      dxy     :     0.026586
      f0      :     0.001170  f :     0.007498
      f+1     :     0.000798
      f-1     :     0.000923
      f+2     :     0.001374
      f-2     :     0.000285
      f+3     :     0.001889
      f-3     :     0.001059
  1 C s       :     3.639931  s :     3.639931
      pz      :     0.673178  p :     2.561514
      px      :     0.631500
      py      :     1.256836
      dz2     :     0.012333  d :     0.121534
      dxz     :     0.051321
      dyz     :     0.032404
      dx2y2   :     0.008859
      dxy     :     0.016616
      f0      :     0.003106  f :     0.014209
      f+1     :     0.002233
      f-1     :     0.002589
      f+2     :     0.001776
      f-2     :     0.003761
      f+3     :     0.000459
      f-3     :     0.000286
  2 C s       :     3.252079  s :     3.252079
      pz      :     1.009631  p :     2.807358
      px      :     1.042269
      py      :     0.755457
      dz2     :     0.020035  d :     0.106548
      dxz     :     0.012525
      dyz     :     0.022469
      dx2y2   :     0.024935
      dxy     :     0.026584
      f0      :     0.001170  f :     0.007498
      f+1     :     0.000798
      f-1     :     0.000923
      f+2     :     0.001374
      f-2     :     0.000285
      f+3     :     0.001889
      f-3     :     0.001059
  3 C s       :     3.207438  s :     3.207438
      pz      :     0.889159  p :     2.907591
      px      :     1.004167
      py      :     1.014266
      dz2     :     0.032359  d :     0.088413
      dxz     :     0.017649
      dyz     :     0.013097
      dx2y2   :     0.021364
      dxy     :     0.003944
      f0      :     0.001283  f :     0.005413
      f+1     :     0.000711
      f-1     :     0.001020
      f+2     :     0.001046
      f-2     :     0.000600
      f+3     :     0.000476
      f-3     :     0.000276
  4 H s       :     0.846082  s :     0.846082
      pz      :     0.004120  p :     0.021670
      px      :     0.013825
      py      :     0.003725
  5 H s       :     0.835295  s :     0.835295
      pz      :     0.011427  p :     0.022056
      px      :     0.005926
      py      :     0.004703
  6 H s       :     0.857025  s :     0.857025
      pz      :     0.003746  p :     0.022062
      px      :     0.014549
      py      :     0.003767
  7 N s       :     3.416388  s :     3.416388
      pz      :     1.033260  p :     3.569526
      px      :     1.532221
      py      :     1.004045
      dz2     :     0.026484  d :     0.091271
      dxz     :     0.012652
      dyz     :     0.029644
      dx2y2   :     0.012406
      dxy     :     0.010087
      f0      :     0.001311  f :     0.005128
      f+1     :     0.000676
      f-1     :     0.000708
      f+2     :     0.000871
      f-2     :     0.000326
      f+3     :     0.000566
      f-3     :     0.000671
  8 N s       :     3.416390  s :     3.416390
      pz      :     1.033273  p :     3.569510
      px      :     1.532219
      py      :     1.004018
      dz2     :     0.026484  d :     0.091277
      dxz     :     0.012652
      dyz     :     0.029647
      dx2y2   :     0.012407
      dxy     :     0.010086
      f0      :     0.001311  f :     0.005128
      f+1     :     0.000676
      f-1     :     0.000708
      f+2     :     0.000871
      f-2     :     0.000326
      f+3     :     0.000566
      f-3     :     0.000671
  9 H s       :     0.846094  s :     0.846094
      pz      :     0.004120  p :     0.021670
      px      :     0.013825
      py      :     0.003725
 10 H s       :     0.841184  s :     0.841184
      pz      :     0.003922  p :     0.022362
      px      :     0.004286
      py      :     0.014154
 11 H s       :     0.835297  s :     0.835297
      pz      :     0.011427  p :     0.022056
      px      :     0.005926
      py      :     0.004703
 12 C s       :     3.289830  s :     3.289830
      pz      :     0.823947  p :     2.905036
      px      :     1.066003
      py      :     1.015086
      dz2     :     0.012396  d :     0.071810
      dxz     :     0.034016
      dyz     :     0.011114
      dx2y2   :     0.009696
      dxy     :     0.004588
      f0      :     0.001171  f :     0.005393
      f+1     :     0.000930
      f-1     :     0.001042
      f+2     :     0.001005
      f-2     :     0.000913
      f+3     :     0.000067
      f-3     :     0.000264
 13 H s       :     0.846462  s :     0.846462
      pz      :     0.003625  p :     0.022196
      px      :     0.004071
      py      :     0.014501
 14 H s       :     0.844332  s :     0.844332
      pz      :     0.007056  p :     0.021084
      px      :     0.009692
      py      :     0.004336
 15 H s       :     0.847564  s :     0.847564
      pz      :     0.006229  p :     0.021051
      px      :     0.011027
      py      :     0.003795
 16 C s       :     3.289824  s :     3.289824
      pz      :     0.823952  p :     2.905043
      px      :     1.066004
      py      :     1.015088
      dz2     :     0.012396  d :     0.071810
      dxz     :     0.034016
      dyz     :     0.011114
      dx2y2   :     0.009696
      dxy     :     0.004589
      f0      :     0.001171  f :     0.005393
      f+1     :     0.000930
      f-1     :     0.001042
      f+2     :     0.001005
      f-2     :     0.000913
      f+3     :     0.000067
      f-3     :     0.000264
 17 H s       :     0.844330  s :     0.844330
      pz      :     0.007056  p :     0.021084
      px      :     0.009692
      py      :     0.004336
 18 H s       :     0.846462  s :     0.846462
      pz      :     0.003624  p :     0.022196
      px      :     0.004071
      py      :     0.014500
 19 H s       :     0.847563  s :     0.847563
      pz      :     0.006229  p :     0.021051
      px      :     0.011027
      py      :     0.003795


                     *******************************
                     * LOEWDIN POPULATION ANALYSIS *
                     *******************************

----------------------
LOEWDIN ATOMIC CHARGES
----------------------
   0 C :   -0.255492
   1 C :   -0.428594
   2 C :   -0.255490
   3 C :   -0.256294
   4 H :    0.137810
   5 H :    0.142574
   6 H :    0.144992
   7 N :    0.121143
   8 N :    0.121143
   9 H :    0.137810
  10 H :    0.148349
  11 H :    0.142574
  12 C :   -0.301545
  13 H :    0.118637
  14 H :    0.116038
  15 H :    0.116607
  16 C :   -0.301546
  17 H :    0.116038
  18 H :    0.118637
  19 H :    0.116607

-------------------------------
LOEWDIN REDUCED ORBITAL CHARGES
-------------------------------
  0 C s       :     2.777699  s :     2.777699
      pz      :     1.034838  p :     2.964802
      px      :     1.046776
      py      :     0.883187
      dz2     :     0.096074  d :     0.459691
      dxz     :     0.055177
      dyz     :     0.095701
      dx2y2   :     0.115724
      dxy     :     0.097015
      f0      :     0.007365  f :     0.053300
      f+1     :     0.005638
      f-1     :     0.007601
      f+2     :     0.007944
      f-2     :     0.005222
      f+3     :     0.012144
      f-3     :     0.007387
  1 C s       :     2.996363  s :     2.996363
      pz      :     0.868512  p :     2.834221
      px      :     0.650621
      py      :     1.315088
      dz2     :     0.151283  d :     0.513572
      dxz     :     0.165055
      dyz     :     0.141487
      dx2y2   :     0.026884
      dxy     :     0.028863
      f0      :     0.018080  f :     0.084438
      f+1     :     0.007875
      f-1     :     0.018559
      f+2     :     0.014381
      f-2     :     0.022633
      f+3     :     0.001442
      f-3     :     0.001468
  2 C s       :     2.777699  s :     2.777699
      pz      :     1.034838  p :     2.964801
      px      :     1.046776
      py      :     0.883187
      dz2     :     0.096074  d :     0.459690
      dxz     :     0.055177
      dyz     :     0.095701
      dx2y2   :     0.115724
      dxy     :     0.097015
      f0      :     0.007365  f :     0.053300
      f+1     :     0.005638
      f-1     :     0.007601
      f+2     :     0.007944
      f-2     :     0.005222
      f+3     :     0.012144
      f-3     :     0.007387
  3 C s       :     2.772714  s :     2.772714
      pz      :     1.017398  p :     3.056224
      px      :     1.027518
      py      :     1.011308
      dz2     :     0.123734  d :     0.387914
      dxz     :     0.072577
      dyz     :     0.066833
      dx2y2   :     0.100548
      dxy     :     0.024223
      f0      :     0.007618  f :     0.039441
      f+1     :     0.006480
      f-1     :     0.007121
      f+2     :     0.005680
      f-2     :     0.007208
      f+3     :     0.003435
      f-3     :     0.001899
  4 H s       :     0.804857  s :     0.804857
      pz      :     0.012452  p :     0.057332
      px      :     0.034026
      py      :     0.010855
  5 H s       :     0.799763  s :     0.799763
      pz      :     0.027421  p :     0.057663
      px      :     0.017974
      py      :     0.012267
  6 H s       :     0.797778  s :     0.797778
      pz      :     0.011777  p :     0.057230
      px      :     0.033276
      py      :     0.012177
  7 N s       :     2.884466  s :     2.884466
      pz      :     1.169472  p :     3.654660
      px      :     1.336577
      py      :     1.148611
      dz2     :     0.088347  d :     0.319072
      dxz     :     0.038292
      dyz     :     0.114998
      dx2y2   :     0.043246
      dxy     :     0.034188
      f0      :     0.006381  f :     0.020659
      f+1     :     0.002100
      f-1     :     0.002475
      f+2     :     0.004353
      f-2     :     0.001763
      f+3     :     0.001866
      f-3     :     0.001722
  8 N s       :     2.884466  s :     2.884466
      pz      :     1.169472  p :     3.654660
      px      :     1.336577
      py      :     1.148611
      dz2     :     0.088347  d :     0.319072
      dxz     :     0.038292
      dyz     :     0.114998
      dx2y2   :     0.043246
      dxy     :     0.034188
      f0      :     0.006381  f :     0.020659
      f+1     :     0.002100
      f-1     :     0.002475
      f+2     :     0.004353
      f-2     :     0.001763
      f+3     :     0.001866
      f-3     :     0.001722
  9 H s       :     0.804858  s :     0.804858
      pz      :     0.012452  p :     0.057332
      px      :     0.034026
      py      :     0.010855
 10 H s       :     0.793912  s :     0.793912
      pz      :     0.011945  p :     0.057739
      px      :     0.013753
      py      :     0.032041
 11 H s       :     0.799763  s :     0.799763
      pz      :     0.027421  p :     0.057663
      px      :     0.017974
      py      :     0.012267
 12 C s       :     2.840517  s :     2.840517
      pz      :     0.950448  p :     3.091802
      px      :     1.091393
      py      :     1.049960
      dz2     :     0.065051  d :     0.329576
      dxz     :     0.129560
      dyz     :     0.059775
      dx2y2   :     0.059834
      dxy     :     0.015357
      f0      :     0.009061  f :     0.039651
      f+1     :     0.005146
      f-1     :     0.008902
      f+2     :     0.004221
      f-2     :     0.008015
      f+3     :     0.001921
      f-3     :     0.002385
 13 H s       :     0.820630  s :     0.820630
      pz      :     0.010660  p :     0.060733
      px      :     0.013048
      py      :     0.037025
 14 H s       :     0.824808  s :     0.824808
      pz      :     0.018370  p :     0.059154
      px      :     0.026855
      py      :     0.013928
 15 H s       :     0.824210  s :     0.824210
      pz      :     0.016438  p :     0.059182
      px      :     0.030139
      py      :     0.012606
 16 C s       :     2.840517  s :     2.840517
      pz      :     0.950449  p :     3.091802
      px      :     1.091393
      py      :     1.049960
      dz2     :     0.065051  d :     0.329576
      dxz     :     0.129560
      dyz     :     0.059775
      dx2y2   :     0.059834
      dxy     :     0.015357
      f0      :     0.009061  f :     0.039651
      f+1     :     0.005146
      f-1     :     0.008902
      f+2     :     0.004221
      f-2     :     0.008015
      f+3     :     0.001921
      f-3     :     0.002385
 17 H s       :     0.824808  s :     0.824808
      pz      :     0.018370  p :     0.059153
      px      :     0.026855
      py      :     0.013928
 18 H s       :     0.820630  s :     0.820630
      pz      :     0.010660  p :     0.060733
      px      :     0.013048
      py      :     0.037025
 19 H s       :     0.824211  s :     0.824211
      pz      :     0.016438  p :     0.059182
      px      :     0.030139
      py      :     0.012606


                      *****************************
                      * MAYER POPULATION ANALYSIS *
                      *****************************

  NA   - Mulliken gross atomic population
  ZA   - Total nuclear charge
  QA   - Mulliken gross atomic charge
  VA   - Mayer's total valence
  BVA  - Mayer's bonded valence
  FA   - Mayer's free valence

  ATOM       NA         ZA         QA         VA         BVA        FA
  0 C      6.1735     6.0000    -0.1735     3.8682     3.8682    -0.0000
  1 C      6.3372     6.0000    -0.3372     2.6283     2.6283     0.0000
  2 C      6.1735     6.0000    -0.1735     3.8682     3.8682     0.0000
  3 C      6.2089     6.0000    -0.2089     3.9339     3.9339     0.0000
  4 H      0.8678     1.0000     0.1322     0.9627     0.9627    -0.0000
  5 H      0.8574     1.0000     0.1426     0.9549     0.9549     0.0000
  6 H      0.8791     1.0000     0.1209     0.9753     0.9753     0.0000
  7 N      7.0823     7.0000    -0.0823     3.0323     3.0323     0.0000
  8 N      7.0823     7.0000    -0.0823     3.0322     3.0322    -0.0000
  9 H      0.8678     1.0000     0.1322     0.9627     0.9627    -0.0000
 10 H      0.8635     1.0000     0.1365     0.9703     0.9703     0.0000
 11 H      0.8574     1.0000     0.1426     0.9549     0.9549    -0.0000
 12 C      6.2721     6.0000    -0.2721     3.8193     3.8193    -0.0000
 13 H      0.8687     1.0000     0.1313     0.9929     0.9929    -0.0000
 14 H      0.8654     1.0000     0.1346     0.9578     0.9578    -0.0000
 15 H      0.8686     1.0000     0.1314     0.9551     0.9551     0.0000
 16 C      6.2721     6.0000    -0.2721     3.8193     3.8193    -0.0000
 17 H      0.8654     1.0000     0.1346     0.9578     0.9578    -0.0000
 18 H      0.8687     1.0000     0.1313     0.9929     0.9929    -0.0000
 19 H      0.8686     1.0000     0.1314     0.9551     0.9551    -0.0000

  Mayer bond orders larger than 0.100000
B(  0-C ,  3-C ) :   0.9790 B(  0-C ,  4-H ) :   0.9653 B(  0-C ,  7-N ) :   0.9075 
B(  0-C , 11-H ) :   0.9688 B(  1-C ,  7-N ) :   1.2318 B(  1-C ,  8-N ) :   1.2318 
B(  2-C ,  3-C ) :   0.9790 B(  2-C ,  5-H ) :   0.9688 B(  2-C ,  8-N ) :   0.9075 
B(  2-C ,  9-H ) :   0.9653 B(  3-C ,  6-H ) :   0.9817 B(  3-C , 10-H ) :   0.9774 
B(  7-N , 12-C ) :   0.9131 B(  8-N , 16-C ) :   0.9132 B( 12-C , 13-H ) :   0.9734 
B( 12-C , 14-H ) :   0.9704 B( 12-C , 15-H ) :   0.9670 B( 16-C , 17-H ) :   0.9704 
B( 16-C , 18-H ) :   0.9734 B( 16-C , 19-H ) :   0.9670 

-------
TIMINGS
-------

Total SCF time: 0 days 0 hours 2 min 27 sec 

Total time                  ....     147.721 sec
Sum of individual times     ....     146.918 sec  ( 99.5%)

Fock matrix formation       ....     144.231 sec  ( 97.6%)
  Split-RI-J                ....       6.359 sec  (  4.4% of F)
  Chain of spheres X        ....     113.583 sec  ( 78.8% of F)
  XC integration            ....      13.517 sec  (  9.4% of F)
    Basis function eval.    ....       3.395 sec  ( 25.1% of XC)
    Density eval.           ....       3.746 sec  ( 27.7% of XC)
    XC-Functional eval.     ....       0.881 sec  (  6.5% of XC)
    XC-Potential eval.      ....       4.270 sec  ( 31.6% of XC)
Diagonalization             ....       0.307 sec  (  0.2%)
Density matrix formation    ....       0.021 sec  (  0.0%)
Population analysis         ....       0.028 sec  (  0.0%)
Initial guess               ....       0.430 sec  (  0.3%)
Orbital Transformation      ....       0.000 sec  (  0.0%)
Orbital Orthonormalization  ....       0.000 sec  (  0.0%)
DIIS solution               ....       0.200 sec  (  0.1%)
SOSCF solution              ....       0.162 sec  (  0.1%)
Grid generation             ....       1.539 sec  (  1.0%)

[...]
     28      -0.042488  -0.121679  -0.062193   0.111659  -0.003393   0.006117
     29       0.023112   0.062173   0.034030  -0.057716   0.004478  -0.003358
     30       0.000000  -0.000002  -0.003279   0.009884   0.122555  -0.000004
     31      -0.000002   0.000009   0.016357  -0.038815  -0.417304   0.000016
     32      -0.000984  -0.005459   0.000003  -0.000000   0.000000  -0.000659
     33       0.045458   0.111881  -0.066239   0.094999   0.100160   0.060835
     34       0.026364   0.067274  -0.038223   0.056703   0.069736   0.042543
     35       0.069522   0.169226  -0.102661   0.145231   0.169325   0.105602
     36      -0.004047   0.003701   0.003428   0.004553  -0.000872  -0.064649
     37       0.000386  -0.000296  -0.000110  -0.000137   0.000357  -0.004395
     38       0.034188  -0.012932  -0.031387  -0.019182  -0.000087  -0.004720
     39      -0.020195   0.007667   0.018556   0.011169   0.000517  -0.009397
     40       0.212318  -0.076671  -0.195652  -0.113380  -0.004463  -0.025010
     41       0.038157  -0.013019  -0.035274  -0.019171  -0.000776  -0.004367
     42      -0.328931   0.112791   0.302509   0.169570   0.006845   0.385160
     43      -0.131453   0.044381   0.120866   0.066545   0.002298   0.166185
     44      -0.233268   0.079849   0.214988   0.121152   0.005583   0.292530
     45       0.397896  -0.162793  -0.362945  -0.233762   0.003815   0.394066
     46      -0.078701   0.031498   0.071737   0.044964  -0.001037  -0.088107
     47      -0.218358   0.091340   0.199354   0.131329  -0.002397  -0.232346
     48       0.004045  -0.003697   0.003431   0.004553  -0.000872   0.064552
     49      -0.000386   0.000296  -0.000110  -0.000137   0.000357   0.004388
     50       0.034183  -0.012900   0.031405   0.019183   0.000087  -0.004711
     51       0.328894  -0.112482   0.302681   0.169583   0.006845  -0.384576
     52       0.131433  -0.044255   0.120929   0.066547   0.002298  -0.165925
     53      -0.233238   0.079627  -0.215107  -0.121159  -0.005583   0.292083
     54       0.020189  -0.007647   0.018563   0.011168   0.000517   0.009384
     55      -0.212290   0.076469  -0.195764  -0.113386  -0.004463   0.024963
     56       0.038152  -0.012982   0.035294   0.019172   0.000776  -0.004359
     57      -0.397828   0.162414  -0.363159  -0.233764   0.003816  -0.393483
     58       0.078694  -0.031426   0.071784   0.044968  -0.001038   0.087983
     59      -0.218323   0.091133  -0.199476  -0.131332   0.002398  -0.232005
                 54         55         56         57         58         59    
      0      -0.003315   0.043667   0.041852  -0.008943   0.000757   0.000750
      1      -0.002036   0.014032   0.013061   0.000591  -0.000287  -0.000213
      2      -0.005443   0.042865   0.042158  -0.001652   0.000218   0.000351
      3      -0.000678  -0.000000   0.000557  -0.000173  -0.000023  -0.000000
      4       0.000106   0.000000  -0.000561  -0.000150  -0.000053  -0.000000
      5      -0.000000  -0.000906  -0.000000  -0.000000  -0.000005   0.000967
      6      -0.003325  -0.043669   0.041850  -0.008943   0.000764  -0.000743
      7      -0.002041  -0.014033   0.013060   0.000591  -0.000289   0.000210
      8       0.005456   0.042867  -0.042156   0.001651  -0.000221   0.000349
      9      -0.003313  -0.000000   0.013914  -0.056012  -0.000149  -0.000001
     10      -0.001614  -0.000000   0.017311   0.072825  -0.000211  -0.000001
     11      -0.000000  -0.000416   0.000000  -0.000000  -0.000000   0.000082
     12       0.004341  -0.211208  -0.206102   0.079974  -0.005497  -0.005165
     13      -0.002692   0.045283   0.042991  -0.015399   0.000529   0.000705
     14      -0.001158   0.031949   0.031504  -0.011479   0.000783   0.000776
     15       0.037131   0.310953  -0.298126   0.020852  -0.002249   0.002815
     16       0.026463   0.209995  -0.199574   0.013357  -0.003047   0.003172
     17      -0.064825  -0.539510   0.518450  -0.035452   0.003388  -0.004818
     18       0.045141   0.000005  -0.209736   0.458082   0.001483   0.000008
     19      -0.002632  -0.000000   0.012526  -0.018430  -0.000079  -0.000000
     20       0.000000   0.001806  -0.000000   0.000001   0.000000  -0.000073
     21       0.000222  -0.000017  -0.000080   0.000116  -0.000102  -0.000138
     22      -0.000068   0.000117   0.000024  -0.000407   0.000398   0.000696
     23      -0.000087   0.000419   0.000254   0.000139   0.000714   0.000563
     24       0.000222   0.000017  -0.000080   0.000116  -0.000103   0.000137
     25      -0.000068  -0.000117   0.000024  -0.000407   0.000405  -0.000692
     26       0.000087   0.000419  -0.000254  -0.000139  -0.000720   0.000556
     27       0.004371   0.211212  -0.206087   0.079974  -0.005545   0.005113
     28      -0.002701  -0.045285   0.042988  -0.015399   0.000536  -0.000700
     29       0.001163   0.031950  -0.031503   0.011479  -0.000790   0.000768
     30      -0.006120  -0.000001   0.056286   0.218865  -0.000426  -0.000002
     31       0.021891   0.000004  -0.211911  -0.846124   0.003033   0.000013
     32       0.000000   0.001069   0.000000   0.000001   0.000003  -0.000613
     33       0.037038  -0.310937  -0.298138   0.020852  -0.002224  -0.002835
     34       0.026398  -0.209986  -0.199584   0.013357  -0.003017  -0.003200
     35       0.064664  -0.539486  -0.518475   0.035454  -0.003344  -0.004848
     36      -0.065178  -0.012090  -0.007947   0.000612  -0.004956  -0.005014
     37      -0.004478  -0.001592  -0.001114   0.000215   0.060314   0.060889
     38      -0.004963  -0.000752   0.000205   0.000338   0.021109   0.021286
     39      -0.009519  -0.003618  -0.003026   0.000277   0.060025   0.060600
     40      -0.025567   0.005322   0.007758  -0.000953  -0.654427  -0.660702
     41      -0.004502  -0.000062   0.000199  -0.000237  -0.111564  -0.112641
     42       0.389879   0.068292   0.038228  -0.005512  -0.127480  -0.128420
     43       0.168302   0.031498   0.018521  -0.002344  -0.045133  -0.045381
     44       0.295991   0.050496   0.027687  -0.004135  -0.087125  -0.087814
     45       0.395571   0.076797   0.056647  -0.001671   0.127131   0.128278
     46      -0.088518  -0.017201  -0.012465   0.000665  -0.018672  -0.018806
     47      -0.233106  -0.044081  -0.032265   0.000579  -0.066357  -0.067041
     48      -0.065274   0.012091  -0.007947   0.000612  -0.005003   0.004967
     49      -0.004484   0.001592  -0.001114   0.000215   0.060885  -0.060318
     50       0.004969  -0.000752  -0.000206  -0.000338  -0.021309   0.021086
     51       0.390448  -0.068295   0.038229  -0.005513  -0.128684   0.127213
     52       0.168540  -0.031498   0.018521  -0.002345  -0.045556   0.044952
     53      -0.296419   0.050498  -0.027688   0.004136   0.087947  -0.086988
     54      -0.009534   0.003618  -0.003026   0.000277   0.060582  -0.060021
     55      -0.025595  -0.005322   0.007760  -0.000955  -0.660624   0.654507
     56       0.004507  -0.000062  -0.000200   0.000237   0.112620  -0.111584
     57       0.396163  -0.076805   0.056648  -0.001671   0.128338  -0.127078
     58      -0.088657   0.017204  -0.012466   0.000665  -0.018851   0.018632
     59       0.233457  -0.044085   0.032266  -0.000579   0.066988  -0.066416


-----------
IR SPECTRUM
-----------

 Mode   freq       eps      Int      T**2         TX        TY        TZ
       cm**-1   L/(mol*cm) km/mol    a.u.
----------------------------------------------------------------------------
  6:     95.69   0.000001    0.01  0.000004  (-0.000016 -0.000003  0.001876)
  7:    103.99   0.001241    6.27  0.003725  ( 0.060233  0.009841  0.000006)
  8:    125.94   0.000161    0.81  0.000398  (-0.000017 -0.000002  0.019945)
  9:    204.53   0.002248   11.36  0.003429  ( 0.058372  0.004676  0.000001)
 10:    278.07   0.002718   13.74  0.003050  ( 0.055205 -0.001639  0.000000)
 11:    283.24   0.000043    0.22  0.000047  ( 0.000003  0.000001 -0.006860)
 12:    329.24   0.000993    5.02  0.000941  ( 0.019419  0.023756  0.000000)
 13:    437.23   0.000175    0.88  0.000125  (-0.000000  0.000000 -0.011172)
 14:    456.78   0.000272    1.37  0.000186  ( 0.011588  0.007160 -0.000000)
 15:    481.37   0.006136   31.01  0.003978  ( 0.000000 -0.000000  0.063071)
 16:    523.19   0.000620    3.14  0.000370  ( 0.001131 -0.019205 -0.000000)
 17:    617.15   0.000068    0.35  0.000035  (-0.005599 -0.001798 -0.000000)
 18:    807.67   0.000738    3.73  0.000285  ( 0.001374  0.016827  0.000000)
 19:    883.26   0.002208   11.16  0.000780  ( 0.000000  0.000000 -0.027933)
 20:    910.62   0.000397    2.01  0.000136  ( 0.000000  0.000000 -0.011665)
 21:    948.53   0.000214    1.08  0.000071  ( 0.008397 -0.000073  0.000000)
 22:   1036.66   0.004575   23.12  0.001377  (-0.011612  0.035249  0.000000)
 23:   1071.77   0.000093    0.47  0.000027  ( 0.000000 -0.000000  0.005193)
 24:   1092.25   0.001611    8.14  0.000460  ( 0.000613  0.021444  0.000001)
 25:   1123.25   0.001667    8.42  0.000463  ( 0.019135  0.009846 -0.000003)
 26:   1125.89   0.005522   27.91  0.001531  ( 0.000001  0.000001  0.039123)
 27:   1154.86   0.000072    0.36  0.000019  ( 0.000001 -0.000000  0.004410)
 28:   1169.71   0.001414    7.15  0.000377  ( 0.018752  0.005066  0.000001)
 29:   1216.29   0.002181   11.02  0.000560  ( 0.000000  0.000000  0.023657)
 30:   1241.57   0.022784  115.14  0.005727  (-0.000000 -0.000000  0.075674)
 31:   1272.15   0.000521    2.63  0.000128  ( 0.000000  0.000000  0.011308)
 32:   1280.25   0.005982   30.23  0.001458  (-0.012320 -0.036142 -0.000001)
 33:   1333.30   0.001445    7.30  0.000338  (-0.011290  0.014516 -0.000000)
 34:   1359.87   0.030870  156.01  0.007084  ( 0.000000  0.000000 -0.084167)
 35:   1397.81   0.002536   12.82  0.000566  ( 0.000000  0.000000 -0.023794)
 36:   1403.08   0.007594   38.38  0.001689  (-0.004819  0.040815 -0.000001)
 37:   1437.95   0.016928   85.55  0.003674  (-0.000000  0.000000 -0.060611)
 38:   1451.50   0.000372    1.88  0.000080  (-0.000962 -0.008887 -0.000000)
 39:   1457.53   0.002125   10.74  0.000455  (-0.011315  0.018083 -0.000000)
 40:   1475.40   0.004647   23.49  0.000983  ( 0.000006  0.000000  0.031352)
 41:   1478.60   0.005543   28.01  0.001170  (-0.034062 -0.003096  0.000010)
 42:   1482.01   0.005959   30.11  0.001255  (-0.000003  0.000000 -0.035422)
 43:   1483.29   0.003489   17.63  0.000734  (-0.014133 -0.023116 -0.000001)
 44:   1492.97   0.000566    2.86  0.000118  (-0.000000  0.000001 -0.010874)
 45:   1499.52   0.000891    4.50  0.000186  ( 0.003360 -0.013199 -0.000000)
 46:   1522.96   0.003898   19.70  0.000799  (-0.007664  0.027203  0.000000)
 47:   1583.28   0.085144  430.28  0.016782  (-0.000000  0.000000  0.129545)
 48:   3041.37   0.023777  120.16  0.002440  (-0.000000 -0.000001  0.049393)
 49:   3042.42   0.026352  133.17  0.002703  (-0.000008  0.000011 -0.051990)
 50:   3042.62   0.005872   29.67  0.000602  (-0.014592  0.019732  0.000031)
 51:   3046.94   0.015905   80.38  0.001629  ( 0.035507 -0.019188 -0.000000)
 52:   3081.04   0.003896   19.69  0.000395  ( 0.017898  0.008615 -0.000000)
 53:   3098.52   0.001294    6.54  0.000130  (-0.000036 -0.000004 -0.011416)
 54:   3098.72   0.024395  123.28  0.002457  (-0.049206 -0.005960  0.000008)
 55:   3109.42   0.007667   38.75  0.000769  (-0.000000 -0.000000  0.027739)
 56:   3113.28   0.008134   41.11  0.000815  ( 0.023565  0.016125  0.000001)
 57:   3144.82   0.007689   38.86  0.000763  (-0.019067  0.019987 -0.000001)
 58:   3181.67   0.006729   34.01  0.000660  (-0.001694  0.025634 -0.000039)
 59:   3181.73   0.000683    3.45  0.000067  (-0.000008  0.000121  0.008186)

* The epsilon (eps) is given for a Dirac delta lineshape.
** The dipole moment derivative (T) already includes vibrational overlap.

The first frequency considered to be a vibration is 6
The total number of vibrations considered is 54


--------------------------
THERMOCHEMISTRY AT 298.15K
--------------------------

Temperature         ... 298.15 K
Pressure            ... 1.00 atm
Total Mass          ... 112.18 AMU

Throughout the following assumptions are being made:
  (1) The electronic state is orbitally nondegenerate
  (2) There are no thermally accessible electronically excited states
  (3) Hindered rotations indicated by low frequency modes are not
      treated as such but are treated as vibrations and this may
      cause some error
  (4) All equations used are the standard statistical mechanics
      equations for an ideal gas
  (5) All vibrations are strictly harmonic

freq.      95.69  E(vib)   ...       0.47 
freq.     103.99  E(vib)   ...       0.46 
freq.     125.94  E(vib)   ...       0.43 
freq.     204.53  E(vib)   ...       0.35 
freq.     278.07  E(vib)   ...       0.28 
freq.     283.24  E(vib)   ...       0.28 
freq.     329.24  E(vib)   ...       0.24 
freq.     437.23  E(vib)   ...       0.17 
freq.     456.78  E(vib)   ...       0.16 
freq.     481.37  E(vib)   ...       0.15 
freq.     523.19  E(vib)   ...       0.13 
freq.     617.15  E(vib)   ...       0.09 
freq.     807.67  E(vib)   ...       0.05 
freq.     883.26  E(vib)   ...       0.04 
freq.     910.62  E(vib)   ...       0.03 
freq.     948.53  E(vib)   ...       0.03 
freq.    1036.66  E(vib)   ...       0.02 
freq.    1071.77  E(vib)   ...       0.02 
freq.    1092.25  E(vib)   ...       0.02 
freq.    1123.25  E(vib)   ...       0.01 
freq.    1125.89  E(vib)   ...       0.01 
freq.    1154.86  E(vib)   ...       0.01 
freq.    1169.71  E(vib)   ...       0.01 
freq.    1216.29  E(vib)   ...       0.01 
freq.    1241.57  E(vib)   ...       0.01 
freq.    1272.15  E(vib)   ...       0.01 
freq.    1280.25  E(vib)   ...       0.01 
freq.    1333.30  E(vib)   ...       0.01 
freq.    1359.87  E(vib)   ...       0.01 
freq.    1397.81  E(vib)   ...       0.00 
freq.    1403.08  E(vib)   ...       0.00 
freq.    1437.95  E(vib)   ...       0.00 
freq.    1451.50  E(vib)   ...       0.00 
freq.    1457.53  E(vib)   ...       0.00 
freq.    1475.40  E(vib)   ...       0.00 
freq.    1478.60  E(vib)   ...       0.00 
freq.    1482.01  E(vib)   ...       0.00 
freq.    1483.29  E(vib)   ...       0.00 
freq.    1492.97  E(vib)   ...       0.00 
freq.    1499.52  E(vib)   ...       0.00 
freq.    1522.96  E(vib)   ...       0.00 
freq.    1583.28  E(vib)   ...       0.00 
freq.    3041.37  E(vib)   ...       0.00 
freq.    3042.42  E(vib)   ...       0.00 
freq.    3042.62  E(vib)   ...       0.00 
freq.    3046.94  E(vib)   ...       0.00 
freq.    3081.04  E(vib)   ...       0.00 
freq.    3098.52  E(vib)   ...       0.00 
freq.    3098.72  E(vib)   ...       0.00 
freq.    3109.42  E(vib)   ...       0.00 
freq.    3113.28  E(vib)   ...       0.00 
freq.    3144.82  E(vib)   ...       0.00 
freq.    3181.67  E(vib)   ...       0.00 
freq.    3181.73  E(vib)   ...       0.00 

------------
INNER ENERGY
------------

The inner energy is: U= E(el) + E(ZPE) + E(vib) + E(rot) + E(trans)
    E(el)   - is the total energy from the electronic structure calculation
              = E(kin-el) + E(nuc-el) + E(el-el) + E(nuc-nuc)
    E(ZPE)  - the the zero temperature vibrational energy from the frequency calculation
    E(vib)  - the the finite temperature correction to E(ZPE) due to population
              of excited vibrational states
    E(rot)  - is the rotational thermal energy
    E(trans)- is the translational thermal energy

Summary of contributions to the inner energy U:
Electronic energy                ...   -345.36404348 Eh
Zero point energy                ...      0.18068771 Eh     113.38 kcal/mol
Thermal vibrational correction   ...      0.00565999 Eh       3.55 kcal/mol
Thermal rotational correction    ...      0.00141627 Eh       0.89 kcal/mol
Thermal translational correction ...      0.00141627 Eh       0.89 kcal/mol
-----------------------------------------------------------------------
Total thermal energy                   -345.17486324 Eh


Summary of corrections to the electronic energy:
(perhaps to be used in another calculation)
Total thermal correction                  0.00849253 Eh       5.33 kcal/mol
Non-thermal (ZPE) correction              0.18068771 Eh     113.38 kcal/mol
-----------------------------------------------------------------------
Total correction                          0.18918024 Eh     118.71 kcal/mol


--------
ENTHALPY
--------

The enthalpy is H = U + kB*T
                kB is Boltzmann's constant
Total free energy                 ...   -345.17486324 Eh 
Thermal Enthalpy correction       ...      0.00094421 Eh       0.59 kcal/mol
-----------------------------------------------------------------------
Total Enthalpy                    ...   -345.17391903 Eh


Note: Rotational entropy computed according to Herzberg 
Infrared and Raman Spectra, Chapter V,1, Van Nostrand Reinhold, 1945 
Point Group:  Cs, Symmetry Number:   1  
Rotational constants in cm-1:     0.111658     0.059667     0.040994 

Vibrational entropy computed according to the QRRHO of S. Grimme
Chem.Eur.J. 2012 18 9955


-------
ENTROPY
-------

The entropy contributions are T*S = T*(S(el)+S(vib)+S(rot)+S(trans))
     S(el)   - electronic entropy
     S(vib)  - vibrational entropy
     S(rot)  - rotational entropy
     S(trans)- translational entropy
The entropies will be listed as multiplied by the temperature to get
units of energy

Electronic entropy                ...      0.00000000 Eh      0.00 kcal/mol
Vibrational entropy               ...      0.00967571 Eh      6.07 kcal/mol
Rotational entropy                ...      0.01338460 Eh      8.40 kcal/mol
Translational entropy             ...      0.01903397 Eh     11.94 kcal/mol
-----------------------------------------------------------------------
Final entropy term                ...      0.04209428 Eh     26.41 kcal/mol

In case the symmetry of your molecule has not been determined correctly
or in case you have a reason to use a different symmetry number we print 
out the resulting rotational entropy values for sn=1,12 :
 --------------------------------------------------------
|  sn= 1 | S(rot)=       0.01338460 Eh      8.40 kcal/mol|
|  sn= 2 | S(rot)=       0.01273015 Eh      7.99 kcal/mol|
|  sn= 3 | S(rot)=       0.01234731 Eh      7.75 kcal/mol|
|  sn= 4 | S(rot)=       0.01207569 Eh      7.58 kcal/mol|
|  sn= 5 | S(rot)=       0.01186500 Eh      7.45 kcal/mol|
|  sn= 6 | S(rot)=       0.01169286 Eh      7.34 kcal/mol|
|  sn= 7 | S(rot)=       0.01154731 Eh      7.25 kcal/mol|
|  sn= 8 | S(rot)=       0.01142123 Eh      7.17 kcal/mol|
|  sn= 9 | S(rot)=       0.01131003 Eh      7.10 kcal/mol|
|  sn=10 | S(rot)=       0.01121055 Eh      7.03 kcal/mol|
|  sn=11 | S(rot)=       0.01112056 Eh      6.98 kcal/mol|
|  sn=12 | S(rot)=       0.01103840 Eh      6.93 kcal/mol|
 --------------------------------------------------------


-------------------
GIBBS FREE ENERGY
-------------------

The Gibbs free energy is G = H - T*S

Total enthalpy                    ...   -345.17391903 Eh 
Total entropy correction          ...     -0.04209428 Eh    -26.41 kcal/mol
-----------------------------------------------------------------------
Final Gibbs free energy         ...   -345.21601331 Eh

For completeness - the Gibbs free energy minus the electronic energy
G-E(el)                           ...      0.14803017 Eh     92.89 kcal/mol


Timings for individual modules:

Sum of individual times         ...     1651.496 sec (=  27.525 min)
GTO integral calculation        ...        3.841 sec (=   0.064 min)   0.2 %
SCF iterations                  ...      485.480 sec (=   8.091 min)  29.4 %
SCF Gradient evaluation         ...      120.464 sec (=   2.008 min)   7.3 %
Geometry relaxation             ...        0.460 sec (=   0.008 min)   0.0 %
Analytical frequency calculation...     1041.250 sec (=  17.354 min)  63.0 %
                             ****ORCA TERMINATED NORMALLY****
TOTAL RUN TIME: 0 days 0 hours 27 minutes 33 seconds 650 msec
