
                                 *****************
                                 * O   R   C   A *
                                 *****************

                                            #,                                       
                                            ###                                      
                                            ####                                     
                                            #####                                    
                                            ######                                   
                                           ########,                                 
                                     ,,################,,,,,                         
                               ,,#################################,,                 
                          ,,##########################################,,             
                       ,#########################################, ''#####,          
                    ,#############################################,,   '####,        
                  ,##################################################,,,,####,       
                ,###########''''           ''''###############################       
              ,#####''   ,,,,##########,,,,          '''####'''          '####       
            ,##' ,,,,###########################,,,                        '##       
           ' ,,###''''                  '''############,,,                           
         ,,##''                                '''############,,,,        ,,,,,,###''
      ,#''                                            '''#######################'''  
     '                                                          ''''####''''         
             ,#######,   #######,   ,#######,      ##                                
            ,#'     '#,  ##    ##  ,#'     '#,    #''#        ######   ,####,        
            ##       ##  ##   ,#'  ##            #'  '#       #        #'  '#        
            ##       ##  #######   ##           ,######,      #####,   #    #        
            '#,     ,#'  ##    ##  '#,     ,#' ,#      #,         ##   #,  ,#        
             '#######'   ##     ##  '#######'  #'      '#     #####' # '####'        



                  #######################################################
                  #                        -***-                        #
                  #          Department of theory and spectroscopy      #
                  #    Directorship and core code : Frank Neese         #
                  #        Max Planck Institute fuer Kohlenforschung    #
                  #                Kaiser Wilhelm Platz 1               #
                  #                 D-45470 Muelheim/Ruhr               #
                  #                      Germany                        #
                  #                                                     #
                  #                  All rights reserved                #
                  #                        -***-                        #
                  #######################################################


                         Program Version 5.0.4 -  RELEASE  -


 With contributions from (in alphabetic order):
   Daniel Aravena         : Magnetic Suceptibility
   Michael Atanasov       : Ab Initio Ligand Field Theory (pilot matlab implementation)
   Alexander A. Auer      : GIAO ZORA, VPT2 properties, NMR spectrum
   Ute Becker             : Parallelization
   Giovanni Bistoni       : ED, misc. LED, open-shell LED, HFLD
   Martin Brehm           : Molecular dynamics
   Dmytro Bykov           : SCF Hessian
   Vijay G. Chilkuri      : MRCI spin determinant printing, contributions to CSF-ICE
   Dipayan Datta          : RHF DLPNO-CCSD density
   Achintya Kumar Dutta   : EOM-CC, STEOM-CC
   Dmitry Ganyushin       : Spin-Orbit,Spin-Spin,Magnetic field MRCI
   Miquel Garcia          : C-PCM and meta-GGA Hessian, CC/C-PCM, Gaussian charge scheme
   Yang Guo               : DLPNO-NEVPT2, F12-NEVPT2, CIM, IAO-localization
   Andreas Hansen         : Spin unrestricted coupled pair/coupled cluster methods
   Benjamin Helmich-Paris : MC-RPA, TRAH-SCF, COSX integrals
   Lee Huntington         : MR-EOM, pCC
   Robert Izsak           : Overlap fitted RIJCOSX, COSX-SCS-MP3, EOM
   Marcus Kettner         : VPT2
   Christian Kollmar      : KDIIS, OOCD, Brueckner-CCSD(T), CCSD density, CASPT2, CASPT2-K
   Simone Kossmann        : Meta GGA functionals, TD-DFT gradient, OOMP2, MP2 Hessian
   Martin Krupicka        : Initial AUTO-CI
   Lucas Lang             : DCDCAS
   Marvin Lechner         : AUTO-CI (C++ implementation), FIC-MRCC
   Dagmar Lenk            : GEPOL surface, SMD
   Dimitrios Liakos       : Extrapolation schemes; Compound Job, initial MDCI parallelization
   Dimitrios Manganas     : Further ROCIS development; embedding schemes
   Dimitrios Pantazis     : SARC Basis sets
   Anastasios Papadopoulos: AUTO-CI, single reference methods and gradients
   Taras Petrenko         : DFT Hessian,TD-DFT gradient, ASA, ECA, R-Raman, ABS, FL, XAS/XES, NRVS
   Peter Pinski           : DLPNO-MP2, DLPNO-MP2 Gradient
   Christoph Reimann      : Effective Core Potentials
   Marius Retegan         : Local ZFS, SOC
   Christoph Riplinger    : Optimizer, TS searches, QM/MM, DLPNO-CCSD(T), (RO)-DLPNO pert. Triples
   Tobias Risthaus        : Range-separated hybrids, TD-DFT gradient, RPA, STAB
   Michael Roemelt        : Original ROCIS implementation
   Masaaki Saitow         : Open-shell DLPNO-CCSD energy and density
   Barbara Sandhoefer     : DKH picture change effects
   Avijit Sen             : IP-ROCIS
   Kantharuban Sivalingam : CASSCF convergence, NEVPT2, FIC-MRCI
   Bernardo de Souza      : ESD, SOC TD-DFT
   Georgi Stoychev        : AutoAux, RI-MP2 NMR, DLPNO-MP2 response
   Willem Van den Heuvel  : Paramagnetic NMR
   Boris Wezisla          : Elementary symmetry handling
   Frank Wennmohs         : Technical directorship


 We gratefully acknowledge several colleagues who have allowed us to
 interface, adapt or use parts of their codes:
   Stefan Grimme, W. Hujo, H. Kruse, P. Pracht,  : VdW corrections, initial TS optimization,
                  C. Bannwarth, S. Ehlert          DFT functionals, gCP, sTDA/sTD-DF
   Ed Valeev, F. Pavosevic, A. Kumar             : LibInt (2-el integral package), F12 methods
   Garnet Chan, S. Sharma, J. Yang, R. Olivares  : DMRG
   Ulf Ekstrom                                   : XCFun DFT Library
   Mihaly Kallay                                 : mrcc  (arbitrary order and MRCC methods)
   Jiri Pittner, Ondrej Demel                    : Mk-CCSD
   Frank Weinhold                                : gennbo (NPA and NBO analysis)
   Christopher J. Cramer and Donald G. Truhlar   : smd solvation model
   Lars Goerigk                                  : TD-DFT with DH, B97 family of functionals
   V. Asgeirsson, H. Jonsson                     : NEB implementation
   FAccTs GmbH                                   : IRC, NEB, NEB-TS, DLPNO-Multilevel, CI-OPT
                                                   MM, QMMM, 2- and 3-layer-ONIOM, Crystal-QMMM,
                                                   LR-CPCM, SF, NACMEs, symmetry and pop. for TD-DFT,
                                                   nearIR, NL-DFT gradient (VV10), updates on ESD,
                                                   ML-optimized integration grids
   S Lehtola, MJT Oliveira, MAL Marques          : LibXC Library
   Liviu Ungur et al                             : ANISO software


 Your calculation uses the libint2 library for the computation of 2-el integrals
 For citations please refer to: http://libint.valeyev.net

 Your ORCA version has been built with support for libXC version: 5.1.0
 For citations please refer to: https://tddft.org/programs/libxc/

 This ORCA versions uses:
   CBLAS   interface :  Fast vector & matrix operations
   LAPACKE interface :  Fast linear algebra routines
   SCALAPACK package :  Parallel linear algebra routines
   Shared memory     :  Shared parallel matrices
   BLAS/LAPACK       :  OpenBLAS 0.3.15  USE64BITINT DYNAMIC_ARCH NO_AFFINITY SkylakeX SINGLE_THREADED
        Core in use  :  SkylakeX
   Copyright (c) 2011-2014, The OpenBLAS Project




***************************************
The coordinates will be read from file: 11_deprot.xyz
***************************************


Your calculation utilizes the atom-pairwise dispersion correction
based on tight binding partial charges (D4)
Cite in your paper:
E.Caldeweyher, C.Bannwarth, S.Grimme, J.Chem.Phys., (2017), 147, 034112.
E.Caldeweyher, S.Ehlert, A.Hansen, H.Neugebauer, S.Grimme, J.Chem.Phys., (2018), in progress.
   

XCFun DFT library Copyright 2009-2010 Ulf Ekstrom and contributors.
See http://admol.org/xcfun for more information.
This is free software; see the source code for copying conditions.
There is ABSOLUTELY NO WARRANTY; not even for MERCHANTABILITY or FITNESS FOR A PARTICULAR PURPOSE.
For details see the documentation.
Scientific users of this library should cite U. Ekstrom, L. Visscher, R. Bast, A. J. Thorvaldsen and K. Ruud;
J.Chem.Theor.Comp. 2010, DOI: 10.1021/ct100117s
XCFun Version 0.99 

================================================================================

----- Orbital basis set information -----
Your calculation utilizes the basis: def2-TZVP
   F. Weigend and R. Ahlrichs, Phys. Chem. Chem. Phys. 7, 3297 (2005).

----- AuxJ basis set information -----
Your calculation utilizes the auxiliary basis: def2/J
   F. Weigend, Phys. Chem. Chem. Phys. 8, 1057 (2006).

================================================================================
                                        WARNINGS
                       Please study these warnings very carefully!
================================================================================


WARNING: Geometry Optimization
  ===> : Switching off AutoStart
         For restart on a previous wavefunction, please use MOREAD

INFO   : the flag for use of the SHARK integral package has been found!

================================================================================
                                       INPUT FILE
================================================================================
NAME = 11_deprot.inp
|  1> # ORCA 5.0.4 - /users/bwb16179/postgrad/2024_06/pKa_Reviewer_Comments/Aq_Z=0/11_deprot.inp # write input file
|  2> # Basic Mode
|  3> #
|  4> ! Opt Freq wB97X Def2-TZVP D4 SlowConv TightSCF Defgrid2 Def2/J RIJCOSX CPCM(Water)
|  5> 
|  6> %PAL NPROCS 4 END
|  7> 
|  8> %maxcore 4500
|  9> 
| 10> %geom
| 11> Maxiter 150
| 12> END
| 13> 
| 14> * xyzfile 0 1 11_deprot.xyz
| 15> 
| 16>                          ****END OF INPUT****
================================================================================

                       *****************************
                       * Geometry Optimization Run *
                       *****************************

Geometry optimization settings:
Update method            Update   .... BFGS
Choice of coordinates    CoordSys .... Z-matrix Internals
Initial Hessian          InHess   .... Almoef's Model

Convergence Tolerances:
Energy Change            TolE     ....  5.0000e-06 Eh
Max. Gradient            TolMAXG  ....  3.0000e-04 Eh/bohr
RMS Gradient             TolRMSG  ....  1.0000e-04 Eh/bohr
Max. Displacement        TolMAXD  ....  4.0000e-03 bohr
RMS Displacement         TolRMSD  ....  2.0000e-03 bohr
Strict Convergence                ....  False
------------------------------------------------------------------------------
                        ORCA OPTIMIZATION COORDINATE SETUP
------------------------------------------------------------------------------

The optimization will be done in new redundant internal coordinates
Making redundant internal coordinates   ...  (new redundants) done
Evaluating the initial hessian          ...  (Almloef) done
Evaluating the coordinates              ...  done
Calculating the B-matrix                .... done
Calculating the G-matrix                .... done
Diagonalizing the G-matrix              .... done
Small eigenvalue found = 1.054e-02
Small eigenvalue found = 2.824e-02
The first mode is                       ....   26
The number of degrees of freedom        ....   51

    -----------------------------------------------------------------
                    Redundant Internal Coordinates


    -----------------------------------------------------------------
         Definition                    Initial Value    Approx d2E/dq
    -----------------------------------------------------------------
      1. B(N   1,C   0)                  1.3467         0.655982   
      2. B(N   2,C   0)                  1.3467         0.655983   
      3. B(C   3,N   1)                  1.4622         0.429226   
      4. B(C   4,N   2)                  1.4622         0.429225   
      5. B(H   5,C   3)                  1.1010         0.345786   
      6. B(H   6,C   4)                  1.1010         0.345785   
      7. B(H   7,C   3)                  1.0958         0.352558   
      8. B(H   8,C   4)                  1.0958         0.352558   
      9. B(H   9,C   3)                  1.1029         0.343465   
     10. B(H  10,C   4)                  1.1029         0.343466   
     11. B(C  11,N   1)                  1.4542         0.441977   
     12. B(C  12,N   2)                  1.4542         0.441978   
     13. B(H  13,C  11)                  1.0961         0.352154   
     14. B(H  14,C  12)                  1.0961         0.352153   
     15. B(H  15,C  11)                  1.1048         0.341070   
     16. B(H  16,C  12)                  1.1048         0.341071   
     17. B(H  17,C  11)                  1.1035         0.342707   
     18. B(H  18,C  12)                  1.1035         0.342707   
     19. A(N   1,C   0,N   2)          119.3898         0.437190   
     20. A(C   3,N   1,C  11)          112.6848         0.378273   
     21. A(C   0,N   1,C   3)          129.2641         0.405318   
     22. A(C   0,N   1,C  11)          117.2571         0.407420   
     23. A(C   4,N   2,C  12)          112.6848         0.378273   
     24. A(C   0,N   2,C  12)          117.2571         0.407421   
     25. A(C   0,N   2,C   4)          129.2641         0.405317   
     26. A(H   5,C   3,H   7)          107.3711         0.288039   
     27. A(N   1,C   3,H   9)          113.1352         0.327270   
     28. A(H   5,C   3,H   9)          107.6285         0.286865   
     29. A(H   7,C   3,H   9)          109.1197         0.287736   
     30. A(N   1,C   3,H   7)          111.0583         0.328683   
     31. A(N   1,C   3,H   5)          108.3065         0.327633   
     32. A(H   6,C   4,H  10)          107.6286         0.286865   
     33. A(H   8,C   4,H  10)          109.1197         0.287736   
     34. A(N   2,C   4,H  10)          113.1352         0.327270   
     35. A(N   2,C   4,H   6)          108.3064         0.327633   
     36. A(H   6,C   4,H   8)          107.3711         0.288039   
     37. A(N   2,C   4,H   8)          111.0583         0.328683   
     38. A(H  15,C  11,H  17)          107.7536         0.286153   
     39. A(H  13,C  11,H  17)          108.7537         0.287585   
     40. A(N   1,C  11,H  17)          110.7868         0.328734   
     41. A(H  13,C  11,H  15)          109.2445         0.287370   
     42. A(N   1,C  11,H  15)          111.1689         0.328474   
     43. A(N   1,C  11,H  13)          109.0848         0.330214   
     44. A(H  14,C  12,H  18)          108.7536         0.287585   
     45. A(N   2,C  12,H  18)          110.7868         0.328734   
     46. A(H  14,C  12,H  16)          109.2445         0.287370   
     47. A(N   2,C  12,H  16)          111.1689         0.328475   
     48. A(H  16,C  12,H  18)          107.7536         0.286153   
     49. A(N   2,C  12,H  14)          109.0848         0.330214   
     50. D(C  11,N   1,C   0,N   2)    172.5414         0.031850   
     51. D(C   3,N   1,C   0,N   2)    -18.5041         0.031850   
     52. D(C   4,N   2,C   0,N   1)    -18.5039         0.031851   
     53. D(C  12,N   2,C   0,N   1)    172.5414         0.031851   
     54. D(H   5,C   3,N   1,C  11)     31.3007         0.015707   
     55. D(H   7,C   3,N   1,C   0)    -20.3926         0.015707   
     56. D(H   9,C   3,N   1,C  11)    -87.9243         0.015707   
     57. D(H   9,C   3,N   1,C   0)    102.7132         0.015707   
     58. D(H   5,C   3,N   1,C   0)   -138.0617         0.015707   
     59. D(H   7,C   3,N   1,C  11)    148.9699         0.015707   
     60. D(H   8,C   4,N   2,C  12)    148.9699         0.015707   
     61. D(H   8,C   4,N   2,C   0)    -20.3927         0.015707   
     62. D(H   6,C   4,N   2,C  12)     31.3009         0.015707   
     63. D(H  10,C   4,N   2,C   0)    102.7131         0.015707   
     64. D(H   6,C   4,N   2,C   0)   -138.0618         0.015707   
     65. D(H  10,C   4,N   2,C  12)    -87.9242         0.015707   
     66. D(H  17,C  11,N   1,C   3)     63.2189         0.016658   
     67. D(H  17,C  11,N   1,C   0)   -126.0328         0.016658   
     68. D(H  15,C  11,N   1,C   3)    -56.5667         0.016658   
     69. D(H  15,C  11,N   1,C   0)    114.1815         0.016658   
     70. D(H  13,C  11,N   1,C   3)   -177.0968         0.016658   
     71. D(H  13,C  11,N   1,C   0)     -6.3485         0.016658   
     72. D(H  18,C  12,N   2,C   4)     63.2189         0.016658   
     73. D(H  18,C  12,N   2,C   0)   -126.0327         0.016658   
     74. D(H  16,C  12,N   2,C   4)    -56.5667         0.016658   
     75. D(H  16,C  12,N   2,C   0)    114.1817         0.016658   
     76. D(H  14,C  12,N   2,C   4)   -177.0968         0.016658   
     77. D(H  14,C  12,N   2,C   0)     -6.3484         0.016658   
    -----------------------------------------------------------------

Number of atoms                         .... 19
Number of degrees of freedom            .... 77

         *************************************************************
         *                GEOMETRY OPTIMIZATION CYCLE   1            *
         *************************************************************
---------------------------------
CARTESIAN COORDINATES (ANGSTROEM)
---------------------------------
  C     -0.000000    0.000000    0.824767
  N     -0.003410    1.162705    0.145195
  N      0.003409   -1.162705    0.145196
  C      0.355127    1.420995   -1.248636
  C     -0.355127   -1.420995   -1.248636
  H      0.943695    2.350699   -1.287755
  H     -0.943696   -2.350699   -1.287754
  H      0.984655    0.618193   -1.648508
  H     -0.984655   -0.618193   -1.648507
  H     -0.521790    1.553004   -1.904321
  H      0.521790   -1.553004   -1.904320
  C     -0.174803    2.384021    0.915778
  C      0.174803   -2.384021    0.915778
  H     -0.390164    2.122781    1.958252
  H      0.390164   -2.122782    1.958253
  H      0.734291    3.010631    0.877753
  H     -0.734290   -3.010631    0.877752
  H     -1.012889    2.982645    0.519645
  H      1.012889   -2.982644    0.519645

----------------------------
CARTESIAN COORDINATES (A.U.)
----------------------------
  NO LB      ZA    FRAG     MASS         X           Y           Z
   0 C     6.0000    0    12.011   -0.000000    0.000000    1.558584
   1 N     7.0000    0    14.007   -0.006444    2.197194    0.274379
   2 N     7.0000    0    14.007    0.006442   -2.197194    0.274381
   3 C     6.0000    0    12.011    0.671093    2.685291   -2.359580
   4 C     6.0000    0    12.011   -0.671093   -2.685291   -2.359580
   5 H     1.0000    0     1.008    1.783325    4.442177   -2.433504
   6 H     1.0000    0     1.008   -1.783327   -4.442177   -2.433502
   7 H     1.0000    0     1.008    1.860728    1.168215   -3.115229
   8 H     1.0000    0     1.008   -1.860728   -1.168215   -3.115227
   9 H     1.0000    0     1.008   -0.986040    2.934752   -3.598645
  10 H     1.0000    0     1.008    0.986040   -2.934752   -3.598643
  11 C     6.0000    0    12.011   -0.330330    4.505147    1.730570
  12 C     6.0000    0    12.011    0.330330   -4.505147    1.730570
  13 H     1.0000    0     1.008   -0.737303    4.011475    3.700560
  14 H     1.0000    0     1.008    0.737303   -4.011477    3.700562
  15 H     1.0000    0     1.008    1.387609    5.689268    1.658713
  16 H     1.0000    0     1.008   -1.387607   -5.689268    1.658711
  17 H     1.0000    0     1.008   -1.914083    5.636382    0.981987
  18 H     1.0000    0     1.008    1.914083   -5.636380    0.981987

--------------------------------
INTERNAL COORDINATES (ANGSTROEM)
--------------------------------
 C      0   0   0     0.000000000000     0.00000000     0.00000000
 N      1   0   0     1.346741492755     0.00000000     0.00000000
 N      1   2   0     1.346740985619   119.38981526     0.00000000
 C      2   1   3     1.462199494265   129.26407827   341.49590559
 C      3   1   2     1.462200202305   129.26405999   341.49608271
 H      4   2   1     1.101041377243   108.30645637   221.93826695
 H      5   3   1     1.101041876270   108.30637920   221.93822572
 H      4   2   1     1.095761913178   111.05831614   339.60742561
 H      5   3   1     1.095761548253   111.05825059   339.60728558
 H      4   2   1     1.102874707387   113.13522041   102.71323324
 H      5   3   1     1.102874112864   113.13522712   102.71314065
 C      2   1   3     1.454230549876   117.25705930   172.54142716
 C      3   1   2     1.454230137845   117.25712097   172.54142686
 H     12   2   1     1.096074239546   109.08479612   353.65149257
 H     13   3   1     1.096074952303   109.08483315   353.65159568
 H     12   2   1     1.104779567860   111.16892402   114.18154340
 H     13   3   1     1.104778779406   111.16888991   114.18166566
 H     12   2   1     1.103476411375   110.78680111   233.96717600
 H     13   3   1     1.103475868886   110.78681846   233.96727738

---------------------------
INTERNAL COORDINATES (A.U.)
---------------------------
 C      0   0   0     0.000000000000     0.00000000     0.00000000
 N      1   0   0     2.544972594496     0.00000000     0.00000000
 N      1   2   0     2.544971636148   119.38981526     0.00000000
 C      2   1   3     2.763156597320   129.26407827   341.49590559
 C      3   1   2     2.763157935320   129.26405999   341.49608271
 H      4   2   1     2.080666665105   108.30645637   221.93826695
 H      5   3   1     2.080667608130   108.30637920   221.93822572
 H      4   2   1     2.070689923888   111.05831614   339.60742561
 H      5   3   1     2.070689234279   111.05825059   339.60728558
 H      4   2   1     2.084131156991   113.13522041   102.71323324
 H      5   3   1     2.084130033505   113.13522712   102.71314065
 C      2   1   3     2.748097474848   117.25705930   172.54142716
 C      3   1   2     2.748096696221   117.25712097   172.54142686
 H     12   2   1     2.071280135189   109.08479612   353.65149257
 H     13   3   1     2.071281482104   109.08483315   353.65159568
 H     12   2   1     2.087730821607   111.16892402   114.18154340
 H     13   3   1     2.087729331644   111.16888991   114.18166566
 H     12   2   1     2.085268212741   110.78680111   233.96717600
 H     13   3   1     2.085267187586   110.78681846   233.96727738

---------------------
BASIS SET INFORMATION
---------------------
There are 3 groups of distinct atoms

 Group   1 Type C   : 11s6p2d1f contracted to 5s3p2d1f pattern {62111/411/11/1}
 Group   2 Type N   : 11s6p2d1f contracted to 5s3p2d1f pattern {62111/411/11/1}
 Group   3 Type H   : 5s1p contracted to 3s1p pattern {311/1}

Atom   0C    basis set group =>   1
Atom   1N    basis set group =>   2
Atom   2N    basis set group =>   2
Atom   3C    basis set group =>   1
Atom   4C    basis set group =>   1
Atom   5H    basis set group =>   3
Atom   6H    basis set group =>   3
Atom   7H    basis set group =>   3
Atom   8H    basis set group =>   3
Atom   9H    basis set group =>   3
Atom  10H    basis set group =>   3
Atom  11C    basis set group =>   1
Atom  12C    basis set group =>   1
Atom  13H    basis set group =>   3
Atom  14H    basis set group =>   3
Atom  15H    basis set group =>   3
Atom  16H    basis set group =>   3
Atom  17H    basis set group =>   3
Atom  18H    basis set group =>   3
---------------------------------
AUXILIARY/J BASIS SET INFORMATION
---------------------------------
There are 3 groups of distinct atoms

 Group   1 Type C   : 12s5p4d2f1g contracted to 6s4p3d1f1g pattern {711111/2111/211/2/1}
 Group   2 Type N   : 12s5p4d2f1g contracted to 6s4p3d1f1g pattern {711111/2111/211/2/1}
 Group   3 Type H   : 5s2p1d contracted to 3s1p1d pattern {311/2/1}

Atom   0C    basis set group =>   1
Atom   1N    basis set group =>   2
Atom   2N    basis set group =>   2
Atom   3C    basis set group =>   1
Atom   4C    basis set group =>   1
Atom   5H    basis set group =>   3
Atom   6H    basis set group =>   3
Atom   7H    basis set group =>   3
Atom   8H    basis set group =>   3
Atom   9H    basis set group =>   3
Atom  10H    basis set group =>   3
Atom  11C    basis set group =>   1
Atom  12C    basis set group =>   1
Atom  13H    basis set group =>   3
Atom  14H    basis set group =>   3
Atom  15H    basis set group =>   3
Atom  16H    basis set group =>   3
Atom  17H    basis set group =>   3
Atom  18H    basis set group =>   3


           ************************************************************
           *        Program running with 4 parallel MPI-processes     *
           *              working on a common directory               *
           ************************************************************
------------------------------------------------------------------------------
                           ORCA GTO INTEGRAL CALCULATION
                           -- RI-GTO INTEGRALS CHOSEN --
------------------------------------------------------------------------------
------------------------------------------------------------------------------
                   ___                                                        
                  /   \      - P O W E R E D   B Y -                         
                 /     \                                                     
                 |  |  |   _    _      __       _____    __    __             
                 |  |  |  | |  | |    /  \     |  _  \  |  |  /  |          
                  \  \/   | |  | |   /    \    | | | |  |  | /  /          
                 / \  \   | |__| |  /  /\  \   | |_| |  |  |/  /          
                |  |  |   |  __  | /  /__\  \  |    /   |      \           
                |  |  |   | |  | | |   __   |  |    \   |  |\   \          
                \     /   | |  | | |  |  |  |  | |\  \  |  | \   \       
                 \___/    |_|  |_| |__|  |__|  |_| \__\ |__|  \__/        
                                                                              
                      - O R C A' S   B I G   F R I E N D -                    
                                      &                                       
                       - I N T E G R A L  F E E D E R -                       
                                                                              
 v1 FN, 2020, v2 2021                                                         
------------------------------------------------------------------------------


Reading SHARK input file 11_deprot.SHARKINP.tmp ... ok
----------------------
SHARK INTEGRAL PACKAGE
----------------------

Number of atoms                             ...     19
Number of basis functions                   ...    289
Number of shells                            ...    125
Maximum angular momentum                    ...      3
Integral batch strategy                     ... SHARK/LIBINT Hybrid
RI-J (if used) integral strategy            ... SPLIT-RIJ (Revised 2003 algorithm where possible)
Printlevel                                  ...      1
Contraction scheme used                     ... SEGMENTED contraction
Coulomb Range Separation                    ... NOT USED
Exchange Range Separation                   ... Long Range
   Mu parameter                             ...  0.300000
   Scaling (regular/separated)              ...  0.157706  0.842294
Finite Nucleus Model                        ... NOT USED
Auxiliary Coulomb fitting basis             ... AVAILABLE
   # of basis functions in Aux-J            ...    475
   # of shells in Aux-J                     ...    165
   Maximum angular momentum in Aux-J        ...      4
Auxiliary J/K fitting basis                 ... NOT available
Auxiliary Correlation fitting basis         ... NOT available
Auxiliary 'external' fitting basis          ... NOT available
Integral threshold                          ...     2.500000e-11
Primitive cut-off                           ...     2.500000e-12
Primitive pair pre-selection threshold      ...     2.500000e-12

Calculating pre-screening integrals         ... done (  0.0 sec) Dimension = 125
Organizing shell pair data                  ... done (  0.1 sec)
Shell pair information
Total number of shell pairs                 ...      7875
Shell pairs after pre-screening             ...      7204
Total number of primitive shell pairs       ...     22768
Primitive shell pairs kept                  ...     15902
          la=0 lb=0:   2262 shell pairs
          la=1 lb=0:   2149 shell pairs
          la=1 lb=1:    517 shell pairs
          la=2 lb=0:    936 shell pairs
          la=2 lb=1:    436 shell pairs
          la=2 lb=2:    102 shell pairs
          la=3 lb=0:    457 shell pairs
          la=3 lb=1:    221 shell pairs
          la=3 lb=2:     96 shell pairs
          la=3 lb=3:     28 shell pairs

Calculating one electron integrals          ... done (  0.0 sec)
Calculating RI/J V-Matrix + Cholesky decomp.... done (  0.0 sec)
Calculating Nuclear repulsion               ... done (  0.0 sec) ENN=    320.834837978215 Eh

SHARK setup successfully completed in   0.3 seconds

Maximum memory used throughout the entire GTOINT-calculation: 20.4 MB


           ************************************************************
           *        Program running with 4 parallel MPI-processes     *
           *              working on a common directory               *
           ************************************************************
-------------------------------------------------------------------------------
                                 ORCA SCF
-------------------------------------------------------------------------------

------------
SCF SETTINGS
------------
Hamiltonian:
 Density Functional     Method          .... DFT(GTOs)
 Exchange Functional    Exchange        .... WB97X
 Correlation Functional Correlation     .... WB97X
 Gradients option       PostSCFGGA      .... off
 Hybrid DFT is turned on
   Fraction HF Exchange ScalHFX         ....  0.157706
   Scaling of DF-GGA-X  ScalDFX         ....  0.000000
   Scaling of DF-GGA-C  ScalDFC         ....  1.000000
   Scaling of DF-LDA-C  ScalLDAC        ....  1.000000
   Perturbative correction              ....  0.000000
   Density functional embedding theory  .... OFF
 Long-range corrected/Screened/Range-Separated Hybrid DFT is turned on
   Amount of maximum screened exact exchange              ....  0.842294
   Range separation parameter mu (erf(mu*r12)/r12)        ....  0.300000
 RI-approximation to the Coulomb term is turned on
   Number of AuxJ basis functions       .... 475
   RIJ-COSX (HFX calculated with COS-X)).... on


General Settings:
 Integral files         IntName         .... 11_deprot
 Hartree-Fock type      HFTyp           .... RHF
 Total Charge           Charge          ....    0
 Multiplicity           Mult            ....    1
 Number of Electrons    NEL             ....   56
 Basis Dimension        Dim             ....  289
 Nuclear Repulsion      ENuc            ....    320.8348379782 Eh

Convergence Acceleration:
 DIIS                   CNVDIIS         .... on
   Start iteration      DIISMaxIt       ....     0
   Startup error        DIISStart       ....  0.200000
   # of expansion vecs  DIISMaxEq       ....     5
   Bias factor          DIISBfac        ....   1.050
   Max. coefficient     DIISMaxC        ....  10.000
 Trust-Rad. Augm. Hess. CNVTRAH         .... auto
   Auto Start mean grad. ratio tolernc. ....  1.125000
   Auto Start start iteration           ....    20
   Auto Start num. interpolation iter.  ....    10
   Max. Number of Micro iterations      ....    16
   Max. Number of Macro iterations      .... Maxiter - #DIIS iter
   Number of Davidson start vectors     ....     2
   Converg. threshold I  (grad. norm)   ....   1.000e-05
   Converg. threshold II (energy diff.) ....   1.000e-08
   Grad. Scal. Fac. for Micro threshold ....   0.100
   Minimum threshold for Micro iter.    ....   0.010
   NR start threshold (gradient norm)   ....   0.001
   Initial trust radius                 ....   0.400
   Minimum AH scaling param. (alpha)    ....   1.000
   Maximum AH scaling param. (alpha)    .... 1000.000
   Orbital update algorithm             .... Taylor
   White noise on init. David. guess    .... on
   Maximum white noise                  ....   0.010
   Quad. conv. algorithm                .... NR
 SOSCF                  CNVSOSCF        .... on
   Start iteration      SOSCFMaxIt      ....   150
   Startup grad/error   SOSCFStart      ....  0.001000
 Level Shifting         CNVShift        .... on
   Level shift para.    LevelShift      ....    0.2500
   Turn off err/grad.   ShiftErr        ....    0.0000
 Zerner damping         CNVZerner       .... off
 Static damping         CNVDamp         .... on
   Fraction old density DampFac         ....    0.8500
   Max. Damping (<1)    DampMax         ....    0.9800
   Min. Damping (>=0)   DampMin         ....    0.0000
   Turn off err/grad.   DampErr         ....    0.0300
 Fernandez-Rico         CNVRico         .... off

SCF Procedure:
 Maximum # iterations   MaxIter         ....   125
 SCF integral mode      SCFMode         .... Direct
   Integral package                     .... SHARK and LIBINT hybrid scheme
 Reset frequency        DirectResetFreq ....    20
 Integral Threshold     Thresh          ....  2.500e-11 Eh
 Primitive CutOff       TCut            ....  2.500e-12 Eh

Convergence Tolerance:
 Convergence Check Mode ConvCheckMode   .... Total+1el-Energy
 Convergence forced     ConvForced      .... 0
 Energy Change          TolE            ....  1.000e-08 Eh
 1-El. energy change                    ....  1.000e-05 Eh
 Orbital Gradient       TolG            ....  1.000e-05
 Orbital Rotation angle TolX            ....  1.000e-05
 DIIS Error             TolErr          ....  5.000e-07


Diagonalization of the overlap matrix:
Smallest eigenvalue                        ... 4.002e-04
Time for diagonalization                   ...    0.012 sec
Threshold for overlap eigenvalues          ... 1.000e-08
Number of eigenvalues below threshold      ... 0
Time for construction of square roots      ...    0.006 sec
Total time needed                          ...    0.019 sec

Time for model grid setup =    0.098 sec

------------------------------
INITIAL GUESS: MODEL POTENTIAL
------------------------------
Loading Hartree-Fock densities                     ... done
Calculating cut-offs                               ... done
Initializing the effective Hamiltonian             ... done
Setting up the integral package (SHARK)            ... done
Starting the Coulomb interaction                   ... done (   0.1 sec)
Reading the grid                                   ... done
Mapping shells                                     ... done
Starting the XC term evaluation                    ... done (   0.1 sec)
  promolecular density results
     # of electrons  =     55.989589886
     EX              =    -42.167043121
     EC              =     -1.830442517
     EX+EC           =    -43.997485638
Transforming the Hamiltonian                       ... done (   0.0 sec)
Diagonalizing the Hamiltonian                      ... done (   0.0 sec)
Back transforming the eigenvectors                 ... done (   0.0 sec)
Now organizing SCF variables                       ... done
                      ------------------
                      INITIAL GUESS DONE (   0.4 sec)
                      ------------------
-------------------
DFT GRID GENERATION
-------------------

General Integration Accuracy     IntAcc      ... 4.388
Radial Grid Type                 RadialGrid  ... OptM3 with GC (2021)
Angular Grid (max. ang.)         AngularGrid ... 4 (Lebedev-302)
Angular grid pruning method      GridPruning ... 4 (adaptive)
Weight generation scheme         WeightScheme... Becke
Basis function cutoff            BFCut       ... 1.0000e-11
Integration weight cutoff        WCut        ... 1.0000e-14
Angular grids for H and He will be reduced by one unit
Partially contracted basis set               ... off
Rotationally invariant grid construction     ... off

Total number of grid points                  ...    80726
Total number of batches                      ...     1271
Average number of points per batch           ...       63
Average number of grid points per atom       ...     4249
Time for grid setup =    0.434 sec

--------------------
COSX GRID GENERATION
--------------------

GRIDX 1
-------
General Integration Accuracy     IntAcc      ... 3.816
Radial Grid Type                 RadialGrid  ... OptM3 with GC (2021)
Angular Grid (max. ang.)         AngularGrid ... 1 (Lebedev-50)
Angular grid pruning method      GridPruning ... 4 (adaptive)
Weight generation scheme         WeightScheme... Becke
Basis function cutoff            BFCut       ... 1.0000e-11
Integration weight cutoff        WCut        ... 1.0000e-14
Angular grids for H and He will be reduced by one unit
Partially contracted basis set               ... on
Rotationally invariant grid construction     ... off

Total number of grid points                  ...    10396
Total number of batches                      ...      174
Average number of points per batch           ...       59
Average number of grid points per atom       ...      547
UseSFitting                                  ... on

GRIDX 2
-------
General Integration Accuracy     IntAcc      ... 4.020
Radial Grid Type                 RadialGrid  ... OptM3 with GC (2021)
Angular Grid (max. ang.)         AngularGrid ... 2 (Lebedev-110)
Angular grid pruning method      GridPruning ... 4 (adaptive)
Weight generation scheme         WeightScheme... Becke
Basis function cutoff            BFCut       ... 1.0000e-11
Integration weight cutoff        WCut        ... 1.0000e-14
Angular grids for H and He will be reduced by one unit
Partially contracted basis set               ... on
Rotationally invariant grid construction     ... off

Total number of grid points                  ...    21670
Total number of batches                      ...      347
Average number of points per batch           ...       62
Average number of grid points per atom       ...     1141
UseSFitting                                  ... on

GRIDX 3
-------
General Integration Accuracy     IntAcc      ... 4.338
Radial Grid Type                 RadialGrid  ... OptM3 with GC (2021)
Angular Grid (max. ang.)         AngularGrid ... 3 (Lebedev-194)
Angular grid pruning method      GridPruning ... 4 (adaptive)
Weight generation scheme         WeightScheme... Becke
Basis function cutoff            BFCut       ... 1.0000e-11
Integration weight cutoff        WCut        ... 1.0000e-14
Angular grids for H and He will be reduced by one unit
Partially contracted basis set               ... on
Rotationally invariant grid construction     ... off

Total number of grid points                  ...    47341
Total number of batches                      ...      752
Average number of points per batch           ...       62
Average number of grid points per atom       ...     2492
UseSFitting                                  ... on

Time for X-Grid setup             =    0.503 sec


--------------------
CPCM SOLVATION MODEL
--------------------
CPCM parameters:
  Epsilon                                         ...      80.4000
  Refrac                                          ...       1.3300
  Rsolv                                           ...       1.3000
  Surface type                                    ... GAUSSIAN VDW
  Epsilon function type                           ...         CPCM
Radii:
 Radius for C  used is    3.8550 Bohr (=   2.0400 Ang.)
 Radius for N  used is    3.5149 Bohr (=   1.8600 Ang.)
 Radius for H  used is    2.4944 Bohr (=   1.3200 Ang.)
Calculating surface                               ...        done! (  0.0s)
GEPOL surface points                              ...         1045
GEPOL Volume                                      ...    1001.7158
GEPOL Surface-area                                ...     582.3159
Calculating surface distance matrix               ...        done! (  0.0s)
Performing Cholesky decomposition & store         ...        done! (  0.0s)
Overall time for CPCM initialization              ...                 0.0s
--------------
SCF ITERATIONS
--------------
ITER       Energy         Delta-E        Max-DP      RMS-DP      [F,P]     Damp
               ***  Starting incremental Fock matrix formation  ***
  0   -307.0445074216   0.000000000000 0.03084970  0.00038126  0.1450732 0.8500
  1   -307.0814336510  -0.036926229406 0.04165596  0.00040683  0.1176628 0.8500
                               ***Turning on DIIS***
  2   -307.1096311042  -0.028197453160 0.04049609  0.00035569  0.0911036 0.8500
  3   -307.1306057641  -0.020974659894 0.03462005  0.00027769  0.0696845 0.8500
  4   -307.1468087811  -0.016203017021 0.02957633  0.00022551  0.0557278 0.8500
  5   -307.1595926340  -0.012783852958 0.02582303  0.00019152  0.0461527 0.8500
  6   -307.1699967923  -0.010404158215 0.02286446  0.00016622  0.0388671 0.8500
  7   -307.1786157402  -0.008618947937 0.02061207  0.00014691  0.0329658 0.8500
  8   -307.1858316053  -0.007215865050 0.12375568  0.00086496  0.0279412 0.0000
  9   -307.2248731190  -0.039041513748 0.00673832  0.00004649  0.0014293 0.0000
                      *** Initiating the SOSCF procedure ***
                           *** Shutting down DIIS ***
                      *** Re-Reading the Fockian *** 
                      *** Removing any level shift *** 
ITER      Energy       Delta-E        Grad      Rot      Max-DP    RMS-DP
 10   -307.22489533  -0.0000222140  0.000392  0.000392  0.004589  0.000031
               *** Restarting incremental Fock matrix formation ***
 11   -307.22493935  -0.0000440171  0.000250  0.000467  0.004744  0.000033
 12   -307.22494124  -0.0000018936  0.000080  0.000346  0.003070  0.000024
 13   -307.22494168  -0.0000004401  0.000046  0.000074  0.000782  0.000006
 14   -307.22494176  -0.0000000760  0.000006  0.000011  0.000045  0.000001
 15   -307.22494176  -0.0000000020  0.000004  0.000006  0.000021  0.000000
                  ***Gradient check signals convergence***
              ***Rediagonalizing the Fockian in SOSCF/NRSCF***

               *****************************************************
               *                     SUCCESS                       *
               *           SCF CONVERGED AFTER  16 CYCLES          *
               *****************************************************

Old exchange energy                            =    -14.192558078 Eh
New exchange energy                            =    -14.192563081 Eh
Exchange energy change after final integration =     -0.000005003 Eh
Total energy after final integration           =   -307.224946769 Eh
Final COS-X integration done in                =    11.300 sec

----------------
TOTAL SCF ENERGY
----------------

Total Energy       :         -307.22494677 Eh           -8360.01582 eV

Components:
Nuclear Repulsion  :          320.83483798 Eh            8730.35978 eV
Electronic Energy  :         -628.05978475 Eh          -17090.37560 eV
One Electron Energy:        -1049.42309866 Eh          -28556.25429 eV
Two Electron Energy:          421.36331391 Eh           11465.87869 eV
Max COSX asymmetry :            0.00000352 Eh               0.00010 eV
CPCM Dielectric    :           -0.01496616 Eh              -0.40725 eV

Virial components:
Potential Energy   :         -612.85000105 Eh          -16676.49635 eV
Kinetic Energy     :          305.62505428 Eh            8316.48053 eV
Virial Ratio       :            2.00523482


DFT components:
N(Alpha)           :       28.000069631860 electrons
N(Beta)            :       28.000069631860 electrons
N(Total)           :       56.000139263720 electrons
E(XC)              :      -31.178532926054 Eh       
DFET-embed. en.    :        0.000000000000 Eh       
CPCM Solvation Model Properties:
Surface-charge          :           -0.02975406
Charge-correction       :           -0.00065394 Eh              -0.01779 eV
Free-energy (cav+disp)  :  This term is not implemented in the current solvation scheme

---------------
SCF CONVERGENCE
---------------

  Last Energy change         ...   -4.4779e-09  Tolerance :   1.0000e-08
  Last MAX-Density change    ...    1.6653e-15  Tolerance :   1.0000e-07
  Last RMS-Density change    ...    1.5611e-17  Tolerance :   5.0000e-09
  Last Orbital Gradient      ...    1.3245e-06  Tolerance :   1.0000e-05
  Last Orbital Rotation      ...    3.2336e-06  Tolerance :   1.0000e-05

             **** THE GBW FILE WAS UPDATED (11_deprot.gbw) ****
             **** DENSITY 11_deprot.scfp WAS UPDATED ****
             **** ENERGY FILE WAS UPDATED (11_deprot.en.tmp) ****
             **** THE GBW FILE WAS UPDATED (11_deprot.gbw) ****
             **** DENSITY 11_deprot.scfp WAS UPDATED ****
----------------
ORBITAL ENERGIES
----------------

  NO   OCC          E(Eh)            E(eV) 
   0   2.0000     -14.416082      -392.2815 
   1   2.0000     -14.416063      -392.2810 
   2   2.0000     -10.277128      -279.6549 
   3   2.0000     -10.277126      -279.6548 
   4   2.0000     -10.273926      -279.5677 
   5   2.0000     -10.271706      -279.5073 
   6   2.0000     -10.271704      -279.5073 
   7   2.0000      -1.096196       -29.8290 
   8   2.0000      -1.040720       -28.3194 
   9   2.0000      -0.849371       -23.1126 
  10   2.0000      -0.842131       -22.9155 
  11   2.0000      -0.828970       -22.5574 
  12   2.0000      -0.759686       -20.6721 
  13   2.0000      -0.660524       -17.9738 
  14   2.0000      -0.609457       -16.5842 
  15   2.0000      -0.586467       -15.9586 
  16   2.0000      -0.583398       -15.8751 
  17   2.0000      -0.562236       -15.2992 
  18   2.0000      -0.538288       -14.6476 
  19   2.0000      -0.524167       -14.2633 
  20   2.0000      -0.504980       -13.7412 
  21   2.0000      -0.493028       -13.4160 
  22   2.0000      -0.483150       -13.1472 
  23   2.0000      -0.477782       -13.0011 
  24   2.0000      -0.455362       -12.3910 
  25   2.0000      -0.413885       -11.2624 
  26   2.0000      -0.332998        -9.0613 
  27   2.0000      -0.291567        -7.9340 
  28   0.0000       0.107986         2.9384 
  29   0.0000       0.119280         3.2458 
  30   0.0000       0.144163         3.9229 
  31   0.0000       0.167605         4.5608 
  32   0.0000       0.176812         4.8113 
  33   0.0000       0.178531         4.8581 
  34   0.0000       0.191577         5.2131 
  35   0.0000       0.197272         5.3680 
  36   0.0000       0.197860         5.3840 
  37   0.0000       0.204962         5.5773 
  38   0.0000       0.215179         5.8553 
  39   0.0000       0.217475         5.9178 
  40   0.0000       0.225901         6.1471 
  41   0.0000       0.240699         6.5498 
  42   0.0000       0.243176         6.6172 
  43   0.0000       0.262485         7.1426 
  44   0.0000       0.271244         7.3809 
  45   0.0000       0.273777         7.4498 
  46   0.0000       0.296219         8.0605 
  47   0.0000       0.309184         8.4133 
  48   0.0000       0.314409         8.5555 
  49   0.0000       0.343096         9.3361 
  50   0.0000       0.354958         9.6589 
  51   0.0000       0.374967        10.2034 
  52   0.0000       0.380108        10.3433 
  53   0.0000       0.399693        10.8762 
  54   0.0000       0.406240        11.0544 
  55   0.0000       0.417897        11.3716 
  56   0.0000       0.419076        11.4036 
  57   0.0000       0.449383        12.2283 
  58   0.0000       0.452766        12.3204 
  59   0.0000       0.467934        12.7331 
  60   0.0000       0.479690        13.0530 
  61   0.0000       0.502785        13.6815 
  62   0.0000       0.505589        13.7578 
  63   0.0000       0.510147        13.8818 
  64   0.0000       0.517038        14.0693 
  65   0.0000       0.526942        14.3388 
  66   0.0000       0.542236        14.7550 
  67   0.0000       0.553317        15.0565 
  68   0.0000       0.568927        15.4813 
  69   0.0000       0.571484        15.5509 
  70   0.0000       0.581499        15.8234 
  71   0.0000       0.587326        15.9819 
  72   0.0000       0.595513        16.2047 
  73   0.0000       0.610422        16.6104 
  74   0.0000       0.613270        16.6879 
  75   0.0000       0.633164        17.2293 
  76   0.0000       0.633751        17.2452 
  77   0.0000       0.654115        17.7994 
  78   0.0000       0.671770        18.2798 
  79   0.0000       0.682761        18.5789 
  80   0.0000       0.683851        18.6085 
  81   0.0000       0.712926        19.3997 
  82   0.0000       0.715620        19.4730 
  83   0.0000       0.746502        20.3133 
  84   0.0000       0.765975        20.8432 
  85   0.0000       0.768099        20.9010 
  86   0.0000       0.814374        22.1602 
  87   0.0000       0.833495        22.6806 
  88   0.0000       0.836845        22.7717 
  89   0.0000       0.875471        23.8228 
  90   0.0000       0.949210        25.8293 
  91   0.0000       0.972883        26.4735 
  92   0.0000       0.976725        26.5780 
  93   0.0000       0.991873        26.9902 
  94   0.0000       0.993078        27.0230 
  95   0.0000       1.016953        27.6727 
  96   0.0000       1.023247        27.8440 
  97   0.0000       1.066234        29.0137 
  98   0.0000       1.077924        29.3318 
  99   0.0000       1.086051        29.5530 
 100   0.0000       1.122364        30.5411 
 101   0.0000       1.142687        31.0941 
 102   0.0000       1.159699        31.5570 
 103   0.0000       1.162405        31.6306 
 104   0.0000       1.179587        32.0982 
 105   0.0000       1.182190        32.1690 
 106   0.0000       1.195005        32.5177 
 107   0.0000       1.228915        33.4405 
 108   0.0000       1.253534        34.1104 
 109   0.0000       1.262318        34.3494 
 110   0.0000       1.336133        36.3580 
 111   0.0000       1.396093        37.9896 
 112   0.0000       1.491196        40.5775 
 113   0.0000       1.509867        41.0856 
 114   0.0000       1.513814        41.1930 
 115   0.0000       1.515748        41.2456 
 116   0.0000       1.557881        42.3921 
 117   0.0000       1.561180        42.4819 
 118   0.0000       1.599572        43.5266 
 119   0.0000       1.616947        43.9994 
 120   0.0000       1.622335        44.1460 
 121   0.0000       1.635118        44.4938 
 122   0.0000       1.641761        44.6746 
 123   0.0000       1.648326        44.8532 
 124   0.0000       1.651231        44.9323 
 125   0.0000       1.655063        45.0366 
 126   0.0000       1.658521        45.1306 
 127   0.0000       1.666026        45.3349 
 128   0.0000       1.677823        45.6559 
 129   0.0000       1.692157        46.0459 
 130   0.0000       1.708795        46.4987 
 131   0.0000       1.717329        46.7309 
 132   0.0000       1.745940        47.5094 
 133   0.0000       1.754447        47.7409 
 134   0.0000       1.771948        48.2172 
 135   0.0000       1.788630        48.6711 
 136   0.0000       1.791877        48.7595 
 137   0.0000       1.797187        48.9039 
 138   0.0000       1.797816        48.9211 
 139   0.0000       1.820233        49.5311 
 140   0.0000       1.893992        51.5382 
 141   0.0000       1.911181        52.0059 
 142   0.0000       1.973887        53.7122 
 143   0.0000       1.995713        54.3061 
 144   0.0000       2.019578        54.9555 
 145   0.0000       2.040752        55.5317 
 146   0.0000       2.046147        55.6785 
 147   0.0000       2.097766        57.0831 
 148   0.0000       2.106694        57.3261 
 149   0.0000       2.115345        57.5615 
 150   0.0000       2.124667        57.8151 
 151   0.0000       2.155391        58.6512 
 152   0.0000       2.208533        60.0972 
 153   0.0000       2.209115        60.1131 
 154   0.0000       2.232337        60.7450 
 155   0.0000       2.236677        60.8631 
 156   0.0000       2.289605        62.3033 
 157   0.0000       2.323550        63.2270 
 158   0.0000       2.342950        63.7549 
 159   0.0000       2.366883        64.4062 
 160   0.0000       2.375761        64.6478 
 161   0.0000       2.392140        65.0934 
 162   0.0000       2.406378        65.4809 
 163   0.0000       2.425746        66.0079 
 164   0.0000       2.443722        66.4971 
 165   0.0000       2.454761        66.7974 
 166   0.0000       2.460905        66.9646 
 167   0.0000       2.474650        67.3387 
 168   0.0000       2.497816        67.9690 
 169   0.0000       2.499595        68.0174 
 170   0.0000       2.515597        68.4529 
 171   0.0000       2.524067        68.6834 
 172   0.0000       2.560035        69.6621 
 173   0.0000       2.580755        70.2259 
 174   0.0000       2.609472        71.0073 
 175   0.0000       2.624838        71.4255 
 176   0.0000       2.637061        71.7581 
 177   0.0000       2.650544        72.1250 
 178   0.0000       2.650694        72.1290 
 179   0.0000       2.663899        72.4884 
 180   0.0000       2.669703        72.6463 
 181   0.0000       2.688957        73.1702 
 182   0.0000       2.709917        73.7406 
 183   0.0000       2.760327        75.1123 
 184   0.0000       2.778068        75.5951 
 185   0.0000       2.785942        75.8093 
 186   0.0000       2.800273        76.1993 
 187   0.0000       2.809259        76.4438 
 188   0.0000       2.842640        77.3522 
 189   0.0000       2.865811        77.9827 
 190   0.0000       2.902913        78.9923 
 191   0.0000       2.920792        79.4788 
 192   0.0000       2.949741        80.2665 
 193   0.0000       2.977106        81.0112 
 194   0.0000       3.075390        83.6856 
 195   0.0000       3.117498        84.8314 
 196   0.0000       3.119480        84.8854 
 197   0.0000       3.132840        85.2489 
 198   0.0000       3.154599        85.8410 
 199   0.0000       3.184404        86.6520 
 200   0.0000       3.212215        87.4088 
 201   0.0000       3.215346        87.4940 
 202   0.0000       3.221435        87.6597 
 203   0.0000       3.231852        87.9432 
 204   0.0000       3.278492        89.2123 
 205   0.0000       3.282725        89.3275 
 206   0.0000       3.297062        89.7176 
 207   0.0000       3.308421        90.0267 
 208   0.0000       3.341236        90.9197 
 209   0.0000       3.348904        91.1283 
 210   0.0000       3.349745        91.1512 
 211   0.0000       3.374606        91.8277 
 212   0.0000       3.406297        92.6901 
 213   0.0000       3.412426        92.8568 
 214   0.0000       3.417085        92.9836 
 215   0.0000       3.427381        93.2638 
 216   0.0000       3.442790        93.6831 
 217   0.0000       3.466174        94.3194 
 218   0.0000       3.469809        94.4183 
 219   0.0000       3.500504        95.2535 
 220   0.0000       3.508060        95.4592 
 221   0.0000       3.520548        95.7990 
 222   0.0000       3.546037        96.4926 
 223   0.0000       3.570131        97.1482 
 224   0.0000       3.606451        98.1365 
 225   0.0000       3.607130        98.1550 
 226   0.0000       3.647950        99.2658 
 227   0.0000       3.674700        99.9937 
 228   0.0000       3.689512       100.3967 
 229   0.0000       3.704482       100.8041 
 230   0.0000       3.717138       101.1485 
 231   0.0000       3.751138       102.0737 
 232   0.0000       3.762912       102.3941 
 233   0.0000       3.778785       102.8260 
 234   0.0000       3.817391       103.8765 
 235   0.0000       3.831500       104.2604 
 236   0.0000       3.863844       105.1405 
 237   0.0000       3.931389       106.9785 
 238   0.0000       3.964591       107.8820 
 239   0.0000       4.036838       109.8479 
 240   0.0000       4.065994       110.6413 
 241   0.0000       4.138138       112.6045 
 242   0.0000       4.194868       114.1482 
 243   0.0000       4.202307       114.3506 
 244   0.0000       4.217100       114.7531 
 245   0.0000       4.246544       115.5543 
 246   0.0000       4.281033       116.4928 
 247   0.0000       4.313673       117.3810 
 248   0.0000       4.350678       118.3880 
 249   0.0000       4.356072       118.5347 
 250   0.0000       4.387279       119.3839 
 251   0.0000       4.439037       120.7923 
 252   0.0000       4.443663       120.9182 
 253   0.0000       4.494973       122.3144 
 254   0.0000       4.521811       123.0447 
 255   0.0000       4.525734       123.1515 
 256   0.0000       4.538292       123.4932 
 257   0.0000       4.713358       128.2570 
 258   0.0000       4.920143       133.8839 
 259   0.0000       4.923086       133.9640 
 260   0.0000       5.002220       136.1173 
 261   0.0000       5.055947       137.5793 
 262   0.0000       5.175147       140.8229 
 263   0.0000       5.179060       140.9294 
 264   0.0000       5.202632       141.5708 
 265   0.0000       5.238551       142.5482 
 266   0.0000       5.258875       143.1013 
 267   0.0000       5.261752       143.1795 
 268   0.0000       5.277883       143.6185 
 269   0.0000       5.307707       144.4301 
 270   0.0000       5.391496       146.7101 
 271   0.0000       5.434422       147.8781 
 272   0.0000       5.450051       148.3034 
 273   0.0000       5.461613       148.6181 
 274   0.0000       5.658833       153.9847 
 275   0.0000       5.665924       154.1776 
 276   0.0000       5.786077       157.4472 
 277   0.0000       5.795511       157.7039 
 278   0.0000       5.925752       161.2479 
 279   0.0000       5.943499       161.7308 
 280   0.0000       5.995749       163.1526 
 281   0.0000       6.172209       167.9543 
 282   0.0000      22.400776       609.5561 
 283   0.0000      22.402489       609.6027 
 284   0.0000      22.496531       612.1617 
 285   0.0000      22.505391       612.4028 
 286   0.0000      22.798890       620.3893 
 287   0.0000      32.777370       891.9176 
 288   0.0000      32.781279       892.0240 

                    ********************************
                    * MULLIKEN POPULATION ANALYSIS *
                    ********************************

-----------------------
MULLIKEN ATOMIC CHARGES
-----------------------
   0 C :   -0.324439
   1 N :   -0.085454
   2 N :   -0.085459
   3 C :   -0.344865
   4 C :   -0.344860
   5 H :    0.147382
   6 H :    0.147383
   7 H :    0.156387
   8 H :    0.156387
   9 H :    0.157480
  10 H :    0.157479
  11 C :   -0.265522
  12 C :   -0.265522
  13 H :    0.129296
  14 H :    0.129297
  15 H :    0.131027
  16 H :    0.131027
  17 H :    0.136488
  18 H :    0.136488
Sum of atomic charges:    0.0000000

--------------------------------
MULLIKEN REDUCED ORBITAL CHARGES
--------------------------------
  0 C s       :     3.650836  s :     3.650836
      pz      :     1.257470  p :     2.543592
      px      :     0.621242
      py      :     0.664879
      dz2     :     0.012215  d :     0.115764
      dxz     :     0.016012
      dyz     :     0.031559
      dx2y2   :     0.005209
      dxy     :     0.050769
      f0      :     0.000923  f :     0.014247
      f+1     :     0.000055
      f-1     :     0.003543
      f+2     :     0.002005
      f-2     :     0.003550
      f+3     :     0.002800
      f-3     :     0.001371
  1 N s       :     3.409284  s :     3.409284
      pz      :     1.017016  p :     3.581411
      px      :     1.518997
      py      :     1.045399
      dz2     :     0.024180  d :     0.089642
      dxz     :     0.010849
      dyz     :     0.030211
      dx2y2   :     0.011599
      dxy     :     0.012802
      f0      :     0.000611  f :     0.005117
      f+1     :     0.000523
      f-1     :     0.001309
      f+2     :     0.000734
      f-2     :     0.000510
      f+3     :     0.000710
      f-3     :     0.000721
  2 N s       :     3.409284  s :     3.409284
      pz      :     1.017021  p :     3.581416
      px      :     1.518996
      py      :     1.045399
      dz2     :     0.024181  d :     0.089642
      dxz     :     0.010849
      dyz     :     0.030211
      dx2y2   :     0.011599
      dxy     :     0.012802
      f0      :     0.000611  f :     0.005117
      f+1     :     0.000523
      f-1     :     0.001309
      f+2     :     0.000734
      f-2     :     0.000510
      f+3     :     0.000710
      f-3     :     0.000721
  3 C s       :     3.306375  s :     3.306375
      pz      :     0.797988  p :     2.962489
      px      :     1.063909
      py      :     1.100592
      dz2     :     0.016099  d :     0.070907
      dxz     :     0.025786
      dyz     :     0.013383
      dx2y2   :     0.003394
      dxy     :     0.012244
      f0      :     0.001619  f :     0.005094
      f+1     :     0.001451
      f-1     :     0.001027
      f+2     :     0.000284
      f-2     :     0.000330
      f+3     :     0.000412
      f-3     :    -0.000028
  4 C s       :     3.306368  s :     3.306368
      pz      :     0.797987  p :     2.962490
      px      :     1.063911
      py      :     1.100592
      dz2     :     0.016099  d :     0.070907
      dxz     :     0.025786
      dyz     :     0.013383
      dx2y2   :     0.003394
      dxy     :     0.012244
      f0      :     0.001619  f :     0.005094
      f+1     :     0.001451
      f-1     :     0.001027
      f+2     :     0.000284
      f-2     :     0.000330
      f+3     :     0.000412
      f-3     :    -0.000028
  5 H s       :     0.830685  s :     0.830685
      pz      :     0.003418  p :     0.021933
      px      :     0.007060
      py      :     0.011455
  6 H s       :     0.830684  s :     0.830684
      pz      :     0.003418  p :     0.021933
      px      :     0.007060
      py      :     0.011455
  7 H s       :     0.821455  s :     0.821455
      pz      :     0.005042  p :     0.022158
      px      :     0.007468
      py      :     0.009648
  8 H s       :     0.821455  s :     0.821455
      pz      :     0.005043  p :     0.022158
      px      :     0.007468
      py      :     0.009648
  9 H s       :     0.821056  s :     0.821056
      pz      :     0.007351  p :     0.021464
      px      :     0.009984
      py      :     0.004129
 10 H s       :     0.821058  s :     0.821058
      pz      :     0.007351  p :     0.021464
      px      :     0.009984
      py      :     0.004129
 11 C s       :     3.284976  s :     3.284976
      pz      :     0.996182  p :     2.904140
      px      :     1.066238
      py      :     0.841720
      dz2     :     0.015164  d :     0.071102
      dxz     :     0.006811
      dyz     :     0.011399
      dx2y2   :     0.005880
      dxy     :     0.031847
      f0      :     0.000578  f :     0.005302
      f+1     :     0.000014
      f-1     :     0.001277
      f+2     :     0.000597
      f-2     :     0.001075
      f+3     :     0.000836
      f-3     :     0.000926
 12 C s       :     3.284979  s :     3.284979
      pz      :     0.996181  p :     2.904138
      px      :     1.066237
      py      :     0.841719
      dz2     :     0.015164  d :     0.071102
      dxz     :     0.006811
      dyz     :     0.011399
      dx2y2   :     0.005880
      dxy     :     0.031847
      f0      :     0.000578  f :     0.005302
      f+1     :     0.000014
      f-1     :     0.001277
      f+2     :     0.000597
      f-2     :     0.001075
      f+3     :     0.000836
      f-3     :     0.000926
 13 H s       :     0.848373  s :     0.848373
      pz      :     0.013890  p :     0.022331
      px      :     0.004401
      py      :     0.004040
 14 H s       :     0.848372  s :     0.848372
      pz      :     0.013890  p :     0.022331
      px      :     0.004401
      py      :     0.004040
 15 H s       :     0.847828  s :     0.847828
      pz      :     0.003568  p :     0.021145
      px      :     0.010521
      py      :     0.007056
 16 H s       :     0.847828  s :     0.847828
      pz      :     0.003568  p :     0.021145
      px      :     0.010521
      py      :     0.007056
 17 H s       :     0.842495  s :     0.842495
      pz      :     0.004618  p :     0.021017
      px      :     0.009775
      py      :     0.006624
 18 H s       :     0.842495  s :     0.842495
      pz      :     0.004618  p :     0.021017
      px      :     0.009775
      py      :     0.006624


                     *******************************
                     * LOEWDIN POPULATION ANALYSIS *
                     *******************************

----------------------
LOEWDIN ATOMIC CHARGES
----------------------
   0 C :   -0.430402
   1 N :    0.098581
   2 N :    0.098581
   3 C :   -0.298495
   4 C :   -0.298495
   5 H :    0.125093
   6 H :    0.125094
   7 H :    0.126847
   8 H :    0.126847
   9 H :    0.118935
  10 H :    0.118935
  11 C :   -0.304142
  12 C :   -0.304141
  13 H :    0.116809
  14 H :    0.116809
  15 H :    0.114462
  16 H :    0.114462
  17 H :    0.117111
  18 H :    0.117110

-------------------------------
LOEWDIN REDUCED ORBITAL CHARGES
-------------------------------
  0 C s       :     2.995057  s :     2.995057
      pz      :     1.323990  p :     2.830624
      px      :     0.636622
      py      :     0.870012
      dz2     :     0.074114  d :     0.522611
      dxz     :     0.026465
      dyz     :     0.142858
      dx2y2   :     0.115433
      dxy     :     0.163741
      f0      :     0.006345  f :     0.082111
      f+1     :     0.000116
      f-1     :     0.022923
      f+2     :     0.012975
      f-2     :     0.020922
      f+3     :     0.009558
      f-3     :     0.009272
  1 N s       :     2.893644  s :     2.893644
      pz      :     1.162347  p :     3.670613
      px      :     1.334234
      py      :     1.174032
      dz2     :     0.083848  d :     0.316427
      dxz     :     0.035223
      dyz     :     0.118564
      dx2y2   :     0.039508
      dxy     :     0.039284
      f0      :     0.002162  f :     0.020735
      f+1     :     0.001879
      f-1     :     0.007767
      f+2     :     0.002542
      f-2     :     0.002288
      f+3     :     0.001811
      f-3     :     0.002286
  2 N s       :     2.893644  s :     2.893644
      pz      :     1.162347  p :     3.670613
      px      :     1.334233
      py      :     1.174032
      dz2     :     0.083848  d :     0.316427
      dxz     :     0.035223
      dyz     :     0.118564
      dx2y2   :     0.039508
      dxy     :     0.039284
      f0      :     0.002162  f :     0.020735
      f+1     :     0.001879
      f-1     :     0.007767
      f+2     :     0.002542
      f-2     :     0.002288
      f+3     :     0.001811
      f-3     :     0.002287
  3 C s       :     2.838545  s :     2.838545
      pz      :     0.921821  p :     3.096641
      px      :     1.086633
      py      :     1.088188
      dz2     :     0.088947  d :     0.325044
      dxz     :     0.108553
      dyz     :     0.057572
      dx2y2   :     0.017232
      dxy     :     0.052740
      f0      :     0.010493  f :     0.038265
      f+1     :     0.007911
      f-1     :     0.008667
      f+2     :     0.005148
      f-2     :     0.002573
      f+3     :     0.002800
      f-3     :     0.000673
  4 C s       :     2.838545  s :     2.838545
      pz      :     0.921820  p :     3.096641
      px      :     1.086633
      py      :     1.088188
      dz2     :     0.088947  d :     0.325044
      dxz     :     0.108553
      dyz     :     0.057572
      dx2y2   :     0.017232
      dxy     :     0.052740
      f0      :     0.010493  f :     0.038265
      f+1     :     0.007911
      f-1     :     0.008667
      f+2     :     0.005148
      f-2     :     0.002573
      f+3     :     0.002800
      f-3     :     0.000673
  5 H s       :     0.814781  s :     0.814781
      pz      :     0.009584  p :     0.060126
      px      :     0.020028
      py      :     0.030514
  6 H s       :     0.814781  s :     0.814781
      pz      :     0.009584  p :     0.060126
      px      :     0.020028
      py      :     0.030514
  7 H s       :     0.811277  s :     0.811277
      pz      :     0.013503  p :     0.061876
      px      :     0.021295
      py      :     0.027078
  8 H s       :     0.811277  s :     0.811277
      pz      :     0.013503  p :     0.061876
      px      :     0.021295
      py      :     0.027078
  9 H s       :     0.820650  s :     0.820650
      pz      :     0.019323  p :     0.060414
      px      :     0.027783
      py      :     0.013308
 10 H s       :     0.820651  s :     0.820651
      pz      :     0.019323  p :     0.060414
      px      :     0.027783
      py      :     0.013308
 11 C s       :     2.843528  s :     2.843528
      pz      :     1.040315  p :     3.091626
      px      :     1.089641
      py      :     0.961669
      dz2     :     0.077970  d :     0.329738
      dxz     :     0.024858
      dyz     :     0.062857
      dx2y2   :     0.038935
      dxy     :     0.125119
      f0      :     0.003495  f :     0.039250
      f+1     :     0.001926
      f-1     :     0.007943
      f+2     :     0.007419
      f-2     :     0.007649
      f+3     :     0.004637
      f-3     :     0.006181
 12 C s       :     2.843528  s :     2.843528
      pz      :     1.040315  p :     3.091625
      px      :     1.089641
      py      :     0.961669
      dz2     :     0.077970  d :     0.329738
      dxz     :     0.024858
      dyz     :     0.062857
      dx2y2   :     0.038935
      dxy     :     0.125119
      f0      :     0.003495  f :     0.039250
      f+1     :     0.001926
      f-1     :     0.007943
      f+2     :     0.007419
      f-2     :     0.007649
      f+3     :     0.004637
      f-3     :     0.006181
 13 H s       :     0.822089  s :     0.822089
      pz      :     0.035512  p :     0.061103
      px      :     0.013762
      py      :     0.011829
 14 H s       :     0.822088  s :     0.822088
      pz      :     0.035511  p :     0.061103
      px      :     0.013762
      py      :     0.011829
 15 H s       :     0.826268  s :     0.826268
      pz      :     0.011622  p :     0.059270
      px      :     0.029024
      py      :     0.018623
 16 H s       :     0.826268  s :     0.826268
      pz      :     0.011622  p :     0.059270
      px      :     0.029024
      py      :     0.018623
 17 H s       :     0.823573  s :     0.823573
      pz      :     0.014790  p :     0.059317
      px      :     0.026907
      py      :     0.017619
 18 H s       :     0.823573  s :     0.823573
      pz      :     0.014790  p :     0.059317
      px      :     0.026907
      py      :     0.017619


                      *****************************
                      * MAYER POPULATION ANALYSIS *
                      *****************************

  NA   - Mulliken gross atomic population
  ZA   - Total nuclear charge
  QA   - Mulliken gross atomic charge
  VA   - Mayer's total valence
  BVA  - Mayer's bonded valence
  FA   - Mayer's free valence

  ATOM       NA         ZA         QA         VA         BVA        FA
  0 C      6.3244     6.0000    -0.3244     2.5837     2.5837     0.0000
  1 N      7.0855     7.0000    -0.0855     2.9950     2.9950     0.0000
  2 N      7.0855     7.0000    -0.0855     2.9950     2.9950     0.0000
  3 C      6.3449     6.0000    -0.3449     3.8569     3.8569    -0.0000
  4 C      6.3449     6.0000    -0.3449     3.8569     3.8569     0.0000
  5 H      0.8526     1.0000     0.1474     0.9633     0.9633     0.0000
  6 H      0.8526     1.0000     0.1474     0.9633     0.9633    -0.0000
  7 H      0.8436     1.0000     0.1564     0.9459     0.9459    -0.0000
  8 H      0.8436     1.0000     0.1564     0.9459     0.9459     0.0000
  9 H      0.8425     1.0000     0.1575     0.9518     0.9518     0.0000
 10 H      0.8425     1.0000     0.1575     0.9518     0.9518    -0.0000
 11 C      6.2655     6.0000    -0.2655     3.8106     3.8106    -0.0000
 12 C      6.2655     6.0000    -0.2655     3.8106     3.8106     0.0000
 13 H      0.8707     1.0000     0.1293     0.9964     0.9964    -0.0000
 14 H      0.8707     1.0000     0.1293     0.9964     0.9964     0.0000
 15 H      0.8690     1.0000     0.1310     0.9608     0.9608    -0.0000
 16 H      0.8690     1.0000     0.1310     0.9608     0.9608     0.0000
 17 H      0.8635     1.0000     0.1365     0.9544     0.9544    -0.0000
 18 H      0.8635     1.0000     0.1365     0.9544     0.9544    -0.0000

  Mayer bond orders larger than 0.100000
B(  0-C ,  1-N ) :   1.2236 B(  0-C ,  2-N ) :   1.2236 B(  1-N ,  3-C ) :   0.8848 
B(  1-N , 11-C ) :   0.9160 B(  2-N ,  4-C ) :   0.8848 B(  2-N , 12-C ) :   0.9160 
B(  3-C ,  5-H ) :   0.9692 B(  3-C ,  7-H ) :   0.9669 B(  3-C ,  9-H ) :   0.9699 
B(  4-C ,  6-H ) :   0.9692 B(  4-C ,  8-H ) :   0.9669 B(  4-C , 10-H ) :   0.9699 
B( 11-C , 13-H ) :   0.9749 B( 11-C , 15-H ) :   0.9721 B( 11-C , 17-H ) :   0.9670 
B( 12-C , 14-H ) :   0.9749 B( 12-C , 16-H ) :   0.9721 B( 12-C , 18-H ) :   0.9670 


-------
TIMINGS
-------

Total SCF time: 0 days 0 hours 1 min 27 sec 

Total time                  ....      87.352 sec
Sum of individual times     ....      86.893 sec  ( 99.5%)

Fock matrix formation       ....      85.198 sec  ( 97.5%)
  Split-RI-J                ....       3.562 sec  (  4.2% of F)
  Chain of spheres X        ....      66.604 sec  ( 78.2% of F)
  XC integration            ....       7.984 sec  (  9.4% of F)
    Basis function eval.    ....       2.048 sec  ( 25.7% of XC)
    Density eval.           ....       1.900 sec  ( 23.8% of XC)
    XC-Functional eval.     ....       0.597 sec  (  7.5% of XC)
    XC-Potential eval.      ....       2.579 sec  ( 32.3% of XC)
Diagonalization             ....       0.175 sec  (  0.2%)
Density matrix formation    ....       0.013 sec  (  0.0%)
Population analysis         ....       0.020 sec  (  0.0%)
Initial guess               ....       0.254 sec  (  0.3%)
Orbital Transformation      ....       0.000 sec  (  0.0%)
Orbital Orthonormalization  ....       0.000 sec  (  0.0%)
DIIS solution               ....       0.111 sec  (  0.1%)
SOSCF solution              ....       0.086 sec  (  0.1%)
Grid generation             ....       1.035 sec  (  1.2%)

Maximum memory used throughout the entire SCF-calculation: 79.7 MB


-------------------------------------------------------------------------------
                          DFT DISPERSION CORRECTION                            
                                                                               
                                 DFTD4 V2.5                                    
-------------------------------------------------------------------------------
The WB97X functional is recognized
Active option DFTDOPT                   ...         5   

Starting D4
-------------------------   ----------------
Dispersion correction           -0.002175900
-------------------------   ----------------


-------------------------   --------------------
FINAL SINGLE POINT ENERGY      -307.227122669367
-------------------------   --------------------



           ************************************************************
           *        Program running with 4 parallel MPI-processes     *
           *              working on a common directory               *
           ************************************************************
------------------------------------------------------------------------------
                         ORCA SCF GRADIENT CALCULATION
------------------------------------------------------------------------------

 ... reading COSX grid (gridx3)
Gradient of the Kohn-Sham DFT energy:
Kohn-Sham wavefunction type      ... RKS
Hartree-Fock exchange scaling    ...    0.158
Number of operators              ...    1
Number of atoms                  ...   19
Basis set dimensions             ...  289
Integral neglect threshold       ... 2.5e-11
Integral primitive cutoff        ... 2.5e-12
SHARK Integral package           ... ON

Nuc. rep. gradient       (SHARK) ... done (  0.0 sec)
HCore & Overlap gradient (SHARK) ... done (  0.2 sec)
RI-J gradient            (SHARK) ... done (  0.8 sec)
COSX-gradient                    ... done ( 12.8 sec)
Exchange-correlation gradient    ... done
Dispersion correction            ... Starting D4


------------------- 
Dispersion Gradient 
------------------- 
   1  :    0.000000000    0.000000000    0.000009698
   2  :   -0.000000294    0.000018100   -0.000000183
   3  :    0.000000294   -0.000018100   -0.000000183
   4  :    0.000008027    0.000025337   -0.000032517
   5  :   -0.000008027   -0.000025337   -0.000032517
   6  :    0.000000052    0.000005775   -0.000000801
   7  :   -0.000000052   -0.000005775   -0.000000801
   8  :   -0.000001091    0.000006605    0.000000672
   9  :    0.000001091   -0.000006605    0.000000672
  10  :    0.000002127    0.000006639   -0.000000601
  11  :   -0.000002127   -0.000006639   -0.000000601
  12  :   -0.000003000    0.000046306    0.000018868
  13  :    0.000003000   -0.000046306    0.000018868
  14  :   -0.000000333    0.000009274    0.000002621
  15  :    0.000000333   -0.000009274    0.000002621
  16  :   -0.000001471    0.000006657    0.000003283
  17  :    0.000001471   -0.000006657    0.000003283
  18  :    0.000000650    0.000007044    0.000003808
  19  :   -0.000000650   -0.000007044    0.000003808

  |G| =    0.000083627

Starting D4
Starting D4
Starting D4
done

------------------
CARTESIAN GRADIENT
------------------

   1   C   :    0.000000015   -0.000000151    0.006048379
   2   N   :    0.000698187    0.003377081   -0.002383440
   3   N   :   -0.000698270   -0.003377071   -0.002382726
   4   C   :   -0.002811063   -0.001027362    0.006678073
   5   C   :    0.002811466    0.001027649    0.006677292
   6   H   :    0.003309889    0.004933393   -0.000858270
   7   H   :   -0.003310115   -0.004933607   -0.000858083
   8   H   :    0.003780675   -0.004275973   -0.002521396
   9   H   :   -0.003780571    0.004275792   -0.002521250
  10   H   :   -0.004579644    0.000934299   -0.004409895
  11   H   :    0.004579446   -0.000934216   -0.004409659
  12   C   :    0.000805695   -0.005223055   -0.004064874
  13   C   :   -0.000805898    0.005222808   -0.004065566
  14   H   :   -0.001146708   -0.001653195    0.006005520
  15   H   :    0.001146831    0.001653223    0.006005964
  16   H   :    0.004683374    0.003981204    0.000254532
  17   H   :   -0.004682993   -0.003980905    0.000254432
  18   H   :   -0.004491420    0.003764803   -0.001664298
  19   H   :    0.004491165   -0.003764667   -0.001664164

Difference to translation invariance:
           :    0.0000000611    0.0000000502    0.0001205706

Difference to rotation invariance:
           :   -0.0000002005   -0.0000001776    0.0008938047

Norm of the cartesian gradient     ...    0.0270259688
[...]
     51       0.213552  -0.115865  -0.138496  -0.291270  -0.289408  -0.020266
     52       0.275108  -0.175498  -0.281056   0.199548   0.199076   0.014421
     53      -0.002996  -0.012521  -0.136320  -0.153182  -0.151758  -0.010184
     54      -0.213667   0.115866  -0.138495  -0.291255   0.289415  -0.020269
     55      -0.275270   0.175499  -0.281052   0.199538  -0.199083   0.014423
     56      -0.002957  -0.012523   0.136320   0.153174  -0.151762   0.010185
                 48         49         50         51         52         53    
      0      -0.000000  -0.000002  -0.000566  -0.000000   0.000516  -0.000191
      1       0.000000  -0.000001  -0.000348  -0.000000   0.000249   0.001163
      2      -0.000948  -0.000099   0.000000   0.000307   0.000000   0.000000
      3      -0.000621   0.000189   0.000187  -0.000240  -0.000216   0.000132
      4      -0.000611  -0.000110  -0.000189   0.000010   0.000060   0.000544
      5       0.000871   0.000050   0.000034   0.000077   0.000226  -0.000533
      6       0.000621  -0.000188   0.000188   0.000240  -0.000216   0.000133
      7       0.000611   0.000109  -0.000190  -0.000010   0.000060   0.000546
      8       0.000871   0.000049  -0.000034   0.000077  -0.000226   0.000533
      9       0.005673  -0.004959  -0.003808   0.056012   0.052998   0.003927
     10      -0.019375  -0.002745  -0.002255   0.028508   0.033689  -0.003551
     11       0.031975  -0.001240  -0.001047   0.019025   0.019982  -0.000074
     12      -0.005673   0.004936  -0.003838  -0.056015   0.052994   0.003930
     13       0.019374   0.002732  -0.002271  -0.028510   0.033687  -0.003552
     14       0.031973  -0.001234   0.001054   0.019026  -0.019980   0.000074
     15       0.223574   0.029198   0.023582  -0.288472  -0.300011   0.000251
     16       0.333562   0.045898   0.037046  -0.459637  -0.473760  -0.000248
     17       0.000779  -0.001685  -0.001697   0.004011   0.004516   0.001255
     18      -0.223565  -0.029059   0.023755   0.288490  -0.299992   0.000244
     19      -0.333548  -0.045680   0.037318   0.459667  -0.473731  -0.000258
     20       0.000779  -0.001675   0.001707   0.004011  -0.004515  -0.001258
     21       0.128763   0.004949   0.002797  -0.029415   0.003893  -0.029796
     22      -0.168413  -0.007350  -0.004148   0.062163   0.012609   0.040156
     23      -0.071529  -0.003551  -0.001997   0.029475   0.008448   0.017763
     24      -0.128757  -0.004932   0.002826   0.029415   0.003894  -0.029811
     25       0.168405   0.007325  -0.004191  -0.062164   0.012606   0.040175
     26      -0.071525  -0.003540   0.002018   0.029475  -0.008446  -0.017771
     27      -0.418572   0.025124   0.020322  -0.343822  -0.332192  -0.019483
     28       0.058483  -0.004391  -0.003531   0.061270   0.059877   0.002090
     29      -0.315368   0.021316   0.017612  -0.263298  -0.253239  -0.014945
     30       0.418553  -0.025004   0.020471   0.343842  -0.332171  -0.019499
     31      -0.058480   0.004370  -0.003557  -0.061273   0.059873   0.002092
     32      -0.315355   0.021212  -0.017738  -0.263314   0.253223   0.014956
     33      -0.000277  -0.063594  -0.063301  -0.006123  -0.005185   0.012927
     34      -0.005258   0.005915   0.006028   0.000089  -0.000253   0.024478
     35      -0.000647  -0.014277  -0.014186   0.000010   0.000388  -0.057730
     36       0.000277   0.063220  -0.063674   0.006124  -0.005185   0.012951
     37       0.005258  -0.005880   0.006063  -0.000089  -0.000253   0.024522
     38      -0.000647  -0.014193   0.014269   0.000010  -0.000388   0.057835
     39      -0.006606   0.000617   0.000784   0.002322   0.002527  -0.158207
     40      -0.005888   0.012702   0.012774   0.003472   0.003769  -0.155374
     41       0.028242  -0.051007  -0.051510  -0.017868  -0.018216   0.631624
     42       0.006606  -0.000614   0.000789  -0.002322   0.002527  -0.158496
     43       0.005888  -0.012628   0.012849  -0.003472   0.003769  -0.155656
     44       0.028241  -0.050705   0.051813  -0.017869   0.018215  -0.632773
     45       0.058066   0.341604   0.338803   0.032161   0.027743  -0.116731
     46       0.038411   0.228412   0.226473   0.019711   0.016743  -0.069762
     47       0.000340  -0.013569  -0.013567  -0.002930  -0.002651  -0.003499
     48      -0.058066  -0.339599   0.340806  -0.032164   0.027742  -0.116945
     49      -0.038411  -0.227070   0.227812  -0.019713   0.016742  -0.069889
     50       0.000340  -0.013488   0.013646  -0.002930   0.002651   0.003506
     51      -0.044185   0.415109   0.414127   0.036548   0.028247   0.122443
     52       0.031696  -0.309706  -0.308874  -0.026238  -0.019972  -0.080707
     53      -0.022202   0.233291   0.232615   0.020907   0.016313   0.058407
     54       0.044184  -0.412662   0.416567  -0.036551   0.028246   0.122667
     55      -0.031695   0.307883  -0.310697   0.026240  -0.019972  -0.080855
     56      -0.022201   0.231917  -0.233987   0.020908  -0.016313  -0.058514
                 54         55         56    
      0      -0.000000   0.000166   0.000000
      1       0.000001   0.000206   0.000000
      2      -0.000068  -0.000000   0.000509
      3       0.000095   0.000187   0.000303
      4       0.000733   0.000117   0.000372
      5      -0.000186  -0.000348  -0.000288
      6      -0.000094   0.000187  -0.000303
      7      -0.000732   0.000117  -0.000372
      8      -0.000185   0.000348  -0.000288
      9       0.001740  -0.035734  -0.031268
     10      -0.000856   0.053140   0.054521
     11       0.000307   0.009588   0.012789
     12      -0.001732  -0.035737   0.031264
     13       0.000849   0.053145  -0.054515
     14       0.000308  -0.009590   0.012788
     15      -0.003461  -0.090151  -0.108406
     16      -0.004885  -0.122179  -0.153394
     17       0.001665   0.000326  -0.001451
     18       0.003463  -0.090162   0.108397
     19       0.004887  -0.122196   0.153381
     20       0.001663  -0.000325  -0.001451
     21      -0.010215   0.366803   0.372986
     22       0.013163  -0.500643  -0.506308
     23       0.005659  -0.223021  -0.223747
     24       0.010154   0.366843  -0.372948
     25      -0.013081  -0.500697   0.506255
     26       0.005623   0.223044  -0.223723
     27      -0.009191   0.147275   0.094111
     28       0.001147  -0.009023  -0.006146
     29      -0.006789   0.113078   0.077073
     30       0.009153   0.147285  -0.094096
     31      -0.001143  -0.009023   0.006145
     32      -0.006760  -0.113086   0.077061
     33       0.013045   0.001151   0.000180
     34       0.024643   0.001801   0.000338
     35      -0.057993  -0.004712  -0.001564
     36      -0.013021   0.001151  -0.000180
     37      -0.024598   0.001801  -0.000337
     38      -0.057889   0.004711  -0.001563
     39      -0.158902  -0.012774  -0.004126
     40      -0.156034  -0.012391  -0.003739
     41       0.634460   0.050465   0.015151
     42       0.158616  -0.012771   0.004123
     43       0.155752  -0.012389   0.003736
     44       0.633314  -0.050455   0.015140
     45      -0.117966  -0.011817  -0.002958
     46      -0.070503  -0.007493  -0.002045
     47      -0.003455  -0.000736  -0.000710
     48       0.117754  -0.011815   0.002956
     49       0.070376  -0.007492   0.002044
     50      -0.003449   0.000736  -0.000710
     51       0.123247   0.009142   0.003094
     52      -0.081216  -0.005777  -0.001836
     53       0.058814   0.003609   0.000908
     54      -0.123026   0.009140  -0.003092
     55       0.081071  -0.005776   0.001835
     56       0.058709  -0.003608   0.000908


-----------
IR SPECTRUM
-----------

 Mode   freq       eps      Int      T**2         TX        TY        TZ
       cm**-1   L/(mol*cm) km/mol    a.u.
----------------------------------------------------------------------------
  6:     79.65   0.000009    0.05  0.000036  ( 0.000000  0.000000  0.006003)
  7:    154.32   0.002326   11.75  0.004703  ( 0.068128 -0.007855 -0.000000)
  8:    180.57   0.000032    0.16  0.000055  (-0.000004 -0.000000 -0.007433)
  9:    209.52   0.000058    0.29  0.000087  ( 0.000001  0.000001 -0.009313)
 10:    223.00   0.001921    9.71  0.002689  ( 0.051139  0.008582  0.000000)
 11:    266.00   0.001588    8.02  0.001863  ( 0.037464 -0.021432 -0.000000)
 12:    288.05   0.001253    6.33  0.001357  (-0.000000 -0.000000 -0.036840)
 13:    324.73   0.000001    0.00  0.000001  (-0.000000  0.000000  0.000738)
 14:    352.17   0.005565   28.12  0.004931  (-0.024823  0.065689 -0.000000)
 15:    427.48   0.004552   23.00  0.003323  ( 0.030202  0.049098 -0.000000)
 16:    434.48   0.000008    0.04  0.000005  ( 0.000000  0.000000 -0.002337)
 17:    504.51   0.000681    3.44  0.000421  ( 0.008403 -0.018732  0.000000)
 18:    618.27   0.000477    2.41  0.000241  (-0.000000  0.000000  0.015517)
 19:    880.22   0.002443   12.35  0.000866  ( 0.000000 -0.000000  0.029432)
 20:    905.03   0.007385   37.32  0.002547  (-0.008229 -0.049788  0.000000)
 21:   1072.70   0.002228   11.26  0.000648  (-0.000000  0.000001  0.025460)
 22:   1074.74   0.001667    8.42  0.000484  ( 0.003426 -0.021730  0.000001)
 23:   1099.23   0.000016    0.08  0.000004  ( 0.000000 -0.000000  0.002106)
 24:   1122.00   0.000483    2.44  0.000134  ( 0.011551 -0.000965 -0.000000)
 25:   1124.71   0.000941    4.76  0.000261  (-0.000000  0.000000  0.016159)
 26:   1163.94   0.020211  102.14  0.005419  (-0.010727 -0.072827  0.000000)
 27:   1170.40   0.000130    0.66  0.000035  ( 0.000000 -0.000002  0.005897)
 28:   1174.96   0.016543   83.60  0.004394  ( 0.013890 -0.064814 -0.000000)
 29:   1251.06   0.000194    0.98  0.000048  ( 0.002149 -0.006617  0.000000)
 30:   1319.61   0.007953   40.19  0.001881  (-0.000000  0.000000  0.043367)
 31:   1416.27   0.000371    1.87  0.000082  (-0.000000 -0.000005 -0.009040)
 32:   1420.17   0.063815  322.50  0.014023  ( 0.005728  0.118278 -0.000000)
 33:   1439.32   0.000694    3.51  0.000150  ( 0.009071 -0.008256 -0.000000)
 34:   1442.02   0.000053    0.27  0.000011  ( 0.000000 -0.000000  0.003382)
 35:   1466.19   0.000166    0.84  0.000035  (-0.000000 -0.000000 -0.005938)
 36:   1475.88   0.000130    0.66  0.000028  (-0.005215 -0.000605  0.000000)
 37:   1483.13   0.000474    2.39  0.000100  ( 0.000001 -0.000001 -0.009983)
 38:   1483.62   0.009317   47.09  0.001960  ( 0.034831 -0.027323  0.000001)
 39:   1492.46   0.004552   23.00  0.000952  (-0.019211 -0.024140  0.000002)
 40:   1493.36   0.002016   10.19  0.000421  ( 0.000003  0.000003  0.020525)
 41:   1505.84   0.005753   29.07  0.001192  (-0.034505  0.001289  0.000037)
 42:   1505.87   0.003311   16.73  0.000686  (-0.000048  0.000001 -0.026195)
 43:   1530.88   0.000927    4.69  0.000189  (-0.000000  0.000001  0.013749)
 44:   1574.92   0.096617  488.26  0.019144  (-0.011196 -0.137909  0.000000)
 45:   3041.72   0.037908  191.57  0.003889  (-0.008435 -0.061790 -0.000000)
 46:   3043.51   0.002232   11.28  0.000229  ( 0.000000  0.000001 -0.015127)
 47:   3063.02   0.009225   46.62  0.000940  (-0.001899 -0.030598 -0.000001)
 48:   3067.24   0.016192   81.83  0.001647  (-0.000000 -0.000001  0.040588)
 49:   3103.06   0.000986    4.98  0.000099  (-0.000138  0.000006 -0.009957)
 50:   3103.13   0.021848  110.41  0.002197  (-0.046818  0.002268  0.000029)
 51:   3127.06   0.001341    6.78  0.000134  (-0.000001 -0.000001  0.011569)
 52:   3129.47   0.010629   53.72  0.001060  ( 0.026518  0.018887  0.000000)
 53:   3190.00   0.001517    7.66  0.000148  ( 0.008555  0.008671  0.000020)
 54:   3190.09   0.004983   25.18  0.000487  ( 0.000008  0.000008 -0.022078)
 55:   3194.54   0.006791   34.32  0.000663  (-0.016188  0.020033 -0.000001)
 56:   3197.22   0.000314    1.58  0.000031  (-0.000001  0.000001  0.005532)

* The epsilon (eps) is given for a Dirac delta lineshape.
** The dipole moment derivative (T) already includes vibrational overlap.

The first frequency considered to be a vibration is 6
The total number of vibrations considered is 51


--------------------------
THERMOCHEMISTRY AT 298.15K
--------------------------

Temperature         ... 298.15 K
Pressure            ... 1.00 atm
Total Mass          ... 100.16 AMU

Throughout the following assumptions are being made:
  (1) The electronic state is orbitally nondegenerate
  (2) There are no thermally accessible electronically excited states
  (3) Hindered rotations indicated by low frequency modes are not
      treated as such but are treated as vibrations and this may
      cause some error
  (4) All equations used are the standard statistical mechanics
      equations for an ideal gas
  (5) All vibrations are strictly harmonic

freq.      79.65  E(vib)   ...       0.49 
freq.     154.32  E(vib)   ...       0.40 
freq.     180.57  E(vib)   ...       0.37 
freq.     209.52  E(vib)   ...       0.34 
freq.     223.00  E(vib)   ...       0.33 
freq.     266.00  E(vib)   ...       0.29 
freq.     288.05  E(vib)   ...       0.27 
freq.     324.73  E(vib)   ...       0.24 
freq.     352.17  E(vib)   ...       0.23 
freq.     427.48  E(vib)   ...       0.18 
freq.     434.48  E(vib)   ...       0.17 
freq.     504.51  E(vib)   ...       0.14 
freq.     618.27  E(vib)   ...       0.09 
freq.     880.22  E(vib)   ...       0.04 
freq.     905.03  E(vib)   ...       0.03 
freq.    1072.70  E(vib)   ...       0.02 
freq.    1074.74  E(vib)   ...       0.02 
freq.    1099.23  E(vib)   ...       0.02 
freq.    1122.00  E(vib)   ...       0.01 
freq.    1124.71  E(vib)   ...       0.01 
freq.    1163.94  E(vib)   ...       0.01 
freq.    1170.40  E(vib)   ...       0.01 
freq.    1174.96  E(vib)   ...       0.01 
freq.    1251.06  E(vib)   ...       0.01 
freq.    1319.61  E(vib)   ...       0.01 
freq.    1416.27  E(vib)   ...       0.00 
freq.    1420.17  E(vib)   ...       0.00 
freq.    1439.32  E(vib)   ...       0.00 
freq.    1442.02  E(vib)   ...       0.00 
freq.    1466.19  E(vib)   ...       0.00 
freq.    1475.88  E(vib)   ...       0.00 
freq.    1483.13  E(vib)   ...       0.00 
freq.    1483.62  E(vib)   ...       0.00 
freq.    1492.46  E(vib)   ...       0.00 
freq.    1493.36  E(vib)   ...       0.00 
freq.    1505.84  E(vib)   ...       0.00 
freq.    1505.87  E(vib)   ...       0.00 
freq.    1530.88  E(vib)   ...       0.00 
freq.    1574.92  E(vib)   ...       0.00 
freq.    3041.72  E(vib)   ...       0.00 
freq.    3043.51  E(vib)   ...       0.00 
freq.    3063.02  E(vib)   ...       0.00 
freq.    3067.24  E(vib)   ...       0.00 
freq.    3103.06  E(vib)   ...       0.00 
freq.    3103.13  E(vib)   ...       0.00 
freq.    3127.06  E(vib)   ...       0.00 
freq.    3129.47  E(vib)   ...       0.00 
freq.    3190.00  E(vib)   ...       0.00 
freq.    3190.09  E(vib)   ...       0.00 
freq.    3194.54  E(vib)   ...       0.00 
freq.    3197.22  E(vib)   ...       0.00 

------------
INNER ENERGY
------------

The inner energy is: U= E(el) + E(ZPE) + E(vib) + E(rot) + E(trans)
    E(el)   - is the total energy from the electronic structure calculation
              = E(kin-el) + E(nuc-el) + E(el-el) + E(nuc-nuc)
    E(ZPE)  - the the zero temperature vibrational energy from the frequency calculation
    E(vib)  - the the finite temperature correction to E(ZPE) due to population
              of excited vibrational states
    E(rot)  - is the rotational thermal energy
    E(trans)- is the translational thermal energy

Summary of contributions to the inner energy U:
Electronic energy                ...   -307.22800703 Eh
Zero point energy                ...      0.17223249 Eh     108.08 kcal/mol
Thermal vibrational correction   ...      0.00604775 Eh       3.80 kcal/mol
Thermal rotational correction    ...      0.00141627 Eh       0.89 kcal/mol
Thermal translational correction ...      0.00141627 Eh       0.89 kcal/mol
-----------------------------------------------------------------------
Total thermal energy                   -307.04689424 Eh


Summary of corrections to the electronic energy:
(perhaps to be used in another calculation)
Total thermal correction                  0.00888029 Eh       5.57 kcal/mol
Non-thermal (ZPE) correction              0.17223249 Eh     108.08 kcal/mol
-----------------------------------------------------------------------
Total correction                          0.18111278 Eh     113.65 kcal/mol


--------
ENTHALPY
--------

The enthalpy is H = U + kB*T
                kB is Boltzmann's constant
Total free energy                 ...   -307.04689424 Eh 
Thermal Enthalpy correction       ...      0.00094421 Eh       0.59 kcal/mol
-----------------------------------------------------------------------
Total Enthalpy                    ...   -307.04595003 Eh


Note: Rotational entropy computed according to Herzberg 
Infrared and Raman Spectra, Chapter V,1, Van Nostrand Reinhold, 1945 
Point Group:  C2, Symmetry Number:   2  
Rotational constants in cm-1:     0.163955     0.057098     0.045182 

Vibrational entropy computed according to the QRRHO of S. Grimme
Chem.Eur.J. 2012 18 9955


-------
ENTROPY
-------

The entropy contributions are T*S = T*(S(el)+S(vib)+S(rot)+S(trans))
     S(el)   - electronic entropy
     S(vib)  - vibrational entropy
     S(rot)  - rotational entropy
     S(trans)- translational entropy
The entropies will be listed as multiplied by the temperature to get
units of energy

Electronic entropy                ...      0.00000000 Eh      0.00 kcal/mol
Vibrational entropy               ...      0.01023739 Eh      6.42 kcal/mol
Rotational entropy                ...      0.01252365 Eh      7.86 kcal/mol
Translational entropy             ...      0.01887358 Eh     11.84 kcal/mol
-----------------------------------------------------------------------
Final entropy term                ...      0.04163461 Eh     26.13 kcal/mol

In case the symmetry of your molecule has not been determined correctly
or in case you have a reason to use a different symmetry number we print 
out the resulting rotational entropy values for sn=1,12 :
 --------------------------------------------------------
|  sn= 1 | S(rot)=       0.01317810 Eh      8.27 kcal/mol|
|  sn= 2 | S(rot)=       0.01252365 Eh      7.86 kcal/mol|
|  sn= 3 | S(rot)=       0.01214081 Eh      7.62 kcal/mol|
|  sn= 4 | S(rot)=       0.01186919 Eh      7.45 kcal/mol|
|  sn= 5 | S(rot)=       0.01165850 Eh      7.32 kcal/mol|
|  sn= 6 | S(rot)=       0.01148636 Eh      7.21 kcal/mol|
|  sn= 7 | S(rot)=       0.01134081 Eh      7.12 kcal/mol|
|  sn= 8 | S(rot)=       0.01121473 Eh      7.04 kcal/mol|
|  sn= 9 | S(rot)=       0.01110353 Eh      6.97 kcal/mol|
|  sn=10 | S(rot)=       0.01100405 Eh      6.91 kcal/mol|
|  sn=11 | S(rot)=       0.01091406 Eh      6.85 kcal/mol|
|  sn=12 | S(rot)=       0.01083190 Eh      6.80 kcal/mol|
 --------------------------------------------------------


-------------------
GIBBS FREE ENERGY
-------------------

The Gibbs free energy is G = H - T*S

Total enthalpy                    ...   -307.04595003 Eh 
Total entropy correction          ...     -0.04163461 Eh    -26.13 kcal/mol
-----------------------------------------------------------------------
Final Gibbs free energy         ...   -307.08758464 Eh

For completeness - the Gibbs free energy minus the electronic energy
G-E(el)                           ...      0.14042238 Eh     88.12 kcal/mol


Timings for individual modules:

Sum of individual times         ...     1099.173 sec (=  18.320 min)
GTO integral calculation        ...        5.004 sec (=   0.083 min)   0.5 %
SCF iterations                  ...      489.260 sec (=   8.154 min)  44.5 %
SCF Gradient evaluation         ...      138.277 sec (=   2.305 min)  12.6 %
Geometry relaxation             ...        0.327 sec (=   0.005 min)   0.0 %
Analytical frequency calculation...      466.306 sec (=   7.772 min)  42.4 %
                             ****ORCA TERMINATED NORMALLY****
TOTAL RUN TIME: 0 days 0 hours 18 minutes 22 seconds 817 msec
