
                                 *****************
                                 * O   R   C   A *
                                 *****************

                                            #,                                       
                                            ###                                      
                                            ####                                     
                                            #####                                    
                                            ######                                   
                                           ########,                                 
                                     ,,################,,,,,                         
                               ,,#################################,,                 
                          ,,##########################################,,             
                       ,#########################################, ''#####,          
                    ,#############################################,,   '####,        
                  ,##################################################,,,,####,       
                ,###########''''           ''''###############################       
              ,#####''   ,,,,##########,,,,          '''####'''          '####       
            ,##' ,,,,###########################,,,                        '##       
           ' ,,###''''                  '''############,,,                           
         ,,##''                                '''############,,,,        ,,,,,,###''
      ,#''                                            '''#######################'''  
     '                                                          ''''####''''         
             ,#######,   #######,   ,#######,      ##                                
            ,#'     '#,  ##    ##  ,#'     '#,    #''#        ######   ,####,        
            ##       ##  ##   ,#'  ##            #'  '#       #        #'  '#        
            ##       ##  #######   ##           ,######,      #####,   #    #        
            '#,     ,#'  ##    ##  '#,     ,#' ,#      #,         ##   #,  ,#        
             '#######'   ##     ##  '#######'  #'      '#     #####' # '####'        



                  #######################################################
                  #                        -***-                        #
                  #          Department of theory and spectroscopy      #
                  #    Directorship and core code : Frank Neese         #
                  #        Max Planck Institute fuer Kohlenforschung    #
                  #                Kaiser Wilhelm Platz 1               #
                  #                 D-45470 Muelheim/Ruhr               #
                  #                      Germany                        #
                  #                                                     #
                  #                  All rights reserved                #
                  #                        -***-                        #
                  #######################################################


                         Program Version 5.0.4 -  RELEASE  -


 With contributions from (in alphabetic order):
   Daniel Aravena         : Magnetic Suceptibility
   Michael Atanasov       : Ab Initio Ligand Field Theory (pilot matlab implementation)
   Alexander A. Auer      : GIAO ZORA, VPT2 properties, NMR spectrum
   Ute Becker             : Parallelization
   Giovanni Bistoni       : ED, misc. LED, open-shell LED, HFLD
   Martin Brehm           : Molecular dynamics
   Dmytro Bykov           : SCF Hessian
   Vijay G. Chilkuri      : MRCI spin determinant printing, contributions to CSF-ICE
   Dipayan Datta          : RHF DLPNO-CCSD density
   Achintya Kumar Dutta   : EOM-CC, STEOM-CC
   Dmitry Ganyushin       : Spin-Orbit,Spin-Spin,Magnetic field MRCI
   Miquel Garcia          : C-PCM and meta-GGA Hessian, CC/C-PCM, Gaussian charge scheme
   Yang Guo               : DLPNO-NEVPT2, F12-NEVPT2, CIM, IAO-localization
   Andreas Hansen         : Spin unrestricted coupled pair/coupled cluster methods
   Benjamin Helmich-Paris : MC-RPA, TRAH-SCF, COSX integrals
   Lee Huntington         : MR-EOM, pCC
   Robert Izsak           : Overlap fitted RIJCOSX, COSX-SCS-MP3, EOM
   Marcus Kettner         : VPT2
   Christian Kollmar      : KDIIS, OOCD, Brueckner-CCSD(T), CCSD density, CASPT2, CASPT2-K
   Simone Kossmann        : Meta GGA functionals, TD-DFT gradient, OOMP2, MP2 Hessian
   Martin Krupicka        : Initial AUTO-CI
   Lucas Lang             : DCDCAS
   Marvin Lechner         : AUTO-CI (C++ implementation), FIC-MRCC
   Dagmar Lenk            : GEPOL surface, SMD
   Dimitrios Liakos       : Extrapolation schemes; Compound Job, initial MDCI parallelization
   Dimitrios Manganas     : Further ROCIS development; embedding schemes
   Dimitrios Pantazis     : SARC Basis sets
   Anastasios Papadopoulos: AUTO-CI, single reference methods and gradients
   Taras Petrenko         : DFT Hessian,TD-DFT gradient, ASA, ECA, R-Raman, ABS, FL, XAS/XES, NRVS
   Peter Pinski           : DLPNO-MP2, DLPNO-MP2 Gradient
   Christoph Reimann      : Effective Core Potentials
   Marius Retegan         : Local ZFS, SOC
   Christoph Riplinger    : Optimizer, TS searches, QM/MM, DLPNO-CCSD(T), (RO)-DLPNO pert. Triples
   Tobias Risthaus        : Range-separated hybrids, TD-DFT gradient, RPA, STAB
   Michael Roemelt        : Original ROCIS implementation
   Masaaki Saitow         : Open-shell DLPNO-CCSD energy and density
   Barbara Sandhoefer     : DKH picture change effects
   Avijit Sen             : IP-ROCIS
   Kantharuban Sivalingam : CASSCF convergence, NEVPT2, FIC-MRCI
   Bernardo de Souza      : ESD, SOC TD-DFT
   Georgi Stoychev        : AutoAux, RI-MP2 NMR, DLPNO-MP2 response
   Willem Van den Heuvel  : Paramagnetic NMR
   Boris Wezisla          : Elementary symmetry handling
   Frank Wennmohs         : Technical directorship


 We gratefully acknowledge several colleagues who have allowed us to
 interface, adapt or use parts of their codes:
   Stefan Grimme, W. Hujo, H. Kruse, P. Pracht,  : VdW corrections, initial TS optimization,
                  C. Bannwarth, S. Ehlert          DFT functionals, gCP, sTDA/sTD-DF
   Ed Valeev, F. Pavosevic, A. Kumar             : LibInt (2-el integral package), F12 methods
   Garnet Chan, S. Sharma, J. Yang, R. Olivares  : DMRG
   Ulf Ekstrom                                   : XCFun DFT Library
   Mihaly Kallay                                 : mrcc  (arbitrary order and MRCC methods)
   Jiri Pittner, Ondrej Demel                    : Mk-CCSD
   Frank Weinhold                                : gennbo (NPA and NBO analysis)
   Christopher J. Cramer and Donald G. Truhlar   : smd solvation model
   Lars Goerigk                                  : TD-DFT with DH, B97 family of functionals
   V. Asgeirsson, H. Jonsson                     : NEB implementation
   FAccTs GmbH                                   : IRC, NEB, NEB-TS, DLPNO-Multilevel, CI-OPT
                                                   MM, QMMM, 2- and 3-layer-ONIOM, Crystal-QMMM,
                                                   LR-CPCM, SF, NACMEs, symmetry and pop. for TD-DFT,
                                                   nearIR, NL-DFT gradient (VV10), updates on ESD,
                                                   ML-optimized integration grids
   S Lehtola, MJT Oliveira, MAL Marques          : LibXC Library
   Liviu Ungur et al                             : ANISO software


 Your calculation uses the libint2 library for the computation of 2-el integrals
 For citations please refer to: http://libint.valeyev.net

 Your ORCA version has been built with support for libXC version: 5.1.0
 For citations please refer to: https://tddft.org/programs/libxc/

 This ORCA versions uses:
   CBLAS   interface :  Fast vector & matrix operations
   LAPACKE interface :  Fast linear algebra routines
   SCALAPACK package :  Parallel linear algebra routines
   Shared memory     :  Shared parallel matrices
   BLAS/LAPACK       :  OpenBLAS 0.3.15  USE64BITINT DYNAMIC_ARCH NO_AFFINITY SkylakeX SINGLE_THREADED
        Core in use  :  SkylakeX
   Copyright (c) 2011-2014, The OpenBLAS Project




***************************************
The coordinates will be read from file: 1_deprot.xyz
***************************************


Your calculation utilizes the atom-pairwise dispersion correction
based on tight binding partial charges (D4)
Cite in your paper:
E.Caldeweyher, C.Bannwarth, S.Grimme, J.Chem.Phys., (2017), 147, 034112.
E.Caldeweyher, S.Ehlert, A.Hansen, H.Neugebauer, S.Grimme, J.Chem.Phys., (2018), in progress.
   

XCFun DFT library Copyright 2009-2010 Ulf Ekstrom and contributors.
See http://admol.org/xcfun for more information.
This is free software; see the source code for copying conditions.
There is ABSOLUTELY NO WARRANTY; not even for MERCHANTABILITY or FITNESS FOR A PARTICULAR PURPOSE.
For details see the documentation.
Scientific users of this library should cite U. Ekstrom, L. Visscher, R. Bast, A. J. Thorvaldsen and K. Ruud;
J.Chem.Theor.Comp. 2010, DOI: 10.1021/ct100117s
XCFun Version 0.99 

================================================================================

----- Orbital basis set information -----
Your calculation utilizes the basis: def2-TZVP
   F. Weigend and R. Ahlrichs, Phys. Chem. Chem. Phys. 7, 3297 (2005).

----- AuxJ basis set information -----
Your calculation utilizes the auxiliary basis: def2/J
   F. Weigend, Phys. Chem. Chem. Phys. 8, 1057 (2006).

================================================================================
                                        WARNINGS
                       Please study these warnings very carefully!
================================================================================


WARNING: Geometry Optimization
  ===> : Switching off AutoStart
         For restart on a previous wavefunction, please use MOREAD

INFO   : the flag for use of the SHARK integral package has been found!

================================================================================
                                       INPUT FILE
================================================================================
NAME = 1_deprot.inp
|  1> # ORCA 5.0.4 - /users/bwb16179/postgrad/2024_06/pKa_Reviewer_Comments/Aq_Z=0/1_deprot.inp # write input file
|  2> # Basic Mode
|  3> #
|  4> ! Opt Freq wB97X Def2-TZVP D4 SlowConv TightSCF Defgrid2 Def2/J RIJCOSX CPCM(Water)
|  5> 
|  6> %PAL NPROCS 4 END
|  7> 
|  8> %maxcore 4500
|  9> 
| 10> %geom
| 11> Maxiter 150
| 12> END
| 13> 
| 14> * xyzfile 0 1 1_deprot.xyz
| 15> 
| 16>                          ****END OF INPUT****
================================================================================

                       *****************************
                       * Geometry Optimization Run *
                       *****************************

Geometry optimization settings:
Update method            Update   .... BFGS
Choice of coordinates    CoordSys .... Z-matrix Internals
Initial Hessian          InHess   .... Almoef's Model

Convergence Tolerances:
Energy Change            TolE     ....  5.0000e-06 Eh
Max. Gradient            TolMAXG  ....  3.0000e-04 Eh/bohr
RMS Gradient             TolRMSG  ....  1.0000e-04 Eh/bohr
Max. Displacement        TolMAXD  ....  4.0000e-03 bohr
RMS Displacement         TolRMSD  ....  2.0000e-03 bohr
Strict Convergence                ....  False
------------------------------------------------------------------------------
                        ORCA OPTIMIZATION COORDINATE SETUP
------------------------------------------------------------------------------

The optimization will be done in new redundant internal coordinates
Making redundant internal coordinates   ...  (new redundants) done
Evaluating the initial hessian          ...  (Almloef) done
Evaluating the coordinates              ...  done
Calculating the B-matrix                .... done
Calculating the G-matrix                .... done
Diagonalizing the G-matrix              .... done
The first mode is                       ....   29
The number of degrees of freedom        ....   39

    -----------------------------------------------------------------
                    Redundant Internal Coordinates


    -----------------------------------------------------------------
         Definition                    Initial Value    Approx d2E/dq
    -----------------------------------------------------------------
      1. B(C   1,C   0)                  1.3557         0.708741   
      2. B(N   2,C   0)                  1.3849         0.570142   
      3. B(N   3,C   1)                  1.3849         0.570142   
      4. B(C   4,N   3)                  1.3601         0.624647   
      5. B(C   4,N   2)                  1.3601         0.624647   
      6. B(H   5,C   0)                  1.0891         0.361358   
      7. B(H   6,C   1)                  1.0891         0.361358   
      8. B(C   7,N   2)                  1.4502         0.448511   
      9. B(C   8,N   3)                  1.4502         0.448511   
     10. B(H   9,C   7)                  1.1001         0.346949   
     11. B(H  10,C   8)                  1.1001         0.346950   
     12. B(H  11,C   8)                  1.1001         0.346949   
     13. B(H  12,C   7)                  1.1001         0.346950   
     14. B(H  13,C   7)                  1.0965         0.351574   
     15. B(H  14,C   8)                  1.0965         0.351574   
     16. A(C   1,C   0,N   2)          106.0865         0.435117   
     17. A(N   2,C   0,H   5)          122.8459         0.346021   
     18. A(C   1,C   0,H   5)          131.0676         0.361236   
     19. A(N   3,C   1,H   6)          122.8459         0.346021   
     20. A(C   0,C   1,N   3)          106.0865         0.435117   
     21. A(C   0,C   1,H   6)          131.0676         0.361236   
     22. A(C   4,N   2,C   7)          124.1140         0.404960   
     23. A(C   0,N   2,C   4)          112.6034         0.422594   
     24. A(C   0,N   2,C   7)          123.2826         0.398498   
     25. A(C   4,N   3,C   8)          124.1140         0.404960   
     26. A(C   1,N   3,C   8)          123.2826         0.398498   
     27. A(C   1,N   3,C   4)          112.6034         0.422594   
     28. A(N   2,C   4,N   3)          102.6202         0.429560   
     29. A(N   2,C   7,H   9)          110.6585         0.330202   
     30. A(H  12,C   7,H  13)          109.1757         0.288064   
     31. A(H   9,C   7,H  13)          109.1757         0.288064   
     32. A(N   2,C   7,H  13)          108.3329         0.330926   
     33. A(H   9,C   7,H  12)          108.8117         0.287469   
     34. A(N   2,C   7,H  12)          110.6585         0.330202   
     35. A(N   3,C   8,H  10)          110.6585         0.330202   
     36. A(H  11,C   8,H  14)          109.1757         0.288064   
     37. A(H  10,C   8,H  14)          109.1757         0.288065   
     38. A(N   3,C   8,H  14)          108.3329         0.330926   
     39. A(H  10,C   8,H  11)          108.8117         0.287469   
     40. A(N   3,C   8,H  11)          110.6585         0.330202   
     41. D(H   6,C   1,C   0,H   5)      0.0001         0.035453   
     42. D(N   3,C   1,C   0,N   2)     -0.0001         0.035453   
     43. D(N   3,C   1,C   0,H   5)    180.0000         0.035453   
     44. D(H   6,C   1,C   0,N   2)   -180.0000         0.035453   
     45. D(C   7,N   2,C   0,C   1)   -180.0000         0.026016   
     46. D(C   4,N   2,C   0,H   5)    180.0000         0.026016   
     47. D(C   7,N   2,C   0,H   5)      0.0000         0.026016   
     48. D(C   4,N   2,C   0,C   1)      0.0000         0.026016   
     49. D(C   8,N   3,C   1,H   6)     -0.0001         0.026016   
     50. D(C   4,N   3,C   1,H   6)    180.0000         0.026016   
     51. D(C   8,N   3,C   1,C   0)   -180.0000         0.026016   
     52. D(C   4,N   3,C   1,C   0)      0.0001         0.026016   
     53. D(N   2,C   4,N   3,C   1)     -0.0000         0.028658   
     54. D(N   3,C   4,N   2,C   7)    180.0000         0.028658   
     55. D(N   3,C   4,N   2,C   0)      0.0000         0.028658   
     56. D(N   2,C   4,N   3,C   8)    180.0000         0.028658   
     57. D(H  13,C   7,N   2,C   4)     -0.0001         0.017159   
     58. D(H  13,C   7,N   2,C   0)    179.9999         0.017159   
     59. D(H  12,C   7,N   2,C   4)    119.6527         0.017159   
     60. D(H  12,C   7,N   2,C   0)    -60.3473         0.017159   
     61. D(H   9,C   7,N   2,C   4)   -119.6528         0.017159   
     62. D(H   9,C   7,N   2,C   0)     60.3472         0.017159   
     63. D(H  14,C   8,N   3,C   4)      0.0000         0.017159   
     64. D(H  14,C   8,N   3,C   1)   -180.0000         0.017159   
     65. D(H  11,C   8,N   3,C   4)   -119.6527         0.017159   
     66. D(H  11,C   8,N   3,C   1)     60.3473         0.017159   
     67. D(H  10,C   8,N   3,C   4)    119.6527         0.017159   
     68. D(H  10,C   8,N   3,C   1)    -60.3472         0.017159   
    -----------------------------------------------------------------

Number of atoms                         .... 15
Number of degrees of freedom            .... 68

         *************************************************************
         *                GEOMETRY OPTIMIZATION CYCLE   1            *
         *************************************************************
---------------------------------
CARTESIAN COORDINATES (ANGSTROEM)
---------------------------------
  C     -0.000000    0.677842   -1.193646
  C     -0.000001   -0.677842   -1.193646
  N     -0.000000    1.061586    0.137045
  N     -0.000000   -1.061586    0.137045
  C     -0.000000    0.000000    0.987229
  H      0.000000    1.393293   -2.014719
  H     -0.000001   -1.393293   -2.014719
  C      0.000000    2.446994    0.565798
  C      0.000000   -2.446994    0.565798
  H     -0.894579    2.968333    0.194027
  H     -0.894579   -2.968332    0.194028
  H      0.894580   -2.968332    0.194028
  H      0.894580    2.968332    0.194029
  H     -0.000001    2.468747    1.662105
  H      0.000000   -2.468748    1.662105

----------------------------
CARTESIAN COORDINATES (A.U.)
----------------------------
  NO LB      ZA    FRAG     MASS         X           Y           Z
   0 C     6.0000    0    12.011   -0.000000    1.280936   -2.255664
   1 C     6.0000    0    12.011   -0.000002   -1.280936   -2.255664
   2 N     7.0000    0    14.007   -0.000000    2.006107    0.258978
   3 N     7.0000    0    14.007   -0.000000   -2.006107    0.258978
   4 C     6.0000    0    12.011   -0.000000    0.000000    1.865592
   5 H     1.0000    0     1.008    0.000000    2.632942   -3.807267
   6 H     1.0000    0     1.008   -0.000002   -2.632942   -3.807267
   7 C     6.0000    0    12.011    0.000000    4.624149    1.069203
   8 C     6.0000    0    12.011    0.000000   -4.624149    1.069203
   9 H     1.0000    0     1.008   -1.690509    5.609336    0.366658
  10 H     1.0000    0     1.008   -1.690509   -5.609335    0.366660
  11 H     1.0000    0     1.008    1.690511   -5.609335    0.366660
  12 H     1.0000    0     1.008    1.690511    5.609335    0.366662
  13 H     1.0000    0     1.008   -0.000002    4.665256    3.140923
  14 H     1.0000    0     1.008    0.000000   -4.665258    3.140923

--------------------------------
INTERNAL COORDINATES (ANGSTROEM)
--------------------------------
 C      0   0   0     0.000000000000     0.00000000     0.00000000
 C      1   0   0     1.355684000000     0.00000000     0.00000000
 N      1   2   0     1.384918046318   106.08647667     0.00000000
 N      2   1   3     1.384918046318   106.08647667     0.00000000
 C      3   1   2     1.360065318009   112.60343786     0.00000000
 H      1   2   3     1.089050506051   131.06762425   180.00004902
 H      2   1   3     1.089050506051   131.06762425   180.00002463
 C      3   1   2     1.450236001992   123.28261143   180.00004399
 C      4   2   1     1.450236001992   123.28261143   180.00002876
 H      8   3   1     1.100127091114   110.65854402    60.34719272
 H      9   4   2     1.100126279290   110.65852325   299.65279626
 H      9   4   2     1.100127092451   110.65850728    60.34733026
 H      8   3   1     1.100126754517   110.65853037   299.65267302
 H      8   3   1     1.096522791035   108.33285245   179.99994495
 H      9   4   2     1.096522810873   108.33290470   180.00004949

---------------------------
INTERNAL COORDINATES (A.U.)
---------------------------
 C      0   0   0     0.000000000000     0.00000000     0.00000000
 C      1   0   0     2.561871484140     0.00000000     0.00000000
 N      1   2   0     2.617115825466   106.08647667     0.00000000
 N      2   1   3     2.617115825467   106.08647667     0.00000000
 C      3   1   2     2.570150975282   112.60343786     0.00000000
 H      1   2   3     2.058007202445   131.06762425   180.00004902
 H      2   1   3     2.058007202445   131.06762425   180.00002463
 C      3   1   2     2.740548873317   123.28261143   180.00004399
 C      4   2   1     2.740548873317   123.28261143   180.00002876
 H      8   3   1     2.078938914713   110.65854402    60.34719272
 H      9   4   2     2.078937380588   110.65852325   299.65279626
 H      9   4   2     2.078938917239   110.65850728    60.34733026
 H      8   3   1     2.078938278638   110.65853037   299.65267302
 H      8   3   1     2.072127774659   108.33285245   179.99994495
 H      9   4   2     2.072127812148   108.33290470   180.00004949

---------------------
BASIS SET INFORMATION
---------------------
There are 3 groups of distinct atoms

 Group   1 Type C   : 11s6p2d1f contracted to 5s3p2d1f pattern {62111/411/11/1}
 Group   2 Type N   : 11s6p2d1f contracted to 5s3p2d1f pattern {62111/411/11/1}
 Group   3 Type H   : 5s1p contracted to 3s1p pattern {311/1}

Atom   0C    basis set group =>   1
Atom   1C    basis set group =>   1
Atom   2N    basis set group =>   2
Atom   3N    basis set group =>   2
Atom   4C    basis set group =>   1
Atom   5H    basis set group =>   3
Atom   6H    basis set group =>   3
Atom   7C    basis set group =>   1
Atom   8C    basis set group =>   1
Atom   9H    basis set group =>   3
Atom  10H    basis set group =>   3
Atom  11H    basis set group =>   3
Atom  12H    basis set group =>   3
Atom  13H    basis set group =>   3
Atom  14H    basis set group =>   3
---------------------------------
AUXILIARY/J BASIS SET INFORMATION
---------------------------------
There are 3 groups of distinct atoms

 Group   1 Type C   : 12s5p4d2f1g contracted to 6s4p3d1f1g pattern {711111/2111/211/2/1}
 Group   2 Type N   : 12s5p4d2f1g contracted to 6s4p3d1f1g pattern {711111/2111/211/2/1}
 Group   3 Type H   : 5s2p1d contracted to 3s1p1d pattern {311/2/1}

Atom   0C    basis set group =>   1
Atom   1C    basis set group =>   1
Atom   2N    basis set group =>   2
Atom   3N    basis set group =>   2
Atom   4C    basis set group =>   1
Atom   5H    basis set group =>   3
Atom   6H    basis set group =>   3
Atom   7C    basis set group =>   1
Atom   8C    basis set group =>   1
Atom   9H    basis set group =>   3
Atom  10H    basis set group =>   3
Atom  11H    basis set group =>   3
Atom  12H    basis set group =>   3
Atom  13H    basis set group =>   3
Atom  14H    basis set group =>   3


           ************************************************************
           *        Program running with 4 parallel MPI-processes     *
           *              working on a common directory               *
           ************************************************************
------------------------------------------------------------------------------
                           ORCA GTO INTEGRAL CALCULATION
                           -- RI-GTO INTEGRALS CHOSEN --
------------------------------------------------------------------------------
------------------------------------------------------------------------------
                   ___                                                        
                  /   \      - P O W E R E D   B Y -                         
                 /     \                                                     
                 |  |  |   _    _      __       _____    __    __             
                 |  |  |  | |  | |    /  \     |  _  \  |  |  /  |          
                  \  \/   | |  | |   /    \    | | | |  |  | /  /          
                 / \  \   | |__| |  /  /\  \   | |_| |  |  |/  /          
                |  |  |   |  __  | /  /__\  \  |    /   |      \           
                |  |  |   | |  | | |   __   |  |    \   |  |\   \          
                \     /   | |  | | |  |  |  |  | |\  \  |  | \   \       
                 \___/    |_|  |_| |__|  |__|  |_| \__\ |__|  \__/        
                                                                              
                      - O R C A' S   B I G   F R I E N D -                    
                                      &                                       
                       - I N T E G R A L  F E E D E R -                       
                                                                              
 v1 FN, 2020, v2 2021                                                         
------------------------------------------------------------------------------


Reading SHARK input file 1_deprot.SHARKINP.tmp ... ok
----------------------
SHARK INTEGRAL PACKAGE
----------------------

Number of atoms                             ...     15
Number of basis functions                   ...    265
Number of shells                            ...    109
Maximum angular momentum                    ...      3
Integral batch strategy                     ... SHARK/LIBINT Hybrid
RI-J (if used) integral strategy            ... SPLIT-RIJ (Revised 2003 algorithm where possible)
Printlevel                                  ...      1
Contraction scheme used                     ... SEGMENTED contraction
Coulomb Range Separation                    ... NOT USED
Exchange Range Separation                   ... Long Range
   Mu parameter                             ...  0.300000
   Scaling (regular/separated)              ...  0.157706  0.842294
Finite Nucleus Model                        ... NOT USED
Auxiliary Coulomb fitting basis             ... AVAILABLE
   # of basis functions in Aux-J            ...    431
   # of shells in Aux-J                     ...    145
   Maximum angular momentum in Aux-J        ...      4
Auxiliary J/K fitting basis                 ... NOT available
Auxiliary Correlation fitting basis         ... NOT available
Auxiliary 'external' fitting basis          ... NOT available
Integral threshold                          ...     2.500000e-11
Primitive cut-off                           ...     2.500000e-12
Primitive pair pre-selection threshold      ...     2.500000e-12

Calculating pre-screening integrals         ... done (  0.0 sec) Dimension = 109
Organizing shell pair data                  ... done (  0.0 sec)
Shell pair information
Total number of shell pairs                 ...      5995
Shell pairs after pre-screening             ...      5554
Total number of primitive shell pairs       ...     17944
Primitive shell pairs kept                  ...     12817
          la=0 lb=0:   1574 shell pairs
          la=1 lb=0:   1583 shell pairs
          la=1 lb=1:    411 shell pairs
          la=2 lb=0:    784 shell pairs
          la=2 lb=1:    392 shell pairs
          la=2 lb=2:    104 shell pairs
          la=3 lb=0:    387 shell pairs
          la=3 lb=1:    195 shell pairs
          la=3 lb=2:     96 shell pairs
          la=3 lb=3:     28 shell pairs

Calculating one electron integrals          ... done (  0.0 sec)
Calculating RI/J V-Matrix + Cholesky decomp.... done (  0.0 sec)
Calculating Nuclear repulsion               ... done (  0.0 sec) ENN=    295.260153753753 Eh

SHARK setup successfully completed in   0.3 seconds

Maximum memory used throughout the entire GTOINT-calculation: 19.0 MB


           ************************************************************
           *        Program running with 4 parallel MPI-processes     *
           *              working on a common directory               *
           ************************************************************
-------------------------------------------------------------------------------
                                 ORCA SCF
-------------------------------------------------------------------------------

------------
SCF SETTINGS
------------
Hamiltonian:
 Density Functional     Method          .... DFT(GTOs)
 Exchange Functional    Exchange        .... WB97X
 Correlation Functional Correlation     .... WB97X
 Gradients option       PostSCFGGA      .... off
 Hybrid DFT is turned on
   Fraction HF Exchange ScalHFX         ....  0.157706
   Scaling of DF-GGA-X  ScalDFX         ....  0.000000
   Scaling of DF-GGA-C  ScalDFC         ....  1.000000
   Scaling of DF-LDA-C  ScalLDAC        ....  1.000000
   Perturbative correction              ....  0.000000
   Density functional embedding theory  .... OFF
 Long-range corrected/Screened/Range-Separated Hybrid DFT is turned on
   Amount of maximum screened exact exchange              ....  0.842294
   Range separation parameter mu (erf(mu*r12)/r12)        ....  0.300000
 RI-approximation to the Coulomb term is turned on
   Number of AuxJ basis functions       .... 431
   RIJ-COSX (HFX calculated with COS-X)).... on


General Settings:
 Integral files         IntName         .... 1_deprot
 Hartree-Fock type      HFTyp           .... RHF
 Total Charge           Charge          ....    0
 Multiplicity           Mult            ....    1
 Number of Electrons    NEL             ....   52
 Basis Dimension        Dim             ....  265
 Nuclear Repulsion      ENuc            ....    295.2601537538 Eh

Convergence Acceleration:
 DIIS                   CNVDIIS         .... on
   Start iteration      DIISMaxIt       ....     0
   Startup error        DIISStart       ....  0.200000
   # of expansion vecs  DIISMaxEq       ....     5
   Bias factor          DIISBfac        ....   1.050
   Max. coefficient     DIISMaxC        ....  10.000
 Trust-Rad. Augm. Hess. CNVTRAH         .... auto
   Auto Start mean grad. ratio tolernc. ....  1.125000
   Auto Start start iteration           ....    20
   Auto Start num. interpolation iter.  ....    10
   Max. Number of Micro iterations      ....    16
   Max. Number of Macro iterations      .... Maxiter - #DIIS iter
   Number of Davidson start vectors     ....     2
   Converg. threshold I  (grad. norm)   ....   1.000e-05
   Converg. threshold II (energy diff.) ....   1.000e-08
   Grad. Scal. Fac. for Micro threshold ....   0.100
   Minimum threshold for Micro iter.    ....   0.010
   NR start threshold (gradient norm)   ....   0.001
   Initial trust radius                 ....   0.400
   Minimum AH scaling param. (alpha)    ....   1.000
   Maximum AH scaling param. (alpha)    .... 1000.000
   Orbital update algorithm             .... Taylor
   White noise on init. David. guess    .... on
   Maximum white noise                  ....   0.010
   Quad. conv. algorithm                .... NR
 SOSCF                  CNVSOSCF        .... on
   Start iteration      SOSCFMaxIt      ....   150
   Startup grad/error   SOSCFStart      ....  0.001000
 Level Shifting         CNVShift        .... on
   Level shift para.    LevelShift      ....    0.2500
   Turn off err/grad.   ShiftErr        ....    0.0000
 Zerner damping         CNVZerner       .... off
 Static damping         CNVDamp         .... on
   Fraction old density DampFac         ....    0.8500
   Max. Damping (<1)    DampMax         ....    0.9800
   Min. Damping (>=0)   DampMin         ....    0.0000
   Turn off err/grad.   DampErr         ....    0.0300
 Fernandez-Rico         CNVRico         .... off

SCF Procedure:
 Maximum # iterations   MaxIter         ....   125
 SCF integral mode      SCFMode         .... Direct
   Integral package                     .... SHARK and LIBINT hybrid scheme
 Reset frequency        DirectResetFreq ....    20
 Integral Threshold     Thresh          ....  2.500e-11 Eh
 Primitive CutOff       TCut            ....  2.500e-12 Eh

Convergence Tolerance:
 Convergence Check Mode ConvCheckMode   .... Total+1el-Energy
 Convergence forced     ConvForced      .... 0
 Energy Change          TolE            ....  1.000e-08 Eh
 1-El. energy change                    ....  1.000e-05 Eh
 Orbital Gradient       TolG            ....  1.000e-05
 Orbital Rotation angle TolX            ....  1.000e-05
 DIIS Error             TolErr          ....  5.000e-07


Diagonalization of the overlap matrix:
Smallest eigenvalue                        ... 9.351e-05
Time for diagonalization                   ...    0.010 sec
Threshold for overlap eigenvalues          ... 1.000e-08
Number of eigenvalues below threshold      ... 0
Time for construction of square roots      ...    0.005 sec
Total time needed                          ...    0.016 sec

Time for model grid setup =    0.078 sec

------------------------------
INITIAL GUESS: MODEL POTENTIAL
------------------------------
Loading Hartree-Fock densities                     ... done
Calculating cut-offs                               ... done
Initializing the effective Hamiltonian             ... done
Setting up the integral package (SHARK)            ... done
Starting the Coulomb interaction                   ... done (   0.1 sec)
Reading the grid                                   ... done
Mapping shells                                     ... done
Starting the XC term evaluation                    ... done (   0.1 sec)
  promolecular density results
     # of electrons  =     51.996705706
     EX              =    -41.014925638
     EC              =     -1.719136057
     EX+EC           =    -42.734061694
Transforming the Hamiltonian                       ... done (   0.0 sec)
Diagonalizing the Hamiltonian                      ... done (   0.0 sec)
Back transforming the eigenvectors                 ... done (   0.0 sec)
Now organizing SCF variables                       ... done
                      ------------------
                      INITIAL GUESS DONE (   0.3 sec)
                      ------------------
-------------------
DFT GRID GENERATION
-------------------

General Integration Accuracy     IntAcc      ... 4.388
Radial Grid Type                 RadialGrid  ... OptM3 with GC (2021)
Angular Grid (max. ang.)         AngularGrid ... 4 (Lebedev-302)
Angular grid pruning method      GridPruning ... 4 (adaptive)
Weight generation scheme         WeightScheme... Becke
Basis function cutoff            BFCut       ... 1.0000e-11
Integration weight cutoff        WCut        ... 1.0000e-14
Angular grids for H and He will be reduced by one unit
Partially contracted basis set               ... off
Rotationally invariant grid construction     ... off

Total number of grid points                  ...    68057
Total number of batches                      ...     1069
Average number of points per batch           ...       63
Average number of grid points per atom       ...     4537
Time for grid setup =    0.347 sec

--------------------
COSX GRID GENERATION
--------------------

GRIDX 1
-------
General Integration Accuracy     IntAcc      ... 3.816
Radial Grid Type                 RadialGrid  ... OptM3 with GC (2021)
Angular Grid (max. ang.)         AngularGrid ... 1 (Lebedev-50)
Angular grid pruning method      GridPruning ... 4 (adaptive)
Weight generation scheme         WeightScheme... Becke
Basis function cutoff            BFCut       ... 1.0000e-11
Integration weight cutoff        WCut        ... 1.0000e-14
Angular grids for H and He will be reduced by one unit
Partially contracted basis set               ... on
Rotationally invariant grid construction     ... off

Total number of grid points                  ...     8711
Total number of batches                      ...      144
Average number of points per batch           ...       60
Average number of grid points per atom       ...      581
UseSFitting                                  ... on

GRIDX 2
-------
General Integration Accuracy     IntAcc      ... 4.020
Radial Grid Type                 RadialGrid  ... OptM3 with GC (2021)
Angular Grid (max. ang.)         AngularGrid ... 2 (Lebedev-110)
Angular grid pruning method      GridPruning ... 4 (adaptive)
Weight generation scheme         WeightScheme... Becke
Basis function cutoff            BFCut       ... 1.0000e-11
Integration weight cutoff        WCut        ... 1.0000e-14
Angular grids for H and He will be reduced by one unit
Partially contracted basis set               ... on
Rotationally invariant grid construction     ... off

Total number of grid points                  ...    18787
Total number of batches                      ...      299
Average number of points per batch           ...       62
Average number of grid points per atom       ...     1252
UseSFitting                                  ... on

GRIDX 3
-------
General Integration Accuracy     IntAcc      ... 4.338
Radial Grid Type                 RadialGrid  ... OptM3 with GC (2021)
Angular Grid (max. ang.)         AngularGrid ... 3 (Lebedev-194)
Angular grid pruning method      GridPruning ... 4 (adaptive)
Weight generation scheme         WeightScheme... Becke
Basis function cutoff            BFCut       ... 1.0000e-11
Integration weight cutoff        WCut        ... 1.0000e-14
Angular grids for H and He will be reduced by one unit
Partially contracted basis set               ... on
Rotationally invariant grid construction     ... off

Total number of grid points                  ...    41213
Total number of batches                      ...      654
Average number of points per batch           ...       63
Average number of grid points per atom       ...     2748
UseSFitting                                  ... on

Time for X-Grid setup             =    0.402 sec


--------------------
CPCM SOLVATION MODEL
--------------------
CPCM parameters:
  Epsilon                                         ...      80.4000
  Refrac                                          ...       1.3300
  Rsolv                                           ...       1.3000
  Surface type                                    ... GAUSSIAN VDW
  Epsilon function type                           ...         CPCM
Radii:
 Radius for C  used is    3.8550 Bohr (=   2.0400 Ang.)
 Radius for N  used is    3.5149 Bohr (=   1.8600 Ang.)
 Radius for H  used is    2.4944 Bohr (=   1.3200 Ang.)
Calculating surface                               ...        done! (  0.0s)
GEPOL surface points                              ...          865
GEPOL Volume                                      ...     890.9506
GEPOL Surface-area                                ...     524.1477
Calculating surface distance matrix               ...        done! (  0.0s)
Performing Cholesky decomposition & store         ...        done! (  0.0s)
Overall time for CPCM initialization              ...                 0.0s
--------------
SCF ITERATIONS
--------------
ITER       Energy         Delta-E        Max-DP      RMS-DP      [F,P]     Damp
               ***  Starting incremental Fock matrix formation  ***
  0   -304.7027372611   0.000000000000 0.02627497  0.00034594  0.1337187 0.8500
  1   -304.7298504467  -0.027113185639 0.03290813  0.00036147  0.1089855 0.8500
                               ***Turning on DIIS***
  2   -304.7509370807  -0.021086633973 0.03066742  0.00031282  0.0849967 0.8500
  3   -304.7668798687  -0.015942788033 0.02535587  0.00024666  0.0655352 0.8500
  4   -304.7793201704  -0.012440301744 0.02107357  0.00020245  0.0525864 0.8500
  5   -304.7892029416  -0.009882771144 0.01800786  0.00017270  0.0435930 0.8500
  6   -304.7972705969  -0.008067655322 0.01563792  0.00014971  0.0367058 0.8500
  7   -304.8039628975  -0.006692300615 0.01379839  0.00013143  0.0311125 0.8500
  8   -304.8095681174  -0.005605219860 0.08105743  0.00076629  0.0263534 0.0000
  9   -304.8399524403  -0.030384322905 0.00244968  0.00003300  0.0011500 0.0000
                      *** Initiating the SOSCF procedure ***
                           *** Shutting down DIIS ***
                      *** Re-Reading the Fockian *** 
                      *** Removing any level shift *** 
ITER      Energy       Delta-E        Grad      Rot      Max-DP    RMS-DP
 10   -304.83996764  -0.0000152032  0.000295  0.000295  0.001675  0.000020
               *** Restarting incremental Fock matrix formation ***
 11   -304.83998719  -0.0000195436  0.000180  0.000376  0.000976  0.000017
 12   -304.83998826  -0.0000010772  0.000107  0.000214  0.000681  0.000013
 13   -304.83998854  -0.0000002782  0.000043  0.000055  0.000329  0.000004
 14   -304.83998859  -0.0000000463  0.000004  0.000009  0.000090  0.000001
                  ***Gradient check signals convergence***
              ***Rediagonalizing the Fockian in SOSCF/NRSCF***

               *****************************************************
               *                     SUCCESS                       *
               *           SCF CONVERGED AFTER  15 CYCLES          *
               *****************************************************

Old exchange energy                            =    -13.459000524 Eh
New exchange energy                            =    -13.458991797 Eh
Exchange energy change after final integration =      0.000008727 Eh
Total energy after final integration           =   -304.839979860 Eh
Final COS-X integration done in                =     8.790 sec

----------------
TOTAL SCF ENERGY
----------------

Total Energy       :         -304.83997986 Eh           -8295.11757 eV

Components:
Nuclear Repulsion  :          295.26015375 Eh            8034.43725 eV
Electronic Energy  :         -600.10013361 Eh          -16329.55481 eV
One Electron Energy:         -995.54035992 Eh          -27090.03042 eV
Two Electron Energy:          395.44022631 Eh           10760.47561 eV
Max COSX asymmetry :            0.00000203 Eh               0.00006 eV
CPCM Dielectric    :           -0.01720362 Eh              -0.46813 eV

Virial components:
Potential Energy   :         -608.19200869 Eh          -16549.74593 eV
Kinetic Energy     :          303.35202883 Eh            8254.62836 eV
Virial Ratio       :            2.00490503


DFT components:
N(Alpha)           :       26.000053156573 electrons
N(Beta)            :       26.000053156573 electrons
N(Total)           :       52.000106313146 electrons
E(XC)              :      -30.420841785765 Eh       
DFET-embed. en.    :        0.000000000000 Eh       
CPCM Solvation Model Properties:
Surface-charge          :           -0.02597131
Charge-correction       :           -0.00047379 Eh              -0.01289 eV
Free-energy (cav+disp)  :  This term is not implemented in the current solvation scheme

---------------
SCF CONVERGENCE
---------------

  Last Energy change         ...    8.9881e-10  Tolerance :   1.0000e-08
  Last MAX-Density change    ...    1.1044e-15  Tolerance :   1.0000e-07
  Last RMS-Density change    ...    1.5404e-17  Tolerance :   5.0000e-09
  Last Orbital Gradient      ...    1.9542e-06  Tolerance :   1.0000e-05
  Last Orbital Rotation      ...    6.2699e-06  Tolerance :   1.0000e-05

             **** THE GBW FILE WAS UPDATED (1_deprot.gbw) ****
             **** DENSITY 1_deprot.scfp WAS UPDATED ****
             **** ENERGY FILE WAS UPDATED (1_deprot.en.tmp) ****
             **** THE GBW FILE WAS UPDATED (1_deprot.gbw) ****
             **** DENSITY 1_deprot.scfp WAS UPDATED ****
----------------
ORBITAL ENERGIES
----------------

  NO   OCC          E(Eh)            E(eV) 
   0   2.0000     -14.442619      -393.0036 
   1   2.0000     -14.442588      -393.0028 
   2   2.0000     -10.284440      -279.8539 
   3   2.0000     -10.284436      -279.8537 
   4   2.0000     -10.283014      -279.8150 
   5   2.0000     -10.282295      -279.7955 
   6   2.0000     -10.270699      -279.4799 
   7   2.0000      -1.157882       -31.5076 
   8   2.0000      -1.045760       -28.4566 
   9   2.0000      -0.901397       -24.5283 
  10   2.0000      -0.853886       -23.2354 
  11   2.0000      -0.805500       -21.9188 
  12   2.0000      -0.716260       -19.4904 
  13   2.0000      -0.684406       -18.6236 
  14   2.0000      -0.634285       -17.2598 
  15   2.0000      -0.591681       -16.1005 
  16   2.0000      -0.561297       -15.2737 
  17   2.0000      -0.550424       -14.9778 
  18   2.0000      -0.540173       -14.6989 
  19   2.0000      -0.536699       -14.6043 
  20   2.0000      -0.492469       -13.4008 
  21   2.0000      -0.484670       -13.1885 
  22   2.0000      -0.484455       -13.1827 
  23   2.0000      -0.372721       -10.1422 
  24   2.0000      -0.336561        -9.1583 
  25   2.0000      -0.329136        -8.9562 
  26   0.0000       0.106755         2.9049 
  27   0.0000       0.111719         3.0400 
  28   0.0000       0.139386         3.7929 
  29   0.0000       0.141976         3.8634 
  30   0.0000       0.173268         4.7149 
  31   0.0000       0.182503         4.9661 
  32   0.0000       0.196252         5.3403 
  33   0.0000       0.203966         5.5502 
  34   0.0000       0.205273         5.5858 
  35   0.0000       0.214658         5.8412 
  36   0.0000       0.216448         5.8898 
  37   0.0000       0.220620         6.0034 
  38   0.0000       0.236741         6.4420 
  39   0.0000       0.259736         7.0678 
  40   0.0000       0.265606         7.2275 
  41   0.0000       0.289021         7.8647 
  42   0.0000       0.303436         8.2569 
  43   0.0000       0.320118         8.7109 
  44   0.0000       0.320339         8.7169 
  45   0.0000       0.332487         9.0474 
  46   0.0000       0.354652         9.6506 
  47   0.0000       0.367260         9.9937 
  48   0.0000       0.367734        10.0066 
  49   0.0000       0.400069        10.8864 
  50   0.0000       0.403198        10.9716 
  51   0.0000       0.406071        11.0497 
  52   0.0000       0.435482        11.8501 
  53   0.0000       0.443770        12.0756 
  54   0.0000       0.454275        12.3614 
  55   0.0000       0.481704        13.1078 
  56   0.0000       0.483208        13.1488 
  57   0.0000       0.500119        13.6089 
  58   0.0000       0.501117        13.6361 
  59   0.0000       0.533798        14.5254 
  60   0.0000       0.539546        14.6818 
  61   0.0000       0.554989        15.1020 
  62   0.0000       0.556622        15.1465 
  63   0.0000       0.559328        15.2201 
  64   0.0000       0.573100        15.5948 
  65   0.0000       0.586212        15.9516 
  66   0.0000       0.619884        16.8679 
  67   0.0000       0.627895        17.0859 
  68   0.0000       0.634263        17.2592 
  69   0.0000       0.649352        17.6698 
  70   0.0000       0.661827        18.0092 
  71   0.0000       0.674192        18.3457 
  72   0.0000       0.693015        18.8579 
  73   0.0000       0.710244        19.3267 
  74   0.0000       0.715096        19.4588 
  75   0.0000       0.731523        19.9058 
  76   0.0000       0.775459        21.1013 
  77   0.0000       0.804271        21.8853 
  78   0.0000       0.829172        22.5629 
  79   0.0000       0.830244        22.5921 
  80   0.0000       0.835048        22.7228 
  81   0.0000       0.903648        24.5895 
  82   0.0000       0.912896        24.8412 
  83   0.0000       0.947348        25.7787 
  84   0.0000       0.971433        26.4340 
  85   0.0000       1.001236        27.2450 
  86   0.0000       1.024069        27.8663 
  87   0.0000       1.028665        27.9914 
  88   0.0000       1.055002        28.7081 
  89   0.0000       1.101512        29.9737 
  90   0.0000       1.101562        29.9750 
  91   0.0000       1.152342        31.3568 
  92   0.0000       1.156929        31.4816 
  93   0.0000       1.156953        31.4823 
  94   0.0000       1.168182        31.7879 
  95   0.0000       1.174951        31.9720 
  96   0.0000       1.196862        32.5683 
  97   0.0000       1.227620        33.4052 
  98   0.0000       1.248672        33.9781 
  99   0.0000       1.310005        35.6471 
 100   0.0000       1.332834        36.2683 
 101   0.0000       1.339065        36.4378 
 102   0.0000       1.432885        38.9908 
 103   0.0000       1.434236        39.0275 
 104   0.0000       1.460887        39.7528 
 105   0.0000       1.471159        40.0323 
 106   0.0000       1.518967        41.3332 
 107   0.0000       1.555160        42.3181 
 108   0.0000       1.568216        42.6733 
 109   0.0000       1.577296        42.9204 
 110   0.0000       1.611009        43.8378 
 111   0.0000       1.618491        44.0414 
 112   0.0000       1.628830        44.3227 
 113   0.0000       1.633410        44.4473 
 114   0.0000       1.638461        44.5848 
 115   0.0000       1.645404        44.7737 
 116   0.0000       1.673019        45.5252 
 117   0.0000       1.698807        46.2269 
 118   0.0000       1.717055        46.7234 
 119   0.0000       1.725152        46.9438 
 120   0.0000       1.740200        47.3532 
 121   0.0000       1.741164        47.3795 
 122   0.0000       1.741920        47.4000 
 123   0.0000       1.760579        47.9078 
 124   0.0000       1.760765        47.9128 
 125   0.0000       1.817512        49.4570 
 126   0.0000       1.841493        50.1096 
 127   0.0000       1.860818        50.6354 
 128   0.0000       1.941911        52.8421 
 129   0.0000       1.973629        53.7052 
 130   0.0000       2.027971        55.1839 
 131   0.0000       2.031200        55.2718 
 132   0.0000       2.051004        55.8107 
 133   0.0000       2.055986        55.9462 
 134   0.0000       2.091999        56.9262 
 135   0.0000       2.112589        57.4865 
 136   0.0000       2.126757        57.8720 
 137   0.0000       2.148970        58.4764 
 138   0.0000       2.202236        59.9259 
 139   0.0000       2.226725        60.5923 
 140   0.0000       2.235318        60.8261 
 141   0.0000       2.247227        61.1502 
 142   0.0000       2.315649        63.0120 
 143   0.0000       2.347724        63.8848 
 144   0.0000       2.358774        64.1855 
 145   0.0000       2.391655        65.0802 
 146   0.0000       2.401116        65.3377 
 147   0.0000       2.409947        65.5780 
 148   0.0000       2.438134        66.3450 
 149   0.0000       2.445425        66.5434 
 150   0.0000       2.497988        67.9737 
 151   0.0000       2.500872        68.0522 
 152   0.0000       2.502634        68.1001 
 153   0.0000       2.520170        68.5773 
 154   0.0000       2.558591        69.6228 
 155   0.0000       2.623164        71.3799 
 156   0.0000       2.633001        71.6476 
 157   0.0000       2.634416        71.6861 
 158   0.0000       2.650280        72.1178 
 159   0.0000       2.662005        72.4368 
 160   0.0000       2.675387        72.8010 
 161   0.0000       2.717422        73.9448 
 162   0.0000       2.719045        73.9890 
 163   0.0000       2.744250        74.6748 
 164   0.0000       2.774198        75.4898 
 165   0.0000       2.809847        76.4598 
 166   0.0000       2.816824        76.6497 
 167   0.0000       2.853608        77.6506 
 168   0.0000       2.896515        78.8182 
 169   0.0000       2.922998        79.5388 
 170   0.0000       2.972639        80.8896 
 171   0.0000       2.988988        81.3345 
 172   0.0000       3.001669        81.6796 
 173   0.0000       3.074999        83.6750 
 174   0.0000       3.077033        83.7303 
 175   0.0000       3.080615        83.8278 
 176   0.0000       3.093299        84.1729 
 177   0.0000       3.101380        84.3928 
 178   0.0000       3.123840        85.0040 
 179   0.0000       3.152288        85.7781 
 180   0.0000       3.165002        86.1241 
 181   0.0000       3.189538        86.7917 
 182   0.0000       3.215530        87.4990 
 183   0.0000       3.216329        87.5208 
 184   0.0000       3.222162        87.6795 
 185   0.0000       3.266121        88.8757 
 186   0.0000       3.304010        89.9067 
 187   0.0000       3.310824        90.0921 
 188   0.0000       3.313651        90.1690 
 189   0.0000       3.326026        90.5058 
 190   0.0000       3.353992        91.2668 
 191   0.0000       3.357747        91.3689 
 192   0.0000       3.367672        91.6390 
 193   0.0000       3.400909        92.5434 
 194   0.0000       3.421376        93.1004 
 195   0.0000       3.434766        93.4647 
 196   0.0000       3.483372        94.7874 
 197   0.0000       3.490130        94.9713 
 198   0.0000       3.497127        95.1617 
 199   0.0000       3.577305        97.3434 
 200   0.0000       3.590818        97.7111 
 201   0.0000       3.598172        97.9112 
 202   0.0000       3.623539        98.6015 
 203   0.0000       3.629370        98.7602 
 204   0.0000       3.685577       100.2896 
 205   0.0000       3.697537       100.6151 
 206   0.0000       3.701749       100.7297 
 207   0.0000       3.702784       100.7579 
 208   0.0000       3.761022       102.3426 
 209   0.0000       3.774527       102.7101 
 210   0.0000       3.821788       103.9961 
 211   0.0000       3.823725       104.0489 
 212   0.0000       3.897993       106.0698 
 213   0.0000       3.962013       107.8119 
 214   0.0000       3.976101       108.1952 
 215   0.0000       3.983437       108.3948 
 216   0.0000       4.035060       109.7996 
 217   0.0000       4.105243       111.7093 
 218   0.0000       4.196870       114.2026 
 219   0.0000       4.240493       115.3897 
 220   0.0000       4.259352       115.9029 
 221   0.0000       4.283144       116.5503 
 222   0.0000       4.306112       117.1753 
 223   0.0000       4.311913       117.3331 
 224   0.0000       4.373123       118.9987 
 225   0.0000       4.393164       119.5441 
 226   0.0000       4.478775       121.8737 
 227   0.0000       4.503292       122.5408 
 228   0.0000       4.528665       123.2312 
 229   0.0000       4.585047       124.7655 
 230   0.0000       4.605071       125.3104 
 231   0.0000       4.761631       129.5706 
 232   0.0000       4.858907       132.2176 
 233   0.0000       4.866650       132.4283 
 234   0.0000       4.958172       134.9187 
 235   0.0000       4.975504       135.3903 
 236   0.0000       5.065605       137.8421 
 237   0.0000       5.066214       137.8587 
 238   0.0000       5.114915       139.1839 
 239   0.0000       5.122329       139.3856 
 240   0.0000       5.197953       141.4435 
 241   0.0000       5.199365       141.4819 
 242   0.0000       5.219987       142.0431 
 243   0.0000       5.302885       144.2988 
 244   0.0000       5.356799       145.7659 
 245   0.0000       5.404978       147.0769 
 246   0.0000       5.414514       147.3364 
 247   0.0000       5.435794       147.9155 
 248   0.0000       5.480552       149.1334 
 249   0.0000       5.572789       151.6433 
 250   0.0000       5.673710       154.3895 
 251   0.0000       5.787925       157.4974 
 252   0.0000       5.847483       159.1181 
 253   0.0000       5.850323       159.1954 
 254   0.0000       5.994178       163.1099 
 255   0.0000       6.032562       164.1544 
 256   0.0000       6.049935       164.6271 
 257   0.0000       6.244320       169.9166 
 258   0.0000      22.348781       608.1413 
 259   0.0000      22.473107       611.5243 
 260   0.0000      22.503868       612.3614 
 261   0.0000      22.637139       615.9879 
 262   0.0000      22.929184       623.9348 
 263   0.0000      32.714495       890.2067 
 264   0.0000      33.023210       898.6072 

                    ********************************
                    * MULLIKEN POPULATION ANALYSIS *
                    ********************************

-----------------------
MULLIKEN ATOMIC CHARGES
-----------------------
   0 C :   -0.149002
   1 C :   -0.148987
   2 N :   -0.052582
   3 N :   -0.052575
   4 C :   -0.331300
   5 H :    0.209400
   6 H :    0.209392
   7 C :   -0.300071
   8 C :   -0.300054
   9 H :    0.153504
  10 H :    0.153504
  11 H :    0.153505
  12 H :    0.153504
  13 H :    0.150880
  14 H :    0.150881
Sum of atomic charges:    0.0000000

--------------------------------
MULLIKEN REDUCED ORBITAL CHARGES
--------------------------------
  0 C s       :     3.187033  s :     3.187033
      pz      :     0.829193  p :     2.855909
      px      :     1.060270
      py      :     0.966446
      dz2     :     0.016691  d :     0.094769
      dxz     :     0.021020
      dyz     :     0.030181
      dx2y2   :     0.007350
      dxy     :     0.019528
      f0      :     0.002428  f :     0.011292
      f+1     :     0.002283
      f-1     :     0.001833
      f+2     :     0.001689
      f-2     :     0.000358
      f+3     :     0.002071
      f-3     :     0.000629
  1 C s       :     3.187035  s :     3.187035
      pz      :     0.829202  p :     2.855886
      px      :     1.060269
      py      :     0.966415
      dz2     :     0.016692  d :     0.094774
      dxz     :     0.021020
      dyz     :     0.030183
      dx2y2   :     0.007352
      dxy     :     0.019528
      f0      :     0.002428  f :     0.011291
      f+1     :     0.002283
      f-1     :     0.001833
      f+2     :     0.001689
      f-2     :     0.000358
      f+3     :     0.002071
      f-3     :     0.000629
  2 N s       :     3.447095  s :     3.447095
      pz      :     1.037813  p :     3.498835
      px      :     1.434789
      py      :     1.026233
      dz2     :     0.027041  d :     0.101058
      dxz     :     0.017011
      dyz     :     0.027061
      dx2y2   :     0.015305
      dxy     :     0.014641
      f0      :     0.000731  f :     0.005595
      f+1     :     0.000647
      f-1     :     0.001306
      f+2     :     0.000783
      f-2     :     0.000487
      f+3     :     0.000817
      f-3     :     0.000823
  3 N s       :     3.447080  s :     3.447080
      pz      :     1.037821  p :     3.498841
      px      :     1.434790
      py      :     1.026230
      dz2     :     0.027041  d :     0.101059
      dxz     :     0.017011
      dyz     :     0.027061
      dx2y2   :     0.015305
      dxy     :     0.014641
      f0      :     0.000731  f :     0.005595
      f+1     :     0.000647
      f-1     :     0.001306
      f+2     :     0.000783
      f-2     :     0.000487
      f+3     :     0.000817
      f-3     :     0.000823
  4 C s       :     3.671938  s :     3.671938
      pz      :     1.162828  p :     2.537778
      px      :     0.726216
      py      :     0.648734
      dz2     :     0.013910  d :     0.108111
      dxz     :     0.020168
      dyz     :     0.031502
      dx2y2   :     0.009972
      dxy     :     0.032559
      f0      :     0.001370  f :     0.013473
      f+1     :     0.000440
      f-1     :     0.003400
      f+2     :     0.001941
      f-2     :     0.003643
      f+3     :     0.001761
      f-3     :     0.000918
  5 H s       :     0.768246  s :     0.768246
      pz      :     0.009725  p :     0.022354
      px      :     0.004672
      py      :     0.007958
  6 H s       :     0.768254  s :     0.768254
      pz      :     0.009725  p :     0.022354
      px      :     0.004671
      py      :     0.007958
  7 C s       :     3.309441  s :     3.309441
      pz      :     1.068022  p :     2.918981
      px      :     1.084907
      py      :     0.766052
      dz2     :     0.012572  d :     0.066387
      dxz     :     0.004043
      dyz     :     0.012462
      dx2y2   :     0.007016
      dxy     :     0.030295
      f0      :     0.001059  f :     0.005262
      f+1     :    -0.000028
      f-1     :     0.000742
      f+2     :     0.000631
      f-2     :     0.000288
      f+3     :     0.001408
      f-3     :     0.001162
  8 C s       :     3.309417  s :     3.309417
      pz      :     1.068021  p :     2.918985
      px      :     1.084908
      py      :     0.766057
      dz2     :     0.012573  d :     0.066390
      dxz     :     0.004043
      dyz     :     0.012462
      dx2y2   :     0.007016
      dxy     :     0.030296
      f0      :     0.001059  f :     0.005262
      f+1     :    -0.000028
      f-1     :     0.000742
      f+2     :     0.000631
      f-2     :     0.000288
      f+3     :     0.001408
      f-3     :     0.001162
  9 H s       :     0.825316  s :     0.825316
      pz      :     0.004831  p :     0.021180
      px      :     0.010568
      py      :     0.005781
 10 H s       :     0.825316  s :     0.825316
      pz      :     0.004831  p :     0.021180
      px      :     0.010568
      py      :     0.005781
 11 H s       :     0.825315  s :     0.825315
      pz      :     0.004830  p :     0.021180
      px      :     0.010568
      py      :     0.005781
 12 H s       :     0.825316  s :     0.825316
      pz      :     0.004831  p :     0.021180
      px      :     0.010568
      py      :     0.005781
 13 H s       :     0.827070  s :     0.827070
      pz      :     0.014817  p :     0.022050
      px      :     0.004061
      py      :     0.003173
 14 H s       :     0.827068  s :     0.827068
      pz      :     0.014817  p :     0.022050
      px      :     0.004061
      py      :     0.003173


                     *******************************
                     * LOEWDIN POPULATION ANALYSIS *
                     *******************************

----------------------
LOEWDIN ATOMIC CHARGES
----------------------
   0 C :   -0.218262
   1 C :   -0.218261
   2 N :    0.174970
   3 N :    0.174970
   4 C :   -0.424815
   5 H :    0.152561
   6 H :    0.152561
   7 C :   -0.274232
   8 C :   -0.274232
   9 H :    0.125045
  10 H :    0.125045
  11 H :    0.125045
  12 H :    0.125045
  13 H :    0.127280
  14 H :    0.127280

-------------------------------
LOEWDIN REDUCED ORBITAL CHARGES
-------------------------------
  0 C s       :     2.778701  s :     2.778701
      pz      :     0.903006  p :     2.936008
      px      :     0.979292
      py      :     1.053710
      dz2     :     0.105262  d :     0.436446
      dxz     :     0.064226
      dyz     :     0.155258
      dx2y2   :     0.047632
      dxy     :     0.064069
      f0      :     0.018578  f :     0.067106
      f+1     :     0.013304
      f-1     :     0.011732
      f+2     :     0.008918
      f-2     :     0.002415
      f+3     :     0.006836
      f-3     :     0.005324
  1 C s       :     2.778701  s :     2.778701
      pz      :     0.903006  p :     2.936007
      px      :     0.979291
      py      :     1.053710
      dz2     :     0.105262  d :     0.436446
      dxz     :     0.064226
      dyz     :     0.155258
      dx2y2   :     0.047632
      dxy     :     0.064069
      f0      :     0.018578  f :     0.067106
      f+1     :     0.013304
      f-1     :     0.011732
      f+2     :     0.008918
      f-2     :     0.002415
      f+3     :     0.006836
      f-3     :     0.005324
  2 N s       :     2.874621  s :     2.874621
      pz      :     1.177355  p :     3.583011
      px      :     1.247332
      py      :     1.158323
      dz2     :     0.095693  d :     0.343670
      dxz     :     0.053367
      dyz     :     0.109053
      dx2y2   :     0.045682
      dxy     :     0.039874
      f0      :     0.003361  f :     0.023728
      f+1     :     0.001931
      f-1     :     0.007617
      f+2     :     0.003266
      f-2     :     0.002914
      f+3     :     0.002403
      f-3     :     0.002237
  3 N s       :     2.874621  s :     2.874621
      pz      :     1.177355  p :     3.583011
      px      :     1.247332
      py      :     1.158323
      dz2     :     0.095693  d :     0.343670
      dxz     :     0.053367
      dyz     :     0.109053
      dx2y2   :     0.045682
      dxy     :     0.039874
      f0      :     0.003361  f :     0.023728
      f+1     :     0.001931
      f-1     :     0.007617
      f+2     :     0.003266
      f-2     :     0.002914
      f+3     :     0.002403
      f-3     :     0.002237
  4 C s       :     3.043436  s :     3.043436
      pz      :     1.299009  p :     2.856624
      px      :     0.733252
      py      :     0.824363
      dz2     :     0.071074  d :     0.437454
      dxz     :     0.034924
      dyz     :     0.142924
      dx2y2   :     0.081050
      dxy     :     0.107483
      f0      :     0.010148  f :     0.087301
      f+1     :     0.001209
      f-1     :     0.026893
      f+2     :     0.014988
      f-2     :     0.022149
      f+3     :     0.005768
      f-3     :     0.006148
  5 H s       :     0.785451  s :     0.785451
      pz      :     0.026492  p :     0.061989
      px      :     0.014491
      py      :     0.021006
  6 H s       :     0.785451  s :     0.785451
      pz      :     0.026492  p :     0.061988
      px      :     0.014491
      py      :     0.021006
  7 C s       :     2.838801  s :     2.838801
      pz      :     1.082243  p :     3.091125
      px      :     1.100341
      py      :     0.908541
      dz2     :     0.067470  d :     0.305922
      dxz     :     0.014788
      dyz     :     0.054741
      dx2y2   :     0.055297
      dxy     :     0.113627
      f0      :     0.005017  f :     0.038384
      f+1     :     0.000444
      f-1     :     0.005267
      f+2     :     0.007337
      f-2     :     0.005531
      f+3     :     0.007636
      f-3     :     0.007151
  8 C s       :     2.838800  s :     2.838800
      pz      :     1.082243  p :     3.091125
      px      :     1.100341
      py      :     0.908541
      dz2     :     0.067470  d :     0.305922
      dxz     :     0.014788
      dyz     :     0.054741
      dx2y2   :     0.055297
      dxy     :     0.113627
      f0      :     0.005017  f :     0.038384
      f+1     :     0.000444
      f-1     :     0.005267
      f+2     :     0.007337
      f-2     :     0.005531
      f+3     :     0.007636
      f-3     :     0.007151
  9 H s       :     0.814690  s :     0.814690
      pz      :     0.015459  p :     0.060265
      px      :     0.029544
      py      :     0.015262
 10 H s       :     0.814690  s :     0.814690
      pz      :     0.015459  p :     0.060265
      px      :     0.029544
      py      :     0.015262
 11 H s       :     0.814690  s :     0.814690
      pz      :     0.015459  p :     0.060265
      px      :     0.029544
      py      :     0.015262
 12 H s       :     0.814690  s :     0.814690
      pz      :     0.015459  p :     0.060265
      px      :     0.029544
      py      :     0.015262
 13 H s       :     0.811832  s :     0.811832
      pz      :     0.038784  p :     0.060888
      px      :     0.013036
      py      :     0.009068
 14 H s       :     0.811832  s :     0.811832
      pz      :     0.038784  p :     0.060888
      px      :     0.013036
      py      :     0.009068


                      *****************************
                      * MAYER POPULATION ANALYSIS *
                      *****************************

  NA   - Mulliken gross atomic population
  ZA   - Total nuclear charge
  QA   - Mulliken gross atomic charge
  VA   - Mayer's total valence
  BVA  - Mayer's bonded valence
  FA   - Mayer's free valence

  ATOM       NA         ZA         QA         VA         BVA        FA
  0 C      6.1490     6.0000    -0.1490     3.8970     3.8970    -0.0000
  1 C      6.1490     6.0000    -0.1490     3.8970     3.8970     0.0000
  2 N      7.0526     7.0000    -0.0526     3.2033     3.2033     0.0000
  3 N      7.0526     7.0000    -0.0526     3.2033     3.2033     0.0000
  4 C      6.3313     6.0000    -0.3313     2.6270     2.6270     0.0000
  5 H      0.7906     1.0000     0.2094     0.9587     0.9587    -0.0000
  6 H      0.7906     1.0000     0.2094     0.9587     0.9587     0.0000
  7 C      6.3001     6.0000    -0.3001     3.8118     3.8118     0.0000
  8 C      6.3001     6.0000    -0.3001     3.8119     3.8119     0.0000
  9 H      0.8465     1.0000     0.1535     0.9543     0.9543     0.0000
 10 H      0.8465     1.0000     0.1535     0.9543     0.9543     0.0000
 11 H      0.8465     1.0000     0.1535     0.9543     0.9543     0.0000
 12 H      0.8465     1.0000     0.1535     0.9543     0.9543    -0.0000
 13 H      0.8491     1.0000     0.1509     0.9746     0.9746     0.0000
 14 H      0.8491     1.0000     0.1509     0.9746     0.9746    -0.0000

  Mayer bond orders larger than 0.100000
B(  0-C ,  1-C ) :   1.7381 B(  0-C ,  2-N ) :   1.1154 B(  0-C ,  5-H ) :   0.9384 
B(  1-C ,  3-N ) :   1.1154 B(  1-C ,  6-H ) :   0.9384 B(  2-N ,  4-C ) :   1.2063 
B(  2-N ,  7-C ) :   0.8853 B(  3-N ,  4-C ) :   1.2063 B(  3-N ,  8-C ) :   0.8853 
B(  7-C ,  9-H ) :   0.9668 B(  7-C , 12-H ) :   0.9668 B(  7-C , 13-H ) :   0.9706 
B(  8-C , 10-H ) :   0.9668 B(  8-C , 11-H ) :   0.9668 B(  8-C , 14-H ) :   0.9706 


-------
TIMINGS
-------

Total SCF time: 0 days 0 hours 1 min 3 sec 

Total time                  ....      63.754 sec
Sum of individual times     ....      63.359 sec  ( 99.4%)

Fock matrix formation       ....      61.979 sec  ( 97.2%)
  Split-RI-J                ....       2.748 sec  (  4.4% of F)
  Chain of spheres X        ....      47.785 sec  ( 77.1% of F)
  XC integration            ....       6.288 sec  ( 10.1% of F)
    Basis function eval.    ....       1.511 sec  ( 24.0% of XC)
    Density eval.           ....       1.399 sec  ( 22.3% of XC)
    XC-Functional eval.     ....       0.476 sec  (  7.6% of XC)
    XC-Potential eval.      ....       2.263 sec  ( 36.0% of XC)
Diagonalization             ....       0.147 sec  (  0.2%)
Density matrix formation    ....       0.011 sec  (  0.0%)
Population analysis         ....       0.014 sec  (  0.0%)
Initial guess               ....       0.226 sec  (  0.4%)
Orbital Transformation      ....       0.000 sec  (  0.0%)
Orbital Orthonormalization  ....       0.000 sec  (  0.0%)
DIIS solution               ....       0.096 sec  (  0.2%)
SOSCF solution              ....       0.061 sec  (  0.1%)
Grid generation             ....       0.827 sec  (  1.3%)

Maximum memory used throughout the entire SCF-calculation: 75.8 MB


-------------------------------------------------------------------------------
                          DFT DISPERSION CORRECTION                            
                                                                               
                                 DFTD4 V2.5                                    
-------------------------------------------------------------------------------
The WB97X functional is recognized
Active option DFTDOPT                   ...         5   

Starting D4
-------------------------   ----------------
Dispersion correction           -0.001728038
-------------------------   ----------------


-------------------------   --------------------
FINAL SINGLE POINT ENERGY      -304.841707898688
-------------------------   --------------------



           ************************************************************
           *        Program running with 4 parallel MPI-processes     *
           *              working on a common directory               *
           ************************************************************
------------------------------------------------------------------------------
                         ORCA SCF GRADIENT CALCULATION
------------------------------------------------------------------------------

 ... reading COSX grid (gridx3)
Gradient of the Kohn-Sham DFT energy:
Kohn-Sham wavefunction type      ... RKS
Hartree-Fock exchange scaling    ...    0.158
Number of operators              ...    1
Number of atoms                  ...   15
Basis set dimensions             ...  265
Integral neglect threshold       ... 2.5e-11
Integral primitive cutoff        ... 2.5e-12
SHARK Integral package           ... ON

Nuc. rep. gradient       (SHARK) ... done (  0.0 sec)
HCore & Overlap gradient (SHARK) ... done (  0.1 sec)
RI-J gradient            (SHARK) ... done (  1.3 sec)
COSX-gradient                    ... done (  9.6 sec)
Exchange-correlation gradient    ... done
Dispersion correction            ... Starting D4
Starting D4
Starting D4
Starting D4


------------------- 
Dispersion Gradient 
------------------- 
   1  :   -0.000000000    0.000010422   -0.000015461
   2  :   -0.000000000   -0.000010422   -0.000015461
   3  :    0.000000000    0.000012014   -0.000000519
   4  :    0.000000000   -0.000012014   -0.000000520
   5  :   -0.000000000   -0.000000000    0.000006196
   6  :    0.000000000    0.000002629   -0.000002513
   7  :   -0.000000000   -0.000002629   -0.000002513
   8  :   -0.000000000    0.000040419    0.000009416
   9  :    0.000000000   -0.000040419    0.000009416
  10  :    0.000000935    0.000005937    0.000002475
  11  :    0.000000935   -0.000005937    0.000002475
  12  :   -0.000000935   -0.000005937    0.000002475
  13  :   -0.000000935    0.000005937    0.000002475
  14  :    0.000000000    0.000007112    0.000001031
  15  :    0.000000000   -0.000007112    0.000001031

  |G| =    0.000063504

done

------------------
CARTESIAN GRADIENT
------------------

   1   C   :    0.000000056    0.003619450    0.001790551
   2   C   :   -0.000000133   -0.003619469    0.001790452
   3   N   :   -0.000000041    0.003139769    0.000879174
   4   N   :    0.000000146   -0.003139894    0.000878884
   5   C   :   -0.000000044    0.000000114    0.006394785
   6   H   :    0.000000019    0.004930077   -0.005909028
   7   H   :   -0.000000006   -0.004930054   -0.005909046
   8   C   :    0.000000107   -0.005798195   -0.002155017
   9   C   :   -0.000000416    0.005798117   -0.002155128
  10   H   :   -0.004834262    0.003366467   -0.001842032
  11   H   :   -0.004833877   -0.003366136   -0.001841803
  12   H   :    0.004834271   -0.003366379   -0.001841967
  13   H   :    0.004834107    0.003366359   -0.001841935
  14   H   :    0.000000021    0.000191914    0.006143825
  15   H   :   -0.000000002   -0.000191951    0.006143855

Difference to translation invariance:
           :   -0.0000000533    0.0000001877    0.0005255699

Difference to rotation invariance:
           :   -0.0000000364    0.0000000319    0.0000000548

Norm of the cartesian gradient     ...    0.0227526067
RMS gradient                       ...    0.0033917584
MAX gradient                       ...    0.0063947851

-------
TIMINGS
-------

Total SCF gradient time            ...       13.699 sec

One electron gradient       ....       0.116 sec  (  0.8%)
RI-J Coulomb gradient       ....       1.310 sec  (  9.6%)
COSX gradient               ....       9.634 sec  ( 70.3%)
XC gradient                 ....       1.535 sec  ( 11.2%)
CPCM gradient               ....       0.266 sec  (  1.9%)
   A-Matrix (El+Nuc)        ....       0.031 sec  (  0.2%)
   Potential                ....       0.235 sec  (  1.7%)

Maximum memory used throughout the entire SCFGRAD-calculation: 48.5 MB
------------------------------------------------------------------------------
                         ORCA GEOMETRY RELAXATION STEP
------------------------------------------------------------------------------

Reading the OPT-File                    .... done
Getting information on internals        .... done
Copying old internal coords+grads       .... done
Making the new internal coordinates     .... (new redundants).... done
Validating the new internal coordinates .... (new redundants).... done
Calculating the B-matrix                .... done
Calculating the G,G- and P matrices     .... done
Transforming gradient to internals      .... done
Projecting the internal gradient        .... done
Number of atoms                         ....  15
Number of internal coordinates          ....  68
Current Energy                          ....  -304.841707899 Eh
Current gradient norm                   ....     0.022752607 Eh/bohr
Maximum allowed component of the step   ....  0.300
Current trust radius                    ....  0.300
Evaluating the initial hessian          ....  (Almloef) done
Projecting the Hessian                  .... done
Forming the augmented Hessian           .... done
Diagonalizing the augmented Hessian     .... done
Last element of RFO vector              ....  0.998401799
Lowest eigenvalues of augmented Hessian:
 -0.001249993  0.017159134  0.017159134  0.021609052  0.022715662
Length of the computed step             ....  0.056604606
The final length of the internal step   ....  0.056604606
Converting the step to cartesian space:
 Initial RMS(Int)=    0.0068643168
Transforming coordinates:
 Iter   0:  RMS(Cart)=    0.0112534523 RMS(Int)=    0.7619789425
 Iter   1:  RMS(Cart)=    0.0000131620 RMS(Int)=    0.0000072915
 Iter   2:  RMS(Cart)=    0.0000001033 RMS(Int)=    0.0000000668
 Iter   3:  RMS(Cart)=    0.0000000008 RMS(Int)=    0.0000000006
done
Storing new coordinates                 .... done

                                .--------------------.
          ----------------------|Geometry convergence|-------------------------
          Item                value                   Tolerance       Converged
          ---------------------------------------------------------------------
          RMS gradient        0.0027623721            0.0001000000      NO
          MAX gradient        0.0091238958            0.0003000000      NO
          RMS step            0.0068643168            0.0020000000      NO
          MAX step            0.0212908993            0.0040000000      NO
          ........................................................
          Max(Bonds)      0.0113      Max(Angles)    0.12
          Max(Dihed)        0.03      Max(Improp)    0.00
          ---------------------------------------------------------------------

The optimization has not yet converged - more geometry cycles are needed


    ---------------------------------------------------------------------------
                         Redundant Internal Coordinates
                            (Angstroem and degrees)

        Definition                    Value    dE/dq     Step     New-Value
    ----------------------------------------------------------------------------
     1. B(C   1,C   0)                1.3557  0.009124 -0.0069    1.3488   
     2. B(N   2,C   0)                1.3849  0.004184 -0.0039    1.3810   
     3. B(N   3,C   1)                1.3849  0.004184 -0.0039    1.3810   
     4. B(C   4,N   3)                1.3601  0.004870 -0.0040    1.3561   
     5. B(C   4,N   2)                1.3601  0.004869 -0.0040    1.3561   
     6. B(H   5,C   0)                1.0891  0.007720 -0.0113    1.0778   
     7. B(H   6,C   1)                1.0891  0.007720 -0.0113    1.0778   
     8. B(C   7,N   2)                1.4502  0.001125 -0.0013    1.4489   
     9. B(C   8,N   3)                1.4502  0.001125 -0.0013    1.4489   
    10. B(H   9,C   7)                1.1001  0.006161 -0.0094    1.0908   
    11. B(H  10,C   8)                1.1001  0.006160 -0.0094    1.0908   
    12. B(H  11,C   8)                1.1001  0.006161 -0.0094    1.0908   
    13. B(H  12,C   7)                1.1001  0.006160 -0.0094    1.0908   
    14. B(H  13,C   7)                1.0965  0.006111 -0.0092    1.0874   
    15. B(H  14,C   8)                1.0965  0.006111 -0.0092    1.0874   
    16. A(C   1,C   0,N   2)          106.09 -0.000635    0.06    106.14   
    17. A(N   2,C   0,H   5)          122.85  0.000511   -0.06    122.79   
    18. A(C   1,C   0,H   5)          131.07  0.000124    0.00    131.07   
    19. A(N   3,C   1,H   6)          122.85  0.000511   -0.06    122.79   
[...]
      2       0.008040   0.000000   0.000000   0.077078   0.015432  -0.052606
      3      -0.000000   0.001139  -0.000869  -0.000000   0.000000   0.000000
      4      -0.003429   0.000000  -0.000000   0.047115  -0.031694  -0.047398
      5       0.008039  -0.000000  -0.000000  -0.077078   0.015433   0.052606
      6       0.000000   0.011360   0.012095  -0.000000  -0.000000  -0.000000
      7       0.026810  -0.000000  -0.000000  -0.084703   0.013384   0.118158
      8      -0.013400  -0.000000  -0.000000  -0.057800  -0.044815  -0.003816
      9       0.000000  -0.011358   0.012097   0.000000  -0.000000   0.000000
     10      -0.026811  -0.000000  -0.000000  -0.084704  -0.013382   0.118159
     11      -0.013400   0.000000  -0.000000   0.057800  -0.044816   0.003817
     12      -0.000000  -0.000000  -0.000624  -0.000000   0.000000   0.000000
     13       0.000000   0.000000   0.000000   0.070382  -0.000001  -0.115096
     14       0.007149   0.000000   0.000000   0.000000   0.042067  -0.000001
     15       0.000000   0.001030  -0.000696  -0.000000  -0.000000   0.000000
     16       0.014259  -0.000001  -0.000000  -0.188614  -0.004455   0.180205
     17       0.019527  -0.000001  -0.000000  -0.119860  -0.020151   0.138420
     18      -0.000000  -0.001030  -0.000696   0.000000  -0.000000  -0.000000
     19      -0.014259  -0.000001  -0.000000  -0.188614   0.004457   0.180205
     20       0.019528   0.000001   0.000000   0.119860  -0.020152  -0.138419
     21       0.000000   0.034784   0.034333  -0.000000  -0.000000  -0.000000
     22      -0.094111   0.000000   0.000000   0.033478   0.027112   0.012021
     23      -0.035907  -0.000000   0.000000  -0.018965  -0.017208  -0.012092
     24       0.000000  -0.034777   0.034340   0.000000  -0.000000   0.000000
     25       0.094113   0.000000  -0.000000   0.033478  -0.027113   0.012021
     26      -0.035908  -0.000000   0.000000   0.018965  -0.017207   0.012092
     27       0.073296  -0.032224  -0.031949  -0.231568  -0.281782  -0.252958
     28       0.253358   0.141804   0.143313  -0.169563  -0.315831  -0.373285
     29       0.251144   0.321471   0.321668   0.279828   0.213853   0.085883
     30       0.073297   0.032217  -0.031954   0.231567  -0.281780   0.252960
     31      -0.253362   0.141779  -0.143341  -0.169562   0.315829  -0.373289
     32       0.251149  -0.321410   0.321727  -0.279829   0.213855  -0.085884
     33      -0.073297   0.032214  -0.031952  -0.231567   0.281780  -0.252960
     34      -0.253361  -0.141782   0.143345  -0.169560   0.315828  -0.373288
     35       0.251146   0.321408  -0.321728  -0.279833   0.213857  -0.085886
     36      -0.073296  -0.032219  -0.031945   0.231568   0.281781   0.252957
     37       0.253356  -0.141810  -0.143319  -0.169560  -0.315829  -0.373284
     38       0.251141  -0.321467  -0.321667   0.279836   0.213859   0.085885
     39      -0.000001  -0.499772  -0.498518   0.000006   0.000004   0.000002
     40       0.469959   0.000002   0.000000   0.325103   0.210375   0.031728
     41      -0.046139  -0.000001  -0.000001  -0.019302  -0.014298  -0.006446
     42      -0.000002   0.499679  -0.498611  -0.000004   0.000002  -0.000001
     43      -0.469968   0.000001   0.000001   0.325102  -0.210375   0.031730
     44      -0.046140  -0.000000   0.000000   0.019302  -0.014298   0.006446
                 36         37         38         39         40         41    
      0       0.000000   0.000000   0.000000   0.000145  -0.000155  -0.000000
      1      -0.389094   0.000237   0.000793  -0.000000   0.000000  -0.000098
      2      -0.047264   0.000104   0.000336   0.000000  -0.000000   0.000398
      3      -0.000000  -0.000000  -0.000000   0.000177   0.000117  -0.000000
      4       0.389094   0.000237  -0.000793   0.000000   0.000000   0.000098
      5      -0.047265  -0.000105   0.000336   0.000000   0.000000   0.000398
      6       0.000000   0.000000   0.000000   0.000135  -0.000093   0.000000
      7       0.136506  -0.000343   0.000075  -0.000000   0.000000   0.000293
      8      -0.032269   0.000098  -0.000331  -0.000000  -0.000000  -0.000223
      9       0.000000  -0.000000   0.000000   0.000153   0.000059   0.000000
     10      -0.136506  -0.000343  -0.000075   0.000000   0.000000  -0.000293
     11      -0.032269  -0.000098  -0.000331  -0.000000  -0.000000  -0.000223
     12      -0.000000   0.000000  -0.000000  -0.000281   0.000033   0.000000
     13       0.000000   0.001378   0.000001   0.000000  -0.000000   0.000000
     14       0.052708   0.000000  -0.000465  -0.000000   0.000000   0.000037
     15      -0.000000   0.000000   0.000000  -0.000933   0.000407   0.000000
     16       0.138369  -0.004740  -0.001567   0.000000  -0.000000   0.002334
     17       0.505976   0.004075   0.001337  -0.000000   0.000000  -0.001772
     18      -0.000000  -0.000000   0.000000  -0.001002  -0.000179  -0.000000
     19      -0.138368  -0.004742   0.001563  -0.000000  -0.000000  -0.002333
     20       0.505976  -0.004076   0.001332  -0.000000  -0.000000  -0.001772
     21      -0.000000  -0.000000  -0.000000  -0.058552   0.074141  -0.000000
     22      -0.020432  -0.034769  -0.034912   0.000000  -0.000000   0.014057
     23       0.018802   0.000216   0.000149   0.000000  -0.000000  -0.064560
     24      -0.000000   0.000000  -0.000000  -0.074182  -0.058503  -0.000000
     25       0.020432  -0.034803   0.034878  -0.000000  -0.000000  -0.014051
     26       0.018802  -0.000216   0.000149   0.000000   0.000000  -0.064530
     27      -0.051476  -0.370184  -0.370571   0.353123  -0.447405   0.176600
     28      -0.139972   0.203800   0.204560  -0.203267   0.257676  -0.094450
     29      -0.025546  -0.153137  -0.153158   0.155298  -0.196747   0.065677
     30      -0.051477   0.370549  -0.370210   0.447444   0.353086   0.176517
     31       0.139973   0.204001  -0.204361   0.257592   0.203380   0.094406
     32      -0.025546   0.153287  -0.153008   0.196775   0.155268   0.065647
     33       0.051476  -0.370549   0.370211   0.447444   0.353086  -0.176516
     34       0.139973   0.204001  -0.204361  -0.257591  -0.203379   0.094405
     35      -0.025547   0.153287  -0.153008  -0.196775  -0.155268   0.065646
     36       0.051476   0.370187   0.370574   0.353123  -0.447405  -0.176598
     37      -0.139972   0.203801   0.204561   0.203266  -0.257675  -0.094449
     38      -0.025546  -0.153137  -0.153158  -0.155297   0.196746   0.065676
     39       0.000000  -0.000000  -0.000000  -0.009739   0.012286  -0.000001
     40       0.056945   0.005163   0.005358  -0.000000   0.000000   0.013549
     41       0.018638   0.306902   0.306569  -0.000002   0.000002   0.637830
     42      -0.000000  -0.000000   0.000000  -0.012328  -0.009686   0.000000
     43      -0.056944   0.005168  -0.005353   0.000000   0.000000  -0.013543
     44       0.018638  -0.307200   0.306266  -0.000001  -0.000001   0.637541
                 42         43         44    
      0       0.000000   0.000000  -0.000000
      1       0.000280  -0.039367  -0.049553
      2       0.000254   0.047397   0.047461
      3      -0.000000   0.000000  -0.000000
      4       0.000280  -0.039367   0.049553
      5      -0.000254  -0.047397   0.047461
      6      -0.000000  -0.000000   0.000000
      7       0.000145  -0.000326  -0.000882
      8      -0.000567  -0.000565  -0.002650
      9       0.000000  -0.000000   0.000000
     10       0.000146  -0.000326   0.000882
     11       0.000568   0.000565  -0.002650
     12       0.000000   0.000000  -0.000000
     13       0.000259   0.001839  -0.000000
     14       0.000000  -0.000000  -0.001067
     15      -0.000000  -0.000000  -0.000000
     16       0.001122   0.461668   0.466245
     17      -0.000868  -0.532007  -0.527140
     18       0.000000  -0.000000   0.000000
     19       0.001123   0.461663  -0.466251
     20       0.000868   0.532000  -0.527146
     21      -0.000000   0.000000   0.000000
     22       0.014077  -0.000397  -0.000118
     23      -0.064493   0.000303   0.000564
     24       0.000000  -0.000000   0.000000
     25       0.014083  -0.000397   0.000118
     26       0.064523  -0.000303   0.000564
     27       0.176823  -0.003327  -0.001887
     28      -0.094659   0.002342   0.001456
     29       0.065790  -0.000990  -0.000257
     30      -0.176901   0.003327  -0.001887
     31      -0.094701   0.002341  -0.001456
     32      -0.065818   0.000990  -0.000257
     33       0.176900  -0.003327   0.001887
     34      -0.094700   0.002341  -0.001456
     35      -0.065818   0.000990  -0.000257
     36      -0.176821   0.003327   0.001887
     37      -0.094658   0.002341   0.001456
     38       0.065788  -0.000990  -0.000257
     39      -0.000001   0.000000   0.000000
     40       0.013558   0.001041   0.001526
     41       0.637275   0.001628  -0.001413
     42      -0.000000   0.000000  -0.000000
     43       0.013565   0.001041  -0.001526
     44      -0.637567  -0.001627  -0.001413


-----------
IR SPECTRUM
-----------

 Mode   freq       eps      Int      T**2         TX        TY        TZ
       cm**-1   L/(mol*cm) km/mol    a.u.
----------------------------------------------------------------------------
  6:      4.47   0.000000    0.00  0.000000  ( 0.000000  0.000000  0.000000)
  7:     19.93   0.000004    0.02  0.000059  ( 0.007703  0.000001 -0.000000)
  8:    186.86   0.007153   36.15  0.011945  (-0.109295  0.000000 -0.000000)
  9:    270.36   0.000000    0.00  0.000000  ( 0.000000 -0.000000 -0.000000)
 10:    289.46   0.001583    8.00  0.001707  (-0.000000  0.000000  0.041315)
 11:    441.40   0.002998   15.15  0.002120  (-0.000000 -0.046040  0.000000)
 12:    624.24   0.000467    2.36  0.000234  ( 0.000000 -0.000000  0.015282)
 13:    636.63   0.000048    0.24  0.000023  ( 0.004840  0.000000  0.000000)
 14:    639.94   0.000000    0.00  0.000000  ( 0.000000  0.000000  0.000000)
 15:    754.68   0.021587  109.09  0.008926  (-0.094479 -0.000000 -0.000000)
 16:    760.08   0.005638   28.49  0.002315  (-0.000000  0.048112 -0.000000)
 17:    881.66   0.000000    0.00  0.000000  (-0.000000  0.000000 -0.000000)
 18:   1025.68   0.000532    2.69  0.000162  ( 0.000000  0.012725  0.000000)
 19:   1034.48   0.000045    0.23  0.000014  (-0.000000  0.000000  0.003681)
 20:   1087.44   0.000016    0.08  0.000005  (-0.000000  0.002135 -0.000001)
 21:   1089.29   0.001066    5.39  0.000305  ( 0.000000  0.000000 -0.017478)
 22:   1108.22   0.001850    9.35  0.000521  ( 0.000000  0.000000  0.022826)
 23:   1155.28   0.000000    0.00  0.000000  ( 0.000000  0.000000 -0.000000)
 24:   1156.48   0.000000    0.00  0.000000  ( 0.000145 -0.000000  0.000000)
 25:   1245.76   0.015645   79.06  0.003919  (-0.000000  0.062602 -0.000000)
 26:   1367.56   0.000896    4.53  0.000204  (-0.000000 -0.014299  0.000000)
 27:   1396.29   0.000704    3.56  0.000157  ( 0.000000 -0.000000  0.012542)
 28:   1427.38   0.000211    1.07  0.000046  ( 0.000000 -0.000000 -0.006797)
 29:   1438.74   0.008453   42.72  0.001833  (-0.000000 -0.042819 -0.000000)
 30:   1451.00   0.000794    4.01  0.000171  (-0.000000  0.000000  0.013071)
 31:   1475.47   0.000000    0.00  0.000000  (-0.000003  0.000000  0.000000)
 32:   1476.18   0.006637   33.54  0.001403  (-0.037458 -0.000000  0.000000)
 33:   1490.63   0.007082   35.79  0.001483  ( 0.000000  0.038504  0.000000)
 34:   1498.74   0.008677   43.85  0.001807  ( 0.000000 -0.000000  0.042505)
 35:   1506.27   0.005612   28.36  0.001163  (-0.000000 -0.034099 -0.000000)
 36:   1644.34   0.000035    0.18  0.000007  ( 0.000000  0.000000 -0.002579)
 37:   3080.35   0.022227  112.32  0.002252  (-0.000000 -0.047453  0.000001)
 38:   3081.12   0.000040    0.20  0.000004  (-0.000000 -0.000023 -0.002002)
 39:   3154.33   0.008806   44.50  0.000871  (-0.029517  0.000000  0.000000)
 40:   3154.34   0.000122    0.62  0.000012  ( 0.003478 -0.000000  0.000000)
 41:   3192.41   0.003051   15.42  0.000298  (-0.000000  0.000001 -0.017269)
 42:   3192.56   0.000262    1.33  0.000026  ( 0.000000  0.005064  0.000004)
 43:   3281.52   0.001115    5.63  0.000106  (-0.000000  0.010297  0.000000)
 44:   3301.98   0.000024    0.12  0.000002  (-0.000000 -0.000000 -0.001510)

* The epsilon (eps) is given for a Dirac delta lineshape.
** The dipole moment derivative (T) already includes vibrational overlap.

The first frequency considered to be a vibration is 6
The total number of vibrations considered is 39


--------------------------
THERMOCHEMISTRY AT 298.15K
--------------------------

Temperature         ... 298.15 K
Pressure            ... 1.00 atm
Total Mass          ... 96.13 AMU

Throughout the following assumptions are being made:
  (1) The electronic state is orbitally nondegenerate
  (2) There are no thermally accessible electronically excited states
  (3) Hindered rotations indicated by low frequency modes are not
      treated as such but are treated as vibrations and this may
      cause some error
  (4) All equations used are the standard statistical mechanics
      equations for an ideal gas
  (5) All vibrations are strictly harmonic

freq.       4.47  E(vib)   ...       0.59 
freq.      19.93  E(vib)   ...       0.56 
freq.     186.86  E(vib)   ...       0.36 
freq.     270.36  E(vib)   ...       0.29 
freq.     289.46  E(vib)   ...       0.27 
freq.     441.40  E(vib)   ...       0.17 
freq.     624.24  E(vib)   ...       0.09 
freq.     636.63  E(vib)   ...       0.09 
freq.     639.94  E(vib)   ...       0.09 
freq.     754.68  E(vib)   ...       0.06 
freq.     760.08  E(vib)   ...       0.06 
freq.     881.66  E(vib)   ...       0.04 
freq.    1025.68  E(vib)   ...       0.02 
freq.    1034.48  E(vib)   ...       0.02 
freq.    1087.44  E(vib)   ...       0.02 
freq.    1089.29  E(vib)   ...       0.02 
freq.    1108.22  E(vib)   ...       0.02 
freq.    1155.28  E(vib)   ...       0.01 
freq.    1156.48  E(vib)   ...       0.01 
freq.    1245.76  E(vib)   ...       0.01 
freq.    1367.56  E(vib)   ...       0.01 
freq.    1396.29  E(vib)   ...       0.00 
freq.    1427.38  E(vib)   ...       0.00 
freq.    1438.74  E(vib)   ...       0.00 
freq.    1451.00  E(vib)   ...       0.00 
freq.    1475.47  E(vib)   ...       0.00 
freq.    1476.18  E(vib)   ...       0.00 
freq.    1490.63  E(vib)   ...       0.00 
freq.    1498.74  E(vib)   ...       0.00 
freq.    1506.27  E(vib)   ...       0.00 
freq.    1644.34  E(vib)   ...       0.00 
freq.    3080.35  E(vib)   ...       0.00 
freq.    3081.12  E(vib)   ...       0.00 
freq.    3154.33  E(vib)   ...       0.00 
freq.    3154.34  E(vib)   ...       0.00 
freq.    3192.41  E(vib)   ...       0.00 
freq.    3192.56  E(vib)   ...       0.00 
freq.    3281.52  E(vib)   ...       0.00 
freq.    3301.98  E(vib)   ...       0.00 

------------
INNER ENERGY
------------

The inner energy is: U= E(el) + E(ZPE) + E(vib) + E(rot) + E(trans)
    E(el)   - is the total energy from the electronic structure calculation
              = E(kin-el) + E(nuc-el) + E(el-el) + E(nuc-nuc)
    E(ZPE)  - the the zero temperature vibrational energy from the frequency calculation
    E(vib)  - the the finite temperature correction to E(ZPE) due to population
              of excited vibrational states
    E(rot)  - is the rotational thermal energy
    E(trans)- is the translational thermal energy

Summary of contributions to the inner energy U:
Electronic energy                ...   -304.84237640 Eh
Zero point energy                ...      0.12763103 Eh      80.09 kcal/mol
Thermal vibrational correction   ...      0.00450632 Eh       2.83 kcal/mol
Thermal rotational correction    ...      0.00141627 Eh       0.89 kcal/mol
Thermal translational correction ...      0.00141627 Eh       0.89 kcal/mol
-----------------------------------------------------------------------
Total thermal energy                   -304.70740651 Eh


Summary of corrections to the electronic energy:
(perhaps to be used in another calculation)
Total thermal correction                  0.00733886 Eh       4.61 kcal/mol
Non-thermal (ZPE) correction              0.12763103 Eh      80.09 kcal/mol
-----------------------------------------------------------------------
Total correction                          0.13496989 Eh      84.69 kcal/mol


--------
ENTHALPY
--------

The enthalpy is H = U + kB*T
                kB is Boltzmann's constant
Total free energy                 ...   -304.70740651 Eh 
Thermal Enthalpy correction       ...      0.00094421 Eh       0.59 kcal/mol
-----------------------------------------------------------------------
Total Enthalpy                    ...   -304.70646230 Eh


Note: Rotational entropy computed according to Herzberg 
Infrared and Raman Spectra, Chapter V,1, Van Nostrand Reinhold, 1945 
Point Group:  C2v, Symmetry Number:   2  
Rotational constants in cm-1:     0.238851     0.070131     0.055345 

Vibrational entropy computed according to the QRRHO of S. Grimme
Chem.Eur.J. 2012 18 9955


-------
ENTROPY
-------

The entropy contributions are T*S = T*(S(el)+S(vib)+S(rot)+S(trans))
     S(el)   - electronic entropy
     S(vib)  - vibrational entropy
     S(rot)  - rotational entropy
     S(trans)- translational entropy
The entropies will be listed as multiplied by the temperature to get
units of energy

Electronic entropy                ...      0.00000000 Eh      0.00 kcal/mol
Vibrational entropy               ...      0.00904541 Eh      5.68 kcal/mol
Rotational entropy                ...      0.01215318 Eh      7.63 kcal/mol
Translational entropy             ...      0.01881539 Eh     11.81 kcal/mol
-----------------------------------------------------------------------
Final entropy term                ...      0.04001399 Eh     25.11 kcal/mol

In case the symmetry of your molecule has not been determined correctly
or in case you have a reason to use a different symmetry number we print 
out the resulting rotational entropy values for sn=1,12 :
 --------------------------------------------------------
|  sn= 1 | S(rot)=       0.01280764 Eh      8.04 kcal/mol|
|  sn= 2 | S(rot)=       0.01215318 Eh      7.63 kcal/mol|
|  sn= 3 | S(rot)=       0.01177035 Eh      7.39 kcal/mol|
|  sn= 4 | S(rot)=       0.01149873 Eh      7.22 kcal/mol|
|  sn= 5 | S(rot)=       0.01128804 Eh      7.08 kcal/mol|
|  sn= 6 | S(rot)=       0.01111590 Eh      6.98 kcal/mol|
|  sn= 7 | S(rot)=       0.01097035 Eh      6.88 kcal/mol|
|  sn= 8 | S(rot)=       0.01084427 Eh      6.80 kcal/mol|
|  sn= 9 | S(rot)=       0.01073306 Eh      6.74 kcal/mol|
|  sn=10 | S(rot)=       0.01063358 Eh      6.67 kcal/mol|
|  sn=11 | S(rot)=       0.01054359 Eh      6.62 kcal/mol|
|  sn=12 | S(rot)=       0.01046144 Eh      6.56 kcal/mol|
 --------------------------------------------------------


-------------------
GIBBS FREE ENERGY
-------------------

The Gibbs free energy is G = H - T*S

Total enthalpy                    ...   -304.70646230 Eh 
Total entropy correction          ...     -0.04001399 Eh    -25.11 kcal/mol
-----------------------------------------------------------------------
Final Gibbs free energy         ...   -304.74647629 Eh

For completeness - the Gibbs free energy minus the electronic energy
G-E(el)                           ...      0.09590012 Eh     60.18 kcal/mol


Timings for individual modules:

Sum of individual times         ...      605.314 sec (=  10.089 min)
GTO integral calculation        ...        2.094 sec (=   0.035 min)   0.3 %
SCF iterations                  ...      176.448 sec (=   2.941 min)  29.1 %
SCF Gradient evaluation         ...       40.928 sec (=   0.682 min)   6.8 %
Geometry relaxation             ...        0.140 sec (=   0.002 min)   0.0 %
Analytical frequency calculation...      385.704 sec (=   6.428 min)  63.7 %
                             ****ORCA TERMINATED NORMALLY****
TOTAL RUN TIME: 0 days 0 hours 10 minutes 6 seconds 709 msec
