
                                 *****************
                                 * O   R   C   A *
                                 *****************

                                            #,                                       
                                            ###                                      
                                            ####                                     
                                            #####                                    
                                            ######                                   
                                           ########,                                 
                                     ,,################,,,,,                         
                               ,,#################################,,                 
                          ,,##########################################,,             
                       ,#########################################, ''#####,          
                    ,#############################################,,   '####,        
                  ,##################################################,,,,####,       
                ,###########''''           ''''###############################       
              ,#####''   ,,,,##########,,,,          '''####'''          '####       
            ,##' ,,,,###########################,,,                        '##       
           ' ,,###''''                  '''############,,,                           
         ,,##''                                '''############,,,,        ,,,,,,###''
      ,#''                                            '''#######################'''  
     '                                                          ''''####''''         
             ,#######,   #######,   ,#######,      ##                                
            ,#'     '#,  ##    ##  ,#'     '#,    #''#        ######   ,####,        
            ##       ##  ##   ,#'  ##            #'  '#       #        #'  '#        
            ##       ##  #######   ##           ,######,      #####,   #    #        
            '#,     ,#'  ##    ##  '#,     ,#' ,#      #,         ##   #,  ,#        
             '#######'   ##     ##  '#######'  #'      '#     #####' # '####'        



                  #######################################################
                  #                        -***-                        #
                  #          Department of theory and spectroscopy      #
                  #    Directorship and core code : Frank Neese         #
                  #        Max Planck Institute fuer Kohlenforschung    #
                  #                Kaiser Wilhelm Platz 1               #
                  #                 D-45470 Muelheim/Ruhr               #
                  #                      Germany                        #
                  #                                                     #
                  #                  All rights reserved                #
                  #                        -***-                        #
                  #######################################################


                         Program Version 5.0.4 -  RELEASE  -


 With contributions from (in alphabetic order):
   Daniel Aravena         : Magnetic Suceptibility
   Michael Atanasov       : Ab Initio Ligand Field Theory (pilot matlab implementation)
   Alexander A. Auer      : GIAO ZORA, VPT2 properties, NMR spectrum
   Ute Becker             : Parallelization
   Giovanni Bistoni       : ED, misc. LED, open-shell LED, HFLD
   Martin Brehm           : Molecular dynamics
   Dmytro Bykov           : SCF Hessian
   Vijay G. Chilkuri      : MRCI spin determinant printing, contributions to CSF-ICE
   Dipayan Datta          : RHF DLPNO-CCSD density
   Achintya Kumar Dutta   : EOM-CC, STEOM-CC
   Dmitry Ganyushin       : Spin-Orbit,Spin-Spin,Magnetic field MRCI
   Miquel Garcia          : C-PCM and meta-GGA Hessian, CC/C-PCM, Gaussian charge scheme
   Yang Guo               : DLPNO-NEVPT2, F12-NEVPT2, CIM, IAO-localization
   Andreas Hansen         : Spin unrestricted coupled pair/coupled cluster methods
   Benjamin Helmich-Paris : MC-RPA, TRAH-SCF, COSX integrals
   Lee Huntington         : MR-EOM, pCC
   Robert Izsak           : Overlap fitted RIJCOSX, COSX-SCS-MP3, EOM
   Marcus Kettner         : VPT2
   Christian Kollmar      : KDIIS, OOCD, Brueckner-CCSD(T), CCSD density, CASPT2, CASPT2-K
   Simone Kossmann        : Meta GGA functionals, TD-DFT gradient, OOMP2, MP2 Hessian
   Martin Krupicka        : Initial AUTO-CI
   Lucas Lang             : DCDCAS
   Marvin Lechner         : AUTO-CI (C++ implementation), FIC-MRCC
   Dagmar Lenk            : GEPOL surface, SMD
   Dimitrios Liakos       : Extrapolation schemes; Compound Job, initial MDCI parallelization
   Dimitrios Manganas     : Further ROCIS development; embedding schemes
   Dimitrios Pantazis     : SARC Basis sets
   Anastasios Papadopoulos: AUTO-CI, single reference methods and gradients
   Taras Petrenko         : DFT Hessian,TD-DFT gradient, ASA, ECA, R-Raman, ABS, FL, XAS/XES, NRVS
   Peter Pinski           : DLPNO-MP2, DLPNO-MP2 Gradient
   Christoph Reimann      : Effective Core Potentials
   Marius Retegan         : Local ZFS, SOC
   Christoph Riplinger    : Optimizer, TS searches, QM/MM, DLPNO-CCSD(T), (RO)-DLPNO pert. Triples
   Tobias Risthaus        : Range-separated hybrids, TD-DFT gradient, RPA, STAB
   Michael Roemelt        : Original ROCIS implementation
   Masaaki Saitow         : Open-shell DLPNO-CCSD energy and density
   Barbara Sandhoefer     : DKH picture change effects
   Avijit Sen             : IP-ROCIS
   Kantharuban Sivalingam : CASSCF convergence, NEVPT2, FIC-MRCI
   Bernardo de Souza      : ESD, SOC TD-DFT
   Georgi Stoychev        : AutoAux, RI-MP2 NMR, DLPNO-MP2 response
   Willem Van den Heuvel  : Paramagnetic NMR
   Boris Wezisla          : Elementary symmetry handling
   Frank Wennmohs         : Technical directorship


 We gratefully acknowledge several colleagues who have allowed us to
 interface, adapt or use parts of their codes:
   Stefan Grimme, W. Hujo, H. Kruse, P. Pracht,  : VdW corrections, initial TS optimization,
                  C. Bannwarth, S. Ehlert          DFT functionals, gCP, sTDA/sTD-DF
   Ed Valeev, F. Pavosevic, A. Kumar             : LibInt (2-el integral package), F12 methods
   Garnet Chan, S. Sharma, J. Yang, R. Olivares  : DMRG
   Ulf Ekstrom                                   : XCFun DFT Library
   Mihaly Kallay                                 : mrcc  (arbitrary order and MRCC methods)
   Jiri Pittner, Ondrej Demel                    : Mk-CCSD
   Frank Weinhold                                : gennbo (NPA and NBO analysis)
   Christopher J. Cramer and Donald G. Truhlar   : smd solvation model
   Lars Goerigk                                  : TD-DFT with DH, B97 family of functionals
   V. Asgeirsson, H. Jonsson                     : NEB implementation
   FAccTs GmbH                                   : IRC, NEB, NEB-TS, DLPNO-Multilevel, CI-OPT
                                                   MM, QMMM, 2- and 3-layer-ONIOM, Crystal-QMMM,
                                                   LR-CPCM, SF, NACMEs, symmetry and pop. for TD-DFT,
                                                   nearIR, NL-DFT gradient (VV10), updates on ESD,
                                                   ML-optimized integration grids
   S Lehtola, MJT Oliveira, MAL Marques          : LibXC Library
   Liviu Ungur et al                             : ANISO software


 Your calculation uses the libint2 library for the computation of 2-el integrals
 For citations please refer to: http://libint.valeyev.net

 Your ORCA version has been built with support for libXC version: 5.1.0
 For citations please refer to: https://tddft.org/programs/libxc/

 This ORCA versions uses:
   CBLAS   interface :  Fast vector & matrix operations
   LAPACKE interface :  Fast linear algebra routines
   SCALAPACK package :  Parallel linear algebra routines
   Shared memory     :  Shared parallel matrices
   BLAS/LAPACK       :  OpenBLAS 0.3.15  USE64BITINT DYNAMIC_ARCH NO_AFFINITY SkylakeX SINGLE_THREADED
        Core in use  :  SkylakeX
   Copyright (c) 2011-2014, The OpenBLAS Project




***************************************
The coordinates will be read from file: 2_deprot.xyz
***************************************


Your calculation utilizes the atom-pairwise dispersion correction
based on tight binding partial charges (D4)
Cite in your paper:
E.Caldeweyher, C.Bannwarth, S.Grimme, J.Chem.Phys., (2017), 147, 034112.
E.Caldeweyher, S.Ehlert, A.Hansen, H.Neugebauer, S.Grimme, J.Chem.Phys., (2018), in progress.
   

XCFun DFT library Copyright 2009-2010 Ulf Ekstrom and contributors.
See http://admol.org/xcfun for more information.
This is free software; see the source code for copying conditions.
There is ABSOLUTELY NO WARRANTY; not even for MERCHANTABILITY or FITNESS FOR A PARTICULAR PURPOSE.
For details see the documentation.
Scientific users of this library should cite U. Ekstrom, L. Visscher, R. Bast, A. J. Thorvaldsen and K. Ruud;
J.Chem.Theor.Comp. 2010, DOI: 10.1021/ct100117s
XCFun Version 0.99 

================================================================================

----- Orbital basis set information -----
Your calculation utilizes the basis: def2-TZVP
   F. Weigend and R. Ahlrichs, Phys. Chem. Chem. Phys. 7, 3297 (2005).

----- AuxJ basis set information -----
Your calculation utilizes the auxiliary basis: def2/J
   F. Weigend, Phys. Chem. Chem. Phys. 8, 1057 (2006).

================================================================================
                                        WARNINGS
                       Please study these warnings very carefully!
================================================================================


WARNING: Geometry Optimization
  ===> : Switching off AutoStart
         For restart on a previous wavefunction, please use MOREAD

INFO   : the flag for use of the SHARK integral package has been found!

================================================================================
                                       INPUT FILE
================================================================================
NAME = 2_deprot.inp
|  1> # ORCA 5.0.4 - /users/bwb16179/postgrad/2024_06/pKa_Reviewer_Comments/Aq_Z=0/2_deprot.inp # write input file
|  2> # Basic Mode
|  3> #
|  4> ! Opt Freq wB97X Def2-TZVP D4 SlowConv TightSCF Defgrid2 Def2/J RIJCOSX CPCM(Water)
|  5> 
|  6> %PAL NPROCS 4 END
|  7> 
|  8> %maxcore 4500
|  9> 
| 10> %geom
| 11> Maxiter 150
| 12> END
| 13> 
| 14> * xyzfile 0 1 2_deprot.xyz
| 15> 
| 16>                          ****END OF INPUT****
================================================================================

                       *****************************
                       * Geometry Optimization Run *
                       *****************************

Geometry optimization settings:
Update method            Update   .... BFGS
Choice of coordinates    CoordSys .... Z-matrix Internals
Initial Hessian          InHess   .... Almoef's Model

Convergence Tolerances:
Energy Change            TolE     ....  5.0000e-06 Eh
Max. Gradient            TolMAXG  ....  3.0000e-04 Eh/bohr
RMS Gradient             TolRMSG  ....  1.0000e-04 Eh/bohr
Max. Displacement        TolMAXD  ....  4.0000e-03 bohr
RMS Displacement         TolRMSD  ....  2.0000e-03 bohr
Strict Convergence                ....  False
------------------------------------------------------------------------------
                        ORCA OPTIMIZATION COORDINATE SETUP
------------------------------------------------------------------------------

The optimization will be done in new redundant internal coordinates
Making redundant internal coordinates   ...  (new redundants) done
Evaluating the initial hessian          ...  (Almloef) done
Evaluating the coordinates              ...  done
Calculating the B-matrix                .... done
Calculating the G-matrix                .... done
Diagonalizing the G-matrix              .... done
The first mode is                       ....   41
The number of degrees of freedom        ....   57

    -----------------------------------------------------------------
                    Redundant Internal Coordinates


    -----------------------------------------------------------------
         Definition                    Initial Value    Approx d2E/dq
    -----------------------------------------------------------------
      1. B(C   1,C   0)                  1.3618         0.693117   
      2. B(N   2,C   0)                  1.3934         0.552581   
      3. B(N   3,C   1)                  1.3934         0.552581   
      4. B(C   4,N   3)                  1.3582         0.628838   
      5. B(C   4,N   2)                  1.3582         0.628836   
      6. B(C   5,N   2)                  1.4485         0.451354   
      7. B(C   6,N   3)                  1.4485         0.451352   
      8. B(H   7,C   5)                  1.1008         0.346056   
      9. B(H   8,C   6)                  1.1008         0.346055   
     10. B(H   9,C   6)                  1.1008         0.346056   
     11. B(H  10,C   5)                  1.1008         0.346056   
     12. B(H  11,C   5)                  1.0966         0.351470   
     13. B(H  12,C   6)                  1.0966         0.351472   
     14. B(C  13,C   0)                  1.4918         0.429897   
     15. B(C  14,C   1)                  1.4918         0.429898   
     16. B(H  15,C  13)                  1.1020         0.344564   
     17. B(H  16,C  14)                  1.1020         0.344565   
     18. B(H  17,C  14)                  1.1020         0.344565   
     19. B(H  18,C  13)                  1.1020         0.344565   
     20. B(H  19,C  13)                  1.0988         0.348687   
     21. B(H  20,C  14)                  1.0988         0.348686   
     22. A(C   1,C   0,N   2)          105.7814         0.430945   
     23. A(C   1,C   0,C  13)          131.2611         0.414736   
     24. A(N   2,C   0,C  13)          122.9575         0.395905   
     25. A(N   3,C   1,C  14)          122.9576         0.395905   
     26. A(C   0,C   1,N   3)          105.7813         0.430945   
     27. A(C   0,C   1,C  14)          131.2611         0.414737   
     28. A(C   4,N   2,C   5)          123.7621         0.405891   
     29. A(C   0,N   2,C   4)          112.9302         0.420742   
     30. A(C   0,N   2,C   5)          123.3077         0.396754   
     31. A(C   1,N   3,C   4)          112.9302         0.420742   
     32. A(C   1,N   3,C   6)          123.3077         0.396754   
     33. A(C   4,N   3,C   6)          123.7621         0.405891   
     34. A(N   2,C   4,N   3)          102.5769         0.430592   
     35. A(N   2,C   5,H  10)          110.9584         0.330407   
     36. A(N   2,C   5,H   7)          110.9584         0.330407   
     37. A(H  10,C   5,H  11)          109.0883         0.287935   
     38. A(H   7,C   5,H  11)          109.0884         0.287935   
     39. A(N   2,C   5,H  11)          108.1864         0.331256   
     40. A(H   7,C   5,H  10)          108.5255         0.287237   
     41. A(H   8,C   6,H   9)          108.5255         0.287237   
     42. A(N   3,C   6,H   9)          110.9584         0.330406   
     43. A(N   3,C   6,H   8)          110.9584         0.330406   
     44. A(H   9,C   6,H  12)          109.0883         0.287935   
     45. A(H   8,C   6,H  12)          109.0884         0.287935   
     46. A(N   3,C   6,H  12)          108.1864         0.331256   
     47. A(H  15,C  13,H  18)          107.5056         0.286850   
     48. A(C   0,C  13,H  18)          111.5702         0.329506   
     49. A(C   0,C  13,H  15)          111.5702         0.329506   
     50. A(H  18,C  13,H  19)          107.9144         0.287383   
     51. A(H  15,C  13,H  19)          107.9145         0.287383   
     52. A(C   0,C  13,H  19)          110.2060         0.330154   
     53. A(H  16,C  14,H  17)          107.5056         0.286850   
     54. A(C   1,C  14,H  17)          111.5702         0.329506   
     55. A(C   1,C  14,H  16)          111.5702         0.329506   
     56. A(H  17,C  14,H  20)          107.9145         0.287383   
     57. A(H  16,C  14,H  20)          107.9145         0.287383   
     58. A(C   1,C  14,H  20)          110.2060         0.330154   
     59. D(N   3,C   1,C   0,N   2)      0.0000         0.033780   
     60. D(C  14,C   1,C   0,N   2)   -179.9999         0.033780   
     61. D(C  14,C   1,C   0,C  13)      0.0000         0.033780   
     62. D(N   3,C   1,C   0,C  13)    179.9999         0.033780   
     63. D(C   5,N   2,C   0,C   1)   -180.0000         0.024349   
     64. D(C   4,N   2,C   0,C  13)   -179.9999         0.024349   
     65. D(C   5,N   2,C   0,C  13)      0.0001         0.024349   
     66. D(C   4,N   2,C   0,C   1)     -0.0000         0.024349   
     67. D(C   6,N   3,C   1,C  14)     -0.0001         0.024349   
     68. D(C   4,N   3,C   1,C  14)    179.9999         0.024349   
     69. D(C   6,N   3,C   1,C   0)    180.0000         0.024349   
     70. D(C   4,N   3,C   1,C   0)      0.0000         0.024349   
     71. D(N   2,C   4,N   3,C   1)     -0.0000         0.029073   
     72. D(N   3,C   4,N   2,C   5)    180.0000         0.029073   
     73. D(N   3,C   4,N   2,C   0)      0.0000         0.029073   
     74. D(N   2,C   4,N   3,C   6)    180.0000         0.029073   
     75. D(H  11,C   5,N   2,C   4)      0.0000         0.017380   
     76. D(H  11,C   5,N   2,C   0)    180.0000         0.017380   
     77. D(H  10,C   5,N   2,C   4)    119.6329         0.017380   
     78. D(H  10,C   5,N   2,C   0)    -60.3672         0.017380   
     79. D(H   7,C   5,N   2,C   4)   -119.6330         0.017380   
     80. D(H   7,C   5,N   2,C   0)     60.3670         0.017380   
     81. D(H  12,C   6,N   3,C   4)      0.0000         0.017380   
     82. D(H  12,C   6,N   3,C   1)   -180.0000         0.017380   
     83. D(H   9,C   6,N   3,C   4)   -119.6329         0.017380   
     84. D(H   9,C   6,N   3,C   1)     60.3671         0.017380   
     85. D(H   8,C   6,N   3,C   4)    119.6330         0.017380   
     86. D(H   8,C   6,N   3,C   1)    -60.3669         0.017380   
     87. D(H  18,C  13,C   0,C   1)    119.8645         0.013649   
     88. D(H  15,C  13,C   0,N   2)     60.1355         0.013649   
     89. D(H  15,C  13,C   0,C   1)   -119.8644         0.013649   
     90. D(H  19,C  13,C   0,N   2)    179.9999         0.013649   
     91. D(H  19,C  13,C   0,C   1)      0.0000         0.013649   
     92. D(H  18,C  13,C   0,N   2)    -60.1356         0.013649   
     93. D(H  20,C  14,C   1,N   3)   -179.9999         0.013649   
     94. D(H  20,C  14,C   1,C   0)     -0.0000         0.013649   
     95. D(H  17,C  14,C   1,N   3)     60.1356         0.013649   
     96. D(H  17,C  14,C   1,C   0)   -119.8645         0.013649   
     97. D(H  16,C  14,C   1,N   3)    -60.1354         0.013649   
     98. D(H  16,C  14,C   1,C   0)    119.8645         0.013649   
    -----------------------------------------------------------------

Number of atoms                         .... 21
Number of degrees of freedom            .... 98

         *************************************************************
         *                GEOMETRY OPTIMIZATION CYCLE   1            *
         *************************************************************
---------------------------------
CARTESIAN COORDINATES (ANGSTROEM)
---------------------------------
  C     -0.000001    0.680876   -0.623257
  C     -0.000001   -0.680876   -0.623257
  N     -0.000000    1.059845    0.717654
  N     -0.000000   -1.059844    0.717654
  C     -0.000000    0.000000    1.567101
  C      0.000000    2.441119    1.153866
  C      0.000000   -2.441119    1.153866
  H     -0.893547    2.969664    0.787753
  H     -0.893547   -2.969664    0.787752
  H      0.893548   -2.969662    0.787753
  H      0.893548    2.969663    0.787754
  H     -0.000000    2.453752    2.250396
  H     -0.000000   -2.453753    2.250395
  C     -0.000000    1.664688   -1.744642
  C     -0.000000   -1.664688   -1.744641
  H      0.888738    2.315484   -1.712644
  H      0.888737   -2.315484   -1.712643
  H     -0.888737   -2.315485   -1.712643
  H     -0.888737    2.315485   -1.712645
  H      0.000000    1.139847   -2.709956
  H     -0.000000   -1.139847   -2.709956

----------------------------
CARTESIAN COORDINATES (A.U.)
----------------------------
  NO LB      ZA    FRAG     MASS         X           Y           Z
   0 C     6.0000    0    12.011   -0.000002    1.286669   -1.177785
   1 C     6.0000    0    12.011   -0.000002   -1.286669   -1.177785
   2 N     7.0000    0    14.007   -0.000000    2.002817    1.356170
   3 N     7.0000    0    14.007   -0.000000   -2.002815    1.356170
   4 C     6.0000    0    12.011   -0.000000    0.000000    2.961392
   5 C     6.0000    0    12.011    0.000000    4.613046    2.180491
   6 C     6.0000    0    12.011    0.000000   -4.613046    2.180491
   7 H     1.0000    0     1.008   -1.688559    5.611852    1.488637
   8 H     1.0000    0     1.008   -1.688559   -5.611852    1.488636
   9 H     1.0000    0     1.008    1.688561   -5.611848    1.488637
  10 H     1.0000    0     1.008    1.688561    5.611850    1.488639
  11 H     1.0000    0     1.008   -0.000000    4.636919    4.252632
  12 H     1.0000    0     1.008   -0.000000   -4.636921    4.252630
  13 C     6.0000    0    12.011   -0.000000    3.145804   -3.296896
  14 C     6.0000    0    12.011   -0.000000   -3.145804   -3.296894
  15 H     1.0000    0     1.008    1.679471    4.375631   -3.236428
  16 H     1.0000    0     1.008    1.679470   -4.375631   -3.236426
  17 H     1.0000    0     1.008   -1.679470   -4.375633   -3.236426
  18 H     1.0000    0     1.008   -1.679470    4.375633   -3.236430
  19 H     1.0000    0     1.008    0.000000    2.153999   -5.121075
  20 H     1.0000    0     1.008   -0.000000   -2.153999   -5.121075

--------------------------------
INTERNAL COORDINATES (ANGSTROEM)
--------------------------------
 C      0   0   0     0.000000000000     0.00000000     0.00000000
 C      1   0   0     1.361752000000     0.00000000     0.00000000
 N      1   2   0     1.393434538428   105.78138211     0.00000000
 N      2   1   3     1.393434266460   105.78134254     0.00000000
 C      4   2   1     1.358245011088   112.93024070     0.00000000
 C      3   1   2     1.448516058599   123.30771280   180.00001539
 C      4   2   1     1.448517012178   123.30766132   179.99998458
 H      6   3   1     1.100829136153   110.95844905    60.36697835
 H      7   4   2     1.100829468733   110.95843152   299.63306388
 H      7   4   2     1.100828987592   110.95835160    60.36713745
 H      6   3   1     1.100829135145   110.95841270   299.63283491
 H      6   3   1     1.096602769278   108.18639978   179.99995080
 H      7   4   2     1.096601780865   108.18644072   180.00004920
 C      1   2   3     1.491774235456   131.26108134   179.99990617
 C      2   1   3     1.491773483744   131.26110667   180.00009383
 H     14   1   2     1.102004781416   111.57017203   240.13556522
 H     15   2   1     1.102003974942   111.57020122   119.86445394
 H     15   2   1     1.102004565500   111.57015934   240.13545735
 H     14   1   2     1.102004536464   111.57018935   119.86451936
 H     14   1   2     1.098767124498   110.20600333     0.00000000
 H     15   2   1     1.098768003041   110.20600291     0.00000000

---------------------------
INTERNAL COORDINATES (A.U.)
---------------------------
 C      0   0   0     0.000000000000     0.00000000     0.00000000
 C      1   0   0     2.573338342320     0.00000000     0.00000000
 N      1   2   0     2.633209663175   105.78138211     0.00000000
 N      2   1   3     2.633209149232   105.78134254     0.00000000
 C      4   2   1     2.566711093721   112.93024070     0.00000000
 C      3   1   2     2.737298651340   123.30771280   180.00001539
 C      4   2   1     2.737300453342   123.30766132   179.99998458
 H      6   3   1     2.080265587570   110.95844905    60.36697835
 H      7   4   2     2.080266216055   110.95843152   299.63306388
 H      7   4   2     2.080265306830   110.95835160    60.36713745
 H      6   3   1     2.080265585665   110.95841270   299.63283491
 H      6   3   1     2.072278911636   108.18639978   179.99995080
 H      7   4   2     2.072277043806   108.18644072   180.00004920
 C      1   2   3     2.819044758651   131.26108134   179.99990617
 C      2   1   3     2.819043338121   131.26110667   180.00009383
 H     14   1   2     2.082487235148   111.57017203   240.13556522
 H     15   2   1     2.082485711134   111.57020122   119.86445394
 H     15   2   1     2.082486827125   111.57015934   240.13545735
 H     14   1   2     2.082486772256   111.57018935   119.86451936
 H     14   1   2     2.076368950257   110.20600333     0.00000000
 H     15   2   1     2.076370610462   110.20600291     0.00000000

---------------------
BASIS SET INFORMATION
---------------------
There are 3 groups of distinct atoms

 Group   1 Type C   : 11s6p2d1f contracted to 5s3p2d1f pattern {62111/411/11/1}
 Group   2 Type N   : 11s6p2d1f contracted to 5s3p2d1f pattern {62111/411/11/1}
 Group   3 Type H   : 5s1p contracted to 3s1p pattern {311/1}

Atom   0C    basis set group =>   1
Atom   1C    basis set group =>   1
Atom   2N    basis set group =>   2
Atom   3N    basis set group =>   2
Atom   4C    basis set group =>   1
Atom   5C    basis set group =>   1
Atom   6C    basis set group =>   1
Atom   7H    basis set group =>   3
Atom   8H    basis set group =>   3
Atom   9H    basis set group =>   3
Atom  10H    basis set group =>   3
Atom  11H    basis set group =>   3
Atom  12H    basis set group =>   3
Atom  13C    basis set group =>   1
Atom  14C    basis set group =>   1
Atom  15H    basis set group =>   3
Atom  16H    basis set group =>   3
Atom  17H    basis set group =>   3
Atom  18H    basis set group =>   3
Atom  19H    basis set group =>   3
Atom  20H    basis set group =>   3
---------------------------------
AUXILIARY/J BASIS SET INFORMATION
---------------------------------
There are 3 groups of distinct atoms

 Group   1 Type C   : 12s5p4d2f1g contracted to 6s4p3d1f1g pattern {711111/2111/211/2/1}
 Group   2 Type N   : 12s5p4d2f1g contracted to 6s4p3d1f1g pattern {711111/2111/211/2/1}
 Group   3 Type H   : 5s2p1d contracted to 3s1p1d pattern {311/2/1}

Atom   0C    basis set group =>   1
Atom   1C    basis set group =>   1
Atom   2N    basis set group =>   2
Atom   3N    basis set group =>   2
Atom   4C    basis set group =>   1
Atom   5C    basis set group =>   1
Atom   6C    basis set group =>   1
Atom   7H    basis set group =>   3
Atom   8H    basis set group =>   3
Atom   9H    basis set group =>   3
Atom  10H    basis set group =>   3
Atom  11H    basis set group =>   3
Atom  12H    basis set group =>   3
Atom  13C    basis set group =>   1
Atom  14C    basis set group =>   1
Atom  15H    basis set group =>   3
Atom  16H    basis set group =>   3
Atom  17H    basis set group =>   3
Atom  18H    basis set group =>   3
Atom  19H    basis set group =>   3
Atom  20H    basis set group =>   3


           ************************************************************
           *        Program running with 4 parallel MPI-processes     *
           *              working on a common directory               *
           ************************************************************
------------------------------------------------------------------------------
                           ORCA GTO INTEGRAL CALCULATION
                           -- RI-GTO INTEGRALS CHOSEN --
------------------------------------------------------------------------------
------------------------------------------------------------------------------
                   ___                                                        
                  /   \      - P O W E R E D   B Y -                         
                 /     \                                                     
                 |  |  |   _    _      __       _____    __    __             
                 |  |  |  | |  | |    /  \     |  _  \  |  |  /  |          
                  \  \/   | |  | |   /    \    | | | |  |  | /  /          
                 / \  \   | |__| |  /  /\  \   | |_| |  |  |/  /          
                |  |  |   |  __  | /  /__\  \  |    /   |      \           
                |  |  |   | |  | | |   __   |  |    \   |  |\   \          
                \     /   | |  | | |  |  |  |  | |\  \  |  | \   \       
                 \___/    |_|  |_| |__|  |__|  |_| \__\ |__|  \__/        
                                                                              
                      - O R C A' S   B I G   F R I E N D -                    
                                      &                                       
                       - I N T E G R A L  F E E D E R -                       
                                                                              
 v1 FN, 2020, v2 2021                                                         
------------------------------------------------------------------------------


Reading SHARK input file 2_deprot.SHARKINP.tmp ... ok
----------------------
SHARK INTEGRAL PACKAGE
----------------------

Number of atoms                             ...     21
Number of basis functions                   ...    351
Number of shells                            ...    147
Maximum angular momentum                    ...      3
Integral batch strategy                     ... SHARK/LIBINT Hybrid
RI-J (if used) integral strategy            ... SPLIT-RIJ (Revised 2003 algorithm where possible)
Printlevel                                  ...      1
Contraction scheme used                     ... SEGMENTED contraction
Coulomb Range Separation                    ... NOT USED
Exchange Range Separation                   ... Long Range
   Mu parameter                             ...  0.300000
   Scaling (regular/separated)              ...  0.157706  0.842294
Finite Nucleus Model                        ... NOT USED
Auxiliary Coulomb fitting basis             ... AVAILABLE
   # of basis functions in Aux-J            ...    573
   # of shells in Aux-J                     ...    195
   Maximum angular momentum in Aux-J        ...      4
Auxiliary J/K fitting basis                 ... NOT available
Auxiliary Correlation fitting basis         ... NOT available
Auxiliary 'external' fitting basis          ... NOT available
Integral threshold                          ...     2.500000e-11
Primitive cut-off                           ...     2.500000e-12
Primitive pair pre-selection threshold      ...     2.500000e-12

Calculating pre-screening integrals         ... done (  0.1 sec) Dimension = 147
Organizing shell pair data                  ... done (  0.1 sec)
Shell pair information
Total number of shell pairs                 ...     10878
Shell pairs after pre-screening             ...      9793
Total number of primitive shell pairs       ...     32112
Primitive shell pairs kept                  ...     21522
          la=0 lb=0:   2861 shell pairs
          la=1 lb=0:   2833 shell pairs
          la=1 lb=1:    724 shell pairs
          la=2 lb=0:   1346 shell pairs
          la=2 lb=1:    666 shell pairs
          la=2 lb=2:    168 shell pairs
          la=3 lb=0:    667 shell pairs
          la=3 lb=1:    327 shell pairs
          la=3 lb=2:    156 shell pairs
          la=3 lb=3:     45 shell pairs

Calculating one electron integrals          ... done (  0.0 sec)
Calculating RI/J V-Matrix + Cholesky decomp.... done (  0.0 sec)
Calculating Nuclear repulsion               ... done (  0.0 sec) ENN=    459.940225848438 Eh

SHARK setup successfully completed in   0.4 seconds

Maximum memory used throughout the entire GTOINT-calculation: 22.8 MB


           ************************************************************
           *        Program running with 4 parallel MPI-processes     *
           *              working on a common directory               *
           ************************************************************
-------------------------------------------------------------------------------
                                 ORCA SCF
-------------------------------------------------------------------------------

------------
SCF SETTINGS
------------
Hamiltonian:
 Density Functional     Method          .... DFT(GTOs)
 Exchange Functional    Exchange        .... WB97X
 Correlation Functional Correlation     .... WB97X
 Gradients option       PostSCFGGA      .... off
 Hybrid DFT is turned on
   Fraction HF Exchange ScalHFX         ....  0.157706
   Scaling of DF-GGA-X  ScalDFX         ....  0.000000
   Scaling of DF-GGA-C  ScalDFC         ....  1.000000
   Scaling of DF-LDA-C  ScalLDAC        ....  1.000000
   Perturbative correction              ....  0.000000
   Density functional embedding theory  .... OFF
 Long-range corrected/Screened/Range-Separated Hybrid DFT is turned on
   Amount of maximum screened exact exchange              ....  0.842294
   Range separation parameter mu (erf(mu*r12)/r12)        ....  0.300000
 RI-approximation to the Coulomb term is turned on
   Number of AuxJ basis functions       .... 573
   RIJ-COSX (HFX calculated with COS-X)).... on


General Settings:
 Integral files         IntName         .... 2_deprot
 Hartree-Fock type      HFTyp           .... RHF
 Total Charge           Charge          ....    0
 Multiplicity           Mult            ....    1
 Number of Electrons    NEL             ....   68
 Basis Dimension        Dim             ....  351
 Nuclear Repulsion      ENuc            ....    459.9402258484 Eh

Convergence Acceleration:
 DIIS                   CNVDIIS         .... on
   Start iteration      DIISMaxIt       ....     0
   Startup error        DIISStart       ....  0.200000
   # of expansion vecs  DIISMaxEq       ....     5
   Bias factor          DIISBfac        ....   1.050
   Max. coefficient     DIISMaxC        ....  10.000
 Trust-Rad. Augm. Hess. CNVTRAH         .... auto
   Auto Start mean grad. ratio tolernc. ....  1.125000
   Auto Start start iteration           ....    20
   Auto Start num. interpolation iter.  ....    10
   Max. Number of Micro iterations      ....    16
   Max. Number of Macro iterations      .... Maxiter - #DIIS iter
   Number of Davidson start vectors     ....     2
   Converg. threshold I  (grad. norm)   ....   1.000e-05
   Converg. threshold II (energy diff.) ....   1.000e-08
   Grad. Scal. Fac. for Micro threshold ....   0.100
   Minimum threshold for Micro iter.    ....   0.010
   NR start threshold (gradient norm)   ....   0.001
   Initial trust radius                 ....   0.400
   Minimum AH scaling param. (alpha)    ....   1.000
   Maximum AH scaling param. (alpha)    .... 1000.000
   Orbital update algorithm             .... Taylor
   White noise on init. David. guess    .... on
   Maximum white noise                  ....   0.010
   Quad. conv. algorithm                .... NR
 SOSCF                  CNVSOSCF        .... on
   Start iteration      SOSCFMaxIt      ....   150
   Startup grad/error   SOSCFStart      ....  0.001000
 Level Shifting         CNVShift        .... on
   Level shift para.    LevelShift      ....    0.2500
   Turn off err/grad.   ShiftErr        ....    0.0000
 Zerner damping         CNVZerner       .... off
 Static damping         CNVDamp         .... on
   Fraction old density DampFac         ....    0.8500
   Max. Damping (<1)    DampMax         ....    0.9800
   Min. Damping (>=0)   DampMin         ....    0.0000
   Turn off err/grad.   DampErr         ....    0.0300
 Fernandez-Rico         CNVRico         .... off

SCF Procedure:
 Maximum # iterations   MaxIter         ....   125
 SCF integral mode      SCFMode         .... Direct
   Integral package                     .... SHARK and LIBINT hybrid scheme
 Reset frequency        DirectResetFreq ....    20
 Integral Threshold     Thresh          ....  2.500e-11 Eh
 Primitive CutOff       TCut            ....  2.500e-12 Eh

Convergence Tolerance:
 Convergence Check Mode ConvCheckMode   .... Total+1el-Energy
 Convergence forced     ConvForced      .... 0
 Energy Change          TolE            ....  1.000e-08 Eh
 1-El. energy change                    ....  1.000e-05 Eh
 Orbital Gradient       TolG            ....  1.000e-05
 Orbital Rotation angle TolX            ....  1.000e-05
 DIIS Error             TolErr          ....  5.000e-07


Diagonalization of the overlap matrix:
Smallest eigenvalue                        ... 3.854e-05
Time for diagonalization                   ...    0.021 sec
Threshold for overlap eigenvalues          ... 1.000e-08
Number of eigenvalues below threshold      ... 0
Time for construction of square roots      ...    0.010 sec
Total time needed                          ...    0.032 sec

Time for model grid setup =    0.148 sec

------------------------------
INITIAL GUESS: MODEL POTENTIAL
------------------------------
Loading Hartree-Fock densities                     ... done
Calculating cut-offs                               ... done
Initializing the effective Hamiltonian             ... done
Setting up the integral package (SHARK)            ... done
Starting the Coulomb interaction                   ... done (   0.2 sec)
Reading the grid                                   ... done
Mapping shells                                     ... done
Starting the XC term evaluation                    ... done (   0.2 sec)
  promolecular density results
     # of electrons  =     68.000594551
     EX              =    -52.438692086
     EC              =     -2.247862862
     EX+EC           =    -54.686554948
Transforming the Hamiltonian                       ... done (   0.0 sec)
Diagonalizing the Hamiltonian                      ... done (   0.0 sec)
Back transforming the eigenvectors                 ... done (   0.0 sec)
Now organizing SCF variables                       ... done
                      ------------------
                      INITIAL GUESS DONE (   0.6 sec)
                      ------------------
-------------------
DFT GRID GENERATION
-------------------

General Integration Accuracy     IntAcc      ... 4.388
Radial Grid Type                 RadialGrid  ... OptM3 with GC (2021)
Angular Grid (max. ang.)         AngularGrid ... 4 (Lebedev-302)
Angular grid pruning method      GridPruning ... 4 (adaptive)
Weight generation scheme         WeightScheme... Becke
Basis function cutoff            BFCut       ... 1.0000e-11
Integration weight cutoff        WCut        ... 1.0000e-14
Angular grids for H and He will be reduced by one unit
Partially contracted basis set               ... off
Rotationally invariant grid construction     ... off

Total number of grid points                  ...    92557
Total number of batches                      ...     1455
Average number of points per batch           ...       63
Average number of grid points per atom       ...     4407
Time for grid setup =    0.691 sec

--------------------
COSX GRID GENERATION
--------------------

GRIDX 1
-------
General Integration Accuracy     IntAcc      ... 3.816
Radial Grid Type                 RadialGrid  ... OptM3 with GC (2021)
Angular Grid (max. ang.)         AngularGrid ... 1 (Lebedev-50)
Angular grid pruning method      GridPruning ... 4 (adaptive)
Weight generation scheme         WeightScheme... Becke
Basis function cutoff            BFCut       ... 1.0000e-11
Integration weight cutoff        WCut        ... 1.0000e-14
Angular grids for H and He will be reduced by one unit
Partially contracted basis set               ... on
Rotationally invariant grid construction     ... off

Total number of grid points                  ...    11845
Total number of batches                      ...      198
Average number of points per batch           ...       59
Average number of grid points per atom       ...      564
UseSFitting                                  ... on

GRIDX 2
-------
General Integration Accuracy     IntAcc      ... 4.020
Radial Grid Type                 RadialGrid  ... OptM3 with GC (2021)
Angular Grid (max. ang.)         AngularGrid ... 2 (Lebedev-110)
Angular grid pruning method      GridPruning ... 4 (adaptive)
Weight generation scheme         WeightScheme... Becke
Basis function cutoff            BFCut       ... 1.0000e-11
Integration weight cutoff        WCut        ... 1.0000e-14
Angular grids for H and He will be reduced by one unit
Partially contracted basis set               ... on
Rotationally invariant grid construction     ... off

Total number of grid points                  ...    25065
Total number of batches                      ...      403
Average number of points per batch           ...       62
Average number of grid points per atom       ...     1194
UseSFitting                                  ... on

GRIDX 3
-------
General Integration Accuracy     IntAcc      ... 4.338
Radial Grid Type                 RadialGrid  ... OptM3 with GC (2021)
Angular Grid (max. ang.)         AngularGrid ... 3 (Lebedev-194)
Angular grid pruning method      GridPruning ... 4 (adaptive)
Weight generation scheme         WeightScheme... Becke
Basis function cutoff            BFCut       ... 1.0000e-11
Integration weight cutoff        WCut        ... 1.0000e-14
Angular grids for H and He will be reduced by one unit
Partially contracted basis set               ... on
Rotationally invariant grid construction     ... off

Total number of grid points                  ...    54849
Total number of batches                      ...      869
Average number of points per batch           ...       63
Average number of grid points per atom       ...     2612
UseSFitting                                  ... on

Time for X-Grid setup             =    0.959 sec


--------------------
CPCM SOLVATION MODEL
--------------------
CPCM parameters:
  Epsilon                                         ...      80.4000
  Refrac                                          ...       1.3300
  Rsolv                                           ...       1.3000
  Surface type                                    ... GAUSSIAN VDW
  Epsilon function type                           ...         CPCM
Radii:
 Radius for C  used is    3.8550 Bohr (=   2.0400 Ang.)
 Radius for N  used is    3.5149 Bohr (=   1.8600 Ang.)
 Radius for H  used is    2.4944 Bohr (=   1.3200 Ang.)
Calculating surface                               ...        done! (  0.0s)
GEPOL surface points                              ...         1161
GEPOL Volume                                      ...    1171.8951
GEPOL Surface-area                                ...     664.8929
Calculating surface distance matrix               ...        done! (  0.0s)
Performing Cholesky decomposition & store         ...        done! (  0.1s)
Overall time for CPCM initialization              ...                 0.1s
--------------
SCF ITERATIONS
--------------
ITER       Energy         Delta-E        Max-DP      RMS-DP      [F,P]     Damp
               ***  Starting incremental Fock matrix formation  ***
  0   -383.2797797827   0.000000000000 0.02723246  0.00039503  0.1677456 0.8500
  1   -383.3215190772  -0.041739294482 0.03469507  0.00039781  0.1356104 0.8500
                               ***Turning on DIIS***
  2   -383.3537722616  -0.032253184435 0.03270146  0.00033318  0.1047159 0.8500
  3   -383.3780282509  -0.024255989271 0.02746808  0.00025802  0.0798934 0.8500
  4   -383.3968592784  -0.018831027490 0.02301673  0.00020858  0.0638324 0.8500
  5   -383.4117555524  -0.014896274061 0.01968793  0.00017579  0.0528790 0.8500
  6   -383.4238793013  -0.012123748857 0.01707259  0.00015080  0.0445252 0.8500
  7   -383.4339131321  -0.010033830784 0.01502889  0.00013086  0.0377367 0.8500
  8   -383.4423017948  -0.008388662709 0.01324023  0.00011340  0.0319344 0.8500
  9   -383.4493347541  -0.007032959345 0.07723016  0.00065140  0.0269708 0.0000
 10   -383.4875493264  -0.038214572277 0.00174874  0.00002193  0.0011562 0.0000
                      *** Initiating the SOSCF procedure ***
                           *** Shutting down DIIS ***
                      *** Re-Reading the Fockian *** 
                      *** Removing any level shift *** 
ITER      Energy       Delta-E        Grad      Rot      Max-DP    RMS-DP
 11   -383.48756416  -0.0000148308  0.000268  0.000268  0.001602  0.000014
               *** Restarting incremental Fock matrix formation ***
 12   -383.48755322   0.0000109367  0.000136  0.000263  0.000751  0.000017
 13   -383.48755384  -0.0000006148  0.000056  0.000165  0.000500  0.000009
 14   -383.48755394  -0.0000001026  0.000034  0.000033  0.000209  0.000005
 15   -383.48755398  -0.0000000390  0.000004  0.000007  0.000061  0.000001
 16   -383.48755398   0.0000000007  0.000003  0.000004  0.000017  0.000000
                 **** Energy Check signals convergence ****
              ***Rediagonalizing the Fockian in SOSCF/NRSCF***

               *****************************************************
               *                     SUCCESS                       *
               *           SCF CONVERGED AFTER  17 CYCLES          *
               *****************************************************

Old exchange energy                            =    -17.417584219 Eh
New exchange energy                            =    -17.417553735 Eh
Exchange energy change after final integration =      0.000030484 Eh
Total energy after final integration           =   -383.487523499 Eh
Final COS-X integration done in                =    22.642 sec

----------------
TOTAL SCF ENERGY
----------------

Total Energy       :         -383.48752350 Eh          -10435.22603 eV

Components:
Nuclear Repulsion  :          459.94022585 Eh           12515.60983 eV
Electronic Energy  :         -843.42774935 Eh          -22950.83586 eV
One Electron Energy:        -1428.60002322 Eh          -38874.18296 eV
Two Electron Energy:          585.17227387 Eh           15923.34710 eV
Max COSX asymmetry :            0.00000197 Eh               0.00005 eV
CPCM Dielectric    :           -0.01837798 Eh              -0.50009 eV

Virial components:
Potential Energy   :         -765.02561032 Eh          -20817.40519 eV
Kinetic Energy     :          381.53808682 Eh           10382.17916 eV
Virial Ratio       :            2.00510942


DFT components:
N(Alpha)           :       34.000158711903 electrons
N(Beta)            :       34.000158711903 electrons
N(Total)           :       68.000317423806 electrons
E(XC)              :      -38.834133622293 Eh       
DFET-embed. en.    :        0.000000000000 Eh       
CPCM Solvation Model Properties:
Surface-charge          :           -0.03039872
Charge-correction       :           -0.00061999 Eh              -0.01687 eV
Free-energy (cav+disp)  :  This term is not implemented in the current solvation scheme

---------------
SCF CONVERGENCE
---------------

  Last Energy change         ...   -6.5081e-09  Tolerance :   1.0000e-08
  Last MAX-Density change    ...    1.3323e-15  Tolerance :   1.0000e-07
  Last RMS-Density change    ...    1.6340e-17  Tolerance :   5.0000e-09
  Last Orbital Gradient      ...    6.0920e-07  Tolerance :   1.0000e-05
  Last Orbital Rotation      ...    1.6487e-06  Tolerance :   1.0000e-05

             **** THE GBW FILE WAS UPDATED (2_deprot.gbw) ****
             **** DENSITY 2_deprot.scfp WAS UPDATED ****
             **** ENERGY FILE WAS UPDATED (2_deprot.en.tmp) ****
             **** THE GBW FILE WAS UPDATED (2_deprot.gbw) ****
             **** DENSITY 2_deprot.scfp WAS UPDATED ****
----------------
ORBITAL ENERGIES
----------------

  NO   OCC          E(Eh)            E(eV) 
   0   2.0000     -14.434668      -392.7873 
   1   2.0000     -14.434637      -392.7864 
   2   2.0000     -10.282322      -279.7962 
   3   2.0000     -10.282316      -279.7961 
   4   2.0000     -10.281631      -279.7774 
   5   2.0000     -10.280945      -279.7587 
   6   2.0000     -10.264609      -279.3142 
   7   2.0000     -10.256702      -279.0991 
   8   2.0000     -10.256692      -279.0988 
   9   2.0000      -1.151712       -31.3397 
  10   2.0000      -1.042536       -28.3689 
  11   2.0000      -0.921942       -25.0873 
  12   2.0000      -0.875189       -23.8151 
  13   2.0000      -0.858687       -23.3661 
  14   2.0000      -0.791543       -21.5390 
  15   2.0000      -0.784459       -21.3462 
  16   2.0000      -0.684728       -18.6324 
  17   2.0000      -0.679210       -18.4822 
  18   2.0000      -0.611636       -16.6435 
  19   2.0000      -0.596567       -16.2334 
  20   2.0000      -0.553790       -15.0694 
  21   2.0000      -0.546034       -14.8583 
  22   2.0000      -0.532715       -14.4959 
  23   2.0000      -0.523802       -14.2534 
  24   2.0000      -0.520505       -14.1637 
  25   2.0000      -0.508328       -13.8323 
  26   2.0000      -0.507068       -13.7980 
  27   2.0000      -0.490047       -13.3349 
  28   2.0000      -0.474336       -12.9074 
  29   2.0000      -0.472838       -12.8666 
  30   2.0000      -0.471253       -12.8234 
  31   2.0000      -0.363577        -9.8934 
  32   2.0000      -0.330845        -9.0027 
  33   2.0000      -0.305962        -8.3257 
  34   0.0000       0.115458         3.1418 
  35   0.0000       0.116849         3.1796 
  36   0.0000       0.130432         3.5492 
  37   0.0000       0.134297         3.6544 
  38   0.0000       0.163805         4.4574 
  39   0.0000       0.176079         4.7914 
  40   0.0000       0.178162         4.8480 
  41   0.0000       0.179357         4.8805 
  42   0.0000       0.187619         5.1054 
  43   0.0000       0.193620         5.2687 
  44   0.0000       0.203508         5.5377 
  45   0.0000       0.208383         5.6704 
  46   0.0000       0.215936         5.8759 
  47   0.0000       0.239678         6.5220 
  48   0.0000       0.243957         6.6384 
  49   0.0000       0.248269         6.7558 
  50   0.0000       0.253807         6.9064 
  51   0.0000       0.269386         7.3304 
  52   0.0000       0.280597         7.6354 
  53   0.0000       0.285031         7.7561 
  54   0.0000       0.290334         7.9004 
  55   0.0000       0.292444         7.9578 
  56   0.0000       0.302253         8.2247 
  57   0.0000       0.305745         8.3197 
  58   0.0000       0.309125         8.4117 
  59   0.0000       0.339960         9.2508 
  60   0.0000       0.353925         9.6308 
  61   0.0000       0.367068         9.9884 
  62   0.0000       0.382177        10.3996 
  63   0.0000       0.388421        10.5695 
  64   0.0000       0.403266        10.9734 
  65   0.0000       0.407937        11.1005 
  66   0.0000       0.416644        11.3375 
  67   0.0000       0.432826        11.7778 
  68   0.0000       0.442624        12.0444 
  69   0.0000       0.450666        12.2633 
  70   0.0000       0.454347        12.3634 
  71   0.0000       0.473965        12.8972 
  72   0.0000       0.479148        13.0383 
  73   0.0000       0.482392        13.1266 
  74   0.0000       0.497460        13.5366 
  75   0.0000       0.501445        13.6450 
  76   0.0000       0.526022        14.3138 
  77   0.0000       0.529139        14.3986 
  78   0.0000       0.536532        14.5998 
  79   0.0000       0.545039        14.8313 
  80   0.0000       0.556651        15.1472 
  81   0.0000       0.565715        15.3939 
  82   0.0000       0.568877        15.4799 
  83   0.0000       0.569651        15.5010 
  84   0.0000       0.584033        15.8923 
  85   0.0000       0.592822        16.1315 
  86   0.0000       0.595930        16.2161 
  87   0.0000       0.617992        16.8164 
  88   0.0000       0.643366        17.5069 
  89   0.0000       0.644380        17.5345 
  90   0.0000       0.652356        17.7515 
  91   0.0000       0.653410        17.7802 
  92   0.0000       0.657136        17.8816 
  93   0.0000       0.670151        18.2357 
  94   0.0000       0.677633        18.4393 
  95   0.0000       0.682413        18.5694 
  96   0.0000       0.702286        19.1102 
  97   0.0000       0.709520        19.3070 
  98   0.0000       0.738181        20.0869 
  99   0.0000       0.739171        20.1139 
 100   0.0000       0.788201        21.4480 
 101   0.0000       0.798068        21.7165 
 102   0.0000       0.808203        21.9923 
 103   0.0000       0.814852        22.1732 
 104   0.0000       0.825176        22.4542 
 105   0.0000       0.857134        23.3238 
 106   0.0000       0.867207        23.5979 
 107   0.0000       0.879273        23.9262 
 108   0.0000       0.886883        24.1333 
 109   0.0000       0.905575        24.6420 
 110   0.0000       0.950112        25.8539 
 111   0.0000       0.983958        26.7749 
 112   0.0000       0.987235        26.8640 
 113   0.0000       1.000348        27.2209 
 114   0.0000       1.034507        28.1504 
 115   0.0000       1.046446        28.4753 
 116   0.0000       1.052225        28.6325 
 117   0.0000       1.090549        29.6754 
 118   0.0000       1.099489        29.9186 
 119   0.0000       1.102676        30.0053 
 120   0.0000       1.122700        30.5502 
 121   0.0000       1.130843        30.7718 
 122   0.0000       1.175245        31.9800 
 123   0.0000       1.185180        32.2504 
 124   0.0000       1.199462        32.6390 
 125   0.0000       1.200372        32.6638 
 126   0.0000       1.214747        33.0549 
 127   0.0000       1.217507        33.1300 
 128   0.0000       1.221361        33.2349 
 129   0.0000       1.228268        33.4229 
 130   0.0000       1.281570        34.8733 
 131   0.0000       1.292776        35.1782 
 132   0.0000       1.336846        36.3774 
 133   0.0000       1.356183        36.9036 
 134   0.0000       1.376942        37.4685 
 135   0.0000       1.404335        38.2139 
 136   0.0000       1.410817        38.3903 
 137   0.0000       1.481686        40.3187 
 138   0.0000       1.502545        40.8863 
 139   0.0000       1.523474        41.4558 
 140   0.0000       1.523682        41.4615 
 141   0.0000       1.572487        42.7895 
 142   0.0000       1.600649        43.5559 
 143   0.0000       1.602201        43.5981 
 144   0.0000       1.608242        43.7625 
 145   0.0000       1.622387        44.1474 
 146   0.0000       1.637339        44.5543 
 147   0.0000       1.638412        44.5834 
 148   0.0000       1.639384        44.6099 
 149   0.0000       1.641998        44.6810 
 150   0.0000       1.652140        44.9570 
 151   0.0000       1.657160        45.0936 
 152   0.0000       1.658981        45.1432 
 153   0.0000       1.667784        45.3827 
 154   0.0000       1.668383        45.3990 
 155   0.0000       1.684115        45.8271 
 156   0.0000       1.691804        46.0363 
 157   0.0000       1.732109        47.1331 
 158   0.0000       1.732202        47.1356 
 159   0.0000       1.738945        47.3191 
 160   0.0000       1.768963        48.1359 
 161   0.0000       1.774434        48.2848 
 162   0.0000       1.789738        48.7012 
 163   0.0000       1.799576        48.9689 
 164   0.0000       1.813313        49.3427 
 165   0.0000       1.823850        49.6295 
 166   0.0000       1.841357        50.1059 
 167   0.0000       1.870715        50.9047 
 168   0.0000       1.873464        50.9795 
 169   0.0000       1.880979        51.1840 
 170   0.0000       1.920356        52.2555 
 171   0.0000       1.969904        53.6038 
 172   0.0000       2.007025        54.6139 
 173   0.0000       2.039853        55.5072 
 174   0.0000       2.045900        55.6718 
 175   0.0000       2.065330        56.2005 
 176   0.0000       2.079697        56.5914 
 177   0.0000       2.111079        57.4454 
 178   0.0000       2.119152        57.6651 
 179   0.0000       2.120373        57.6983 
 180   0.0000       2.155357        58.6502 
 181   0.0000       2.174176        59.1623 
 182   0.0000       2.194943        59.7274 
 183   0.0000       2.207338        60.0647 
 184   0.0000       2.208542        60.0975 
 185   0.0000       2.217014        60.3280 
 186   0.0000       2.254101        61.3372 
 187   0.0000       2.312138        62.9165 
 188   0.0000       2.314298        62.9753 
 189   0.0000       2.325255        63.2734 
 190   0.0000       2.358757        64.1850 
 191   0.0000       2.372379        64.5557 
 192   0.0000       2.405895        65.4677 
 193   0.0000       2.409505        65.5660 
 194   0.0000       2.421985        65.9056 
 195   0.0000       2.427221        66.0480 
 196   0.0000       2.447334        66.5953 
 197   0.0000       2.448756        66.6340 
 198   0.0000       2.453844        66.7725 
 199   0.0000       2.472275        67.2740 
 200   0.0000       2.472787        67.2880 
 201   0.0000       2.495845        67.9154 
 202   0.0000       2.516254        68.4708 
 203   0.0000       2.552060        69.4451 
 204   0.0000       2.565154        69.8014 
 205   0.0000       2.583447        70.2992 
 206   0.0000       2.592914        70.5568 
 207   0.0000       2.596596        70.6570 
 208   0.0000       2.617047        71.2135 
 209   0.0000       2.625381        71.4403 
 210   0.0000       2.652928        72.1898 
 211   0.0000       2.653850        72.2149 
 212   0.0000       2.657983        72.3274 
 213   0.0000       2.674027        72.7640 
 214   0.0000       2.685573        73.0781 
 215   0.0000       2.705564        73.6221 
 216   0.0000       2.710594        73.7590 
 217   0.0000       2.719445        73.9999 
 218   0.0000       2.746658        74.7404 
 219   0.0000       2.759030        75.0770 
 220   0.0000       2.791766        75.9678 
 221   0.0000       2.794599        76.0449 
 222   0.0000       2.817048        76.6558 
 223   0.0000       2.870522        78.1109 
 224   0.0000       2.882526        78.4375 
 225   0.0000       2.915378        79.3315 
 226   0.0000       2.940174        80.0062 
 227   0.0000       2.940356        80.0112 
 228   0.0000       2.953417        80.3666 
 229   0.0000       3.005678        81.7886 
 230   0.0000       3.024846        82.3102 
 231   0.0000       3.033594        82.5483 
 232   0.0000       3.080425        83.8226 
 233   0.0000       3.105699        84.5104 
 234   0.0000       3.114094        84.7388 
 235   0.0000       3.138989        85.4162 
 236   0.0000       3.145333        85.5889 
 237   0.0000       3.148218        85.6674 
 238   0.0000       3.156335        85.8882 
 239   0.0000       3.192927        86.8840 
 240   0.0000       3.195239        86.9469 
 241   0.0000       3.197775        87.0159 
 242   0.0000       3.207219        87.2729 
 243   0.0000       3.221476        87.6608 
 244   0.0000       3.274905        89.1147 
 245   0.0000       3.275456        89.1297 
 246   0.0000       3.291718        89.5722 
 247   0.0000       3.292040        89.5810 
 248   0.0000       3.301862        89.8482 
 249   0.0000       3.309793        90.0640 
 250   0.0000       3.324176        90.4554 
 251   0.0000       3.330054        90.6154 
 252   0.0000       3.360229        91.4365 
 253   0.0000       3.362293        91.4927 
 254   0.0000       3.366337        91.6027 
 255   0.0000       3.371432        91.7413 
 256   0.0000       3.386391        92.1484 
 257   0.0000       3.395895        92.4070 
 258   0.0000       3.407233        92.7155 
 259   0.0000       3.407698        92.7282 
 260   0.0000       3.453862        93.9844 
 261   0.0000       3.458124        94.1003 
 262   0.0000       3.472771        94.4989 
 263   0.0000       3.484117        94.8076 
 264   0.0000       3.521260        95.8184 
 265   0.0000       3.531527        96.0977 
 266   0.0000       3.542694        96.4016 
 267   0.0000       3.549967        96.5995 
 268   0.0000       3.568354        97.0998 
 269   0.0000       3.597283        97.8870 
 270   0.0000       3.619706        98.4972 
 271   0.0000       3.645896        99.2099 
 272   0.0000       3.670422        99.8773 
 273   0.0000       3.679715       100.1301 
 274   0.0000       3.694400       100.5297 
 275   0.0000       3.723014       101.3083 
 276   0.0000       3.737832       101.7116 
 277   0.0000       3.751326       102.0788 
 278   0.0000       3.757667       102.2513 
 279   0.0000       3.781670       102.9045 
 280   0.0000       3.802636       103.4750 
 281   0.0000       3.856981       104.9538 
 282   0.0000       3.888828       105.8204 
 283   0.0000       3.899611       106.1138 
 284   0.0000       3.913508       106.4920 
 285   0.0000       3.927856       106.8824 
 286   0.0000       3.931614       106.9847 
 287   0.0000       4.003949       108.9530 
 288   0.0000       4.014195       109.2318 
 289   0.0000       4.021082       109.4192 
 290   0.0000       4.078642       110.9855 
 291   0.0000       4.106895       111.7543 
 292   0.0000       4.123448       112.2047 
 293   0.0000       4.163121       113.2843 
 294   0.0000       4.185626       113.8967 
 295   0.0000       4.209047       114.5340 
 296   0.0000       4.244381       115.4955 
 297   0.0000       4.271124       116.2232 
 298   0.0000       4.316790       117.4658 
 299   0.0000       4.324234       117.6684 
 300   0.0000       4.357844       118.5830 
 301   0.0000       4.401845       119.7803 
 302   0.0000       4.428464       120.5046 
 303   0.0000       4.460100       121.3655 
 304   0.0000       4.471300       121.6703 
 305   0.0000       4.492974       122.2601 
 306   0.0000       4.524168       123.1089 
 307   0.0000       4.526570       123.1742 
 308   0.0000       4.558868       124.0531 
 309   0.0000       4.611683       125.4903 
 310   0.0000       4.614926       125.5785 
 311   0.0000       4.658098       126.7533 
 312   0.0000       4.788392       130.2988 
 313   0.0000       4.853744       132.0771 
 314   0.0000       4.898590       133.2974 
 315   0.0000       4.928104       134.1005 
 316   0.0000       5.005922       136.2181 
 317   0.0000       5.049436       137.4021 
 318   0.0000       5.057407       137.6190 
 319   0.0000       5.070257       137.9687 
 320   0.0000       5.132729       139.6687 
 321   0.0000       5.149642       140.1289 
 322   0.0000       5.159246       140.3902 
 323   0.0000       5.228334       142.2702 
 324   0.0000       5.231842       142.3657 
 325   0.0000       5.270390       143.4146 
 326   0.0000       5.290575       143.9639 
 327   0.0000       5.324767       144.8943 
 328   0.0000       5.386361       146.5703 
 329   0.0000       5.479406       149.1022 
 330   0.0000       5.486040       149.2827 
 331   0.0000       5.525980       150.3696 
 332   0.0000       5.562703       151.3688 
 333   0.0000       5.655758       153.9010 
 334   0.0000       5.744035       156.3031 
 335   0.0000       5.861722       159.5056 
 336   0.0000       5.906009       160.7107 
 337   0.0000       5.939120       161.6117 
 338   0.0000       6.079731       165.4379 
 339   0.0000       6.107653       166.1977 
 340   0.0000       6.194226       168.5535 
 341   0.0000       6.299323       171.4133 
 342   0.0000      22.382084       609.0475 
 343   0.0000      22.429526       610.3384 
 344   0.0000      22.524174       612.9139 
 345   0.0000      22.554244       613.7322 
 346   0.0000      22.591786       614.7537 
 347   0.0000      22.991495       625.6304 
 348   0.0000      23.475536       638.8018 
 349   0.0000      32.802450       892.6000 
 350   0.0000      33.121586       901.2842 

                    ********************************
                    * MULLIKEN POPULATION ANALYSIS *
                    ********************************

-----------------------
MULLIKEN ATOMIC CHARGES
-----------------------
   0 C :   -0.010414
   1 C :   -0.010413
   2 N :   -0.049411
   3 N :   -0.049385
   4 C :   -0.348771
   5 C :   -0.314042
   6 C :   -0.314053
   7 H :    0.151866
   8 H :    0.151869
   9 H :    0.151867
  10 H :    0.151868
  11 H :    0.151785
  12 H :    0.151790
  13 C :   -0.348973
  14 C :   -0.349036
  15 H :    0.150063
  16 H :    0.150062
  17 H :    0.150062
  18 H :    0.150062
  19 H :    0.141602
  20 H :    0.141601
Sum of atomic charges:    0.0000000

--------------------------------
MULLIKEN REDUCED ORBITAL CHARGES
--------------------------------
  0 C s       :     3.115645  s :     3.115645
      pz      :     0.755815  p :     2.722135
      px      :     1.031623
      py      :     0.934698
      dz2     :     0.037301  d :     0.158957
      dxz     :     0.027208
      dyz     :     0.050663
      dx2y2   :     0.009519
      dxy     :     0.034266
      f0      :     0.003101  f :     0.013676
      f+1     :     0.002335
      f-1     :     0.002287
      f+2     :     0.002039
      f-2     :     0.001043
      f+3     :     0.002101
      f-3     :     0.000770
  1 C s       :     3.115703  s :     3.115703
      pz      :     0.755745  p :     2.722062
      px      :     1.031620
      py      :     0.934698
      dz2     :     0.037308  d :     0.158972
      dxz     :     0.027208
      dyz     :     0.050666
      dx2y2   :     0.009525
      dxy     :     0.034265
      f0      :     0.003101  f :     0.013676
      f+1     :     0.002335
      f-1     :     0.002287
      f+2     :     0.002039
      f-2     :     0.001043
      f+3     :     0.002101
      f-3     :     0.000770
  2 N s       :     3.448660  s :     3.448660
      pz      :     1.035911  p :     3.491235
      px      :     1.445193
      py      :     1.010130
      dz2     :     0.028039  d :     0.103927
      dxz     :     0.017005
      dyz     :     0.029066
      dx2y2   :     0.015474
      dxy     :     0.014343
      f0      :     0.000744  f :     0.005589
      f+1     :     0.000627
      f-1     :     0.001299
      f+2     :     0.000782
      f-2     :     0.000508
      f+3     :     0.000811
      f-3     :     0.000818
  3 N s       :     3.448647  s :     3.448647
      pz      :     1.035919  p :     3.491217
      px      :     1.445194
      py      :     1.010104
      dz2     :     0.028042  d :     0.103931
      dxz     :     0.017005
      dyz     :     0.029067
      dx2y2   :     0.015475
      dxy     :     0.014343
      f0      :     0.000744  f :     0.005589
      f+1     :     0.000627
      f-1     :     0.001299
      f+2     :     0.000782
      f-2     :     0.000508
      f+3     :     0.000811
      f-3     :     0.000818
  4 C s       :     3.680969  s :     3.680969
      pz      :     1.160872  p :     2.545447
      px      :     0.737411
      py      :     0.647165
      dz2     :     0.013969  d :     0.108765
      dxz     :     0.019763
      dyz     :     0.031086
      dx2y2   :     0.010177
      dxy     :     0.033769
      f0      :     0.001357  f :     0.013590
      f+1     :     0.000441
      f-1     :     0.003414
      f+2     :     0.001956
      f-2     :     0.003752
      f+3     :     0.001756
      f-3     :     0.000915
  5 C s       :     3.313551  s :     3.313551
      pz      :     1.077986  p :     2.927548
      px      :     1.079402
      py      :     0.770160
      dz2     :     0.012982  d :     0.067675
      dxz     :     0.004065
      dyz     :     0.012495
      dx2y2   :     0.006653
      dxy     :     0.031479
      f0      :     0.001047  f :     0.005268
      f+1     :    -0.000032
      f-1     :     0.000742
      f+2     :     0.000626
      f-2     :     0.000315
      f+3     :     0.001408
      f-3     :     0.001162
  6 C s       :     3.313571  s :     3.313571
      pz      :     1.077980  p :     2.927536
      px      :     1.079401
      py      :     0.770155
      dz2     :     0.012983  d :     0.067677
      dxz     :     0.004065
      dyz     :     0.012496
      dx2y2   :     0.006653
      dxy     :     0.031480
      f0      :     0.001047  f :     0.005269
      f+1     :    -0.000032
      f-1     :     0.000742
      f+2     :     0.000627
      f-2     :     0.000315
      f+3     :     0.001408
      f-3     :     0.001162
  7 H s       :     0.826954  s :     0.826954
      pz      :     0.004808  p :     0.021180
      px      :     0.010535
      py      :     0.005837
  8 H s       :     0.826951  s :     0.826951
      pz      :     0.004808  p :     0.021180
      px      :     0.010535
      py      :     0.005837
  9 H s       :     0.826953  s :     0.826953
      pz      :     0.004808  p :     0.021180
      px      :     0.010535
      py      :     0.005837
 10 H s       :     0.826952  s :     0.826952
      pz      :     0.004808  p :     0.021180
      px      :     0.010535
      py      :     0.005837
 11 H s       :     0.826067  s :     0.826067
      pz      :     0.014869  p :     0.022148
      px      :     0.004069
      py      :     0.003211
 12 H s       :     0.826061  s :     0.826061
      pz      :     0.014869  p :     0.022148
      px      :     0.004069
      py      :     0.003211
 13 C s       :     3.332899  s :     3.332899
      pz      :     0.918746  p :     2.968444
      px      :     1.065928
      py      :     0.983770
      dz2     :     0.012558  d :     0.044948
      dxz     :     0.006718
      dyz     :     0.004559
      dx2y2   :     0.003093
      dxy     :     0.018020
      f0      :     0.000418  f :     0.002681
      f+1     :     0.000031
      f-1     :     0.001082
      f+2     :     0.000065
      f-2     :     0.000459
      f+3     :     0.000117
      f-3     :     0.000509
 14 C s       :     3.332983  s :     3.332983
      pz      :     0.918691  p :     2.968423
      px      :     1.065932
      py      :     0.983799
      dz2     :     0.012559  d :     0.044949
      dxz     :     0.006718
      dyz     :     0.004559
      dx2y2   :     0.003093
      dxy     :     0.018020
      f0      :     0.000418  f :     0.002681
      f+1     :     0.000031
      f-1     :     0.001082
      f+2     :     0.000065
      f-2     :     0.000459
      f+3     :     0.000117
      f-3     :     0.000509
 15 H s       :     0.828023  s :     0.828023
      pz      :     0.003845  p :     0.021915
      px      :     0.010377
      py      :     0.007693
 16 H s       :     0.828024  s :     0.828024
      pz      :     0.003845  p :     0.021915
      px      :     0.010377
      py      :     0.007692
 17 H s       :     0.828023  s :     0.828023
      pz      :     0.003845  p :     0.021915
      px      :     0.010377
      py      :     0.007693
 18 H s       :     0.828023  s :     0.828023
      pz      :     0.003845  p :     0.021915
      px      :     0.010377
      py      :     0.007693
 19 H s       :     0.835612  s :     0.835612
      pz      :     0.012584  p :     0.022785
      px      :     0.004105
      py      :     0.006096
 20 H s       :     0.835614  s :     0.835614
      pz      :     0.012584  p :     0.022786
      px      :     0.004105
      py      :     0.006096


                     *******************************
                     * LOEWDIN POPULATION ANALYSIS *
                     *******************************

----------------------
LOEWDIN ATOMIC CHARGES
----------------------
   0 C :   -0.222879
   1 C :   -0.222878
   2 N :    0.192815
   3 N :    0.192815
   4 C :   -0.433120
   5 C :   -0.275358
   6 C :   -0.275358
   7 H :    0.124341
   8 H :    0.124341
   9 H :    0.124341
  10 H :    0.124341
  11 H :    0.127140
  12 H :    0.127140
  13 C :   -0.261986
  14 C :   -0.261986
  15 H :    0.135277
  16 H :    0.135277
  17 H :    0.135277
  18 H :    0.135277
  19 H :    0.137592
  20 H :    0.137592

-------------------------------
LOEWDIN REDUCED ORBITAL CHARGES
-------------------------------
  0 C s       :     2.711212  s :     2.711212
      pz      :     0.894137  p :     2.849882
      px      :     0.928341
      py      :     1.027404
      dz2     :     0.160918  d :     0.583064
      dxz     :     0.089807
      dyz     :     0.169341
      dx2y2   :     0.063755
      dxy     :     0.099243
      f0      :     0.021129  f :     0.078720
      f+1     :     0.013701
      f-1     :     0.014342
      f+2     :     0.010527
      f-2     :     0.006752
      f+3     :     0.006768
      f-3     :     0.005501
  1 C s       :     2.711212  s :     2.711212
      pz      :     0.894137  p :     2.849882
      px      :     0.928340
      py      :     1.027404
      dz2     :     0.160918  d :     0.583065
      dxz     :     0.089807
      dyz     :     0.169341
      dx2y2   :     0.063755
      dxy     :     0.099244
      f0      :     0.021129  f :     0.078720
      f+1     :     0.013701
      f-1     :     0.014342
      f+2     :     0.010527
      f-2     :     0.006752
      f+3     :     0.006768
      f-3     :     0.005501
  2 N s       :     2.869507  s :     2.869507
      pz      :     1.164857  p :     3.574591
      px      :     1.254204
      py      :     1.155529
      dz2     :     0.093218  d :     0.339719
      dxz     :     0.052370
      dyz     :     0.108249
      dx2y2   :     0.046085
      dxy     :     0.039797
      f0      :     0.003183  f :     0.023369
      f+1     :     0.001834
      f-1     :     0.007549
      f+2     :     0.003173
      f-2     :     0.002970
      f+3     :     0.002404
      f-3     :     0.002255
  3 N s       :     2.869507  s :     2.869507
      pz      :     1.164857  p :     3.574590
      px      :     1.254204
      py      :     1.155529
      dz2     :     0.093218  d :     0.339719
      dxz     :     0.052370
      dyz     :     0.108249
      dx2y2   :     0.046085
      dxy     :     0.039797
      f0      :     0.003183  f :     0.023369
      f+1     :     0.001834
      f-1     :     0.007549
      f+2     :     0.003173
      f-2     :     0.002970
      f+3     :     0.002404
      f-3     :     0.002255
  4 C s       :     3.039278  s :     3.039278
      pz      :     1.297797  p :     2.863588
      px      :     0.739319
      py      :     0.826472
      dz2     :     0.071184  d :     0.442534
      dxz     :     0.035119
      dyz     :     0.142882
      dx2y2   :     0.081793
      dxy     :     0.111555
      f0      :     0.010042  f :     0.087720
      f+1     :     0.001211
      f-1     :     0.026925
      f+2     :     0.014975
      f-2     :     0.022667
      f+3     :     0.005764
      f-3     :     0.006135
  5 C s       :     2.835832  s :     2.835832
      pz      :     1.079633  p :     3.091464
      px      :     1.097901
      py      :     0.913930
      dz2     :     0.068417  d :     0.309396
      dxz     :     0.014257
      dyz     :     0.055118
      dx2y2   :     0.054439
      dxy     :     0.117166
      f0      :     0.005067  f :     0.038665
      f+1     :     0.000469
      f-1     :     0.005345
      f+2     :     0.007342
      f-2     :     0.005654
      f+3     :     0.007665
      f-3     :     0.007122
  6 C s       :     2.835833  s :     2.835833
      pz      :     1.079633  p :     3.091464
      px      :     1.097901
      py      :     0.913930
      dz2     :     0.068417  d :     0.309395
      dxz     :     0.014257
      dyz     :     0.055118
      dx2y2   :     0.054439
      dxy     :     0.117165
      f0      :     0.005067  f :     0.038665
      f+1     :     0.000469
      f-1     :     0.005345
      f+2     :     0.007342
      f-2     :     0.005654
      f+3     :     0.007665
      f-3     :     0.007122
  7 H s       :     0.815542  s :     0.815542
      pz      :     0.015340  p :     0.060118
      px      :     0.029382
      py      :     0.015396
  8 H s       :     0.815541  s :     0.815541
      pz      :     0.015340  p :     0.060118
      px      :     0.029382
      py      :     0.015396
  9 H s       :     0.815541  s :     0.815541
      pz      :     0.015340  p :     0.060118
      px      :     0.029382
      py      :     0.015396
 10 H s       :     0.815541  s :     0.815541
      pz      :     0.015340  p :     0.060118
      px      :     0.029382
      py      :     0.015396
 11 H s       :     0.812096  s :     0.812096
      pz      :     0.038595  p :     0.060764
      px      :     0.012971
      py      :     0.009198
 12 H s       :     0.812096  s :     0.812096
      pz      :     0.038595  p :     0.060764
      px      :     0.012971
      py      :     0.009198
 13 C s       :     2.815199  s :     2.815199
      pz      :     1.047189  p :     3.170461
      px      :     1.073808
      py      :     1.049464
      dz2     :     0.070121  d :     0.251615
      dxz     :     0.023806
      dyz     :     0.057313
      dx2y2   :     0.016189
      dxy     :     0.084186
      f0      :     0.002399  f :     0.024710
      f+1     :     0.003994
      f-1     :     0.005710
      f+2     :     0.004269
      f-2     :     0.003472
      f+3     :     0.001200
      f-3     :     0.003666
 14 C s       :     2.815200  s :     2.815200
      pz      :     1.047188  p :     3.170461
      px      :     1.073808
      py      :     1.049465
      dz2     :     0.070121  d :     0.251615
      dxz     :     0.023806
      dyz     :     0.057313
      dx2y2   :     0.016189
      dxy     :     0.084186
      f0      :     0.002399  f :     0.024710
      f+1     :     0.003994
      f-1     :     0.005710
      f+2     :     0.004269
      f-2     :     0.003472
      f+3     :     0.001200
      f-3     :     0.003666
 15 H s       :     0.804886  s :     0.804886
      pz      :     0.012119  p :     0.059837
      px      :     0.027932
      py      :     0.019786
 16 H s       :     0.804886  s :     0.804886
      pz      :     0.012119  p :     0.059837
      px      :     0.027932
      py      :     0.019786
 17 H s       :     0.804886  s :     0.804886
      pz      :     0.012120  p :     0.059837
      px      :     0.027932
      py      :     0.019786
 18 H s       :     0.804886  s :     0.804886
      pz      :     0.012119  p :     0.059837
      px      :     0.027932
      py      :     0.019786
 19 H s       :     0.802335  s :     0.802335
      pz      :     0.029150  p :     0.060073
      px      :     0.012866
      py      :     0.018056
 20 H s       :     0.802335  s :     0.802335
      pz      :     0.029150  p :     0.060073
      px      :     0.012866
      py      :     0.018056


                      *****************************
                      * MAYER POPULATION ANALYSIS *
                      *****************************

  NA   - Mulliken gross atomic population
  ZA   - Total nuclear charge
  QA   - Mulliken gross atomic charge
  VA   - Mayer's total valence
  BVA  - Mayer's bonded valence
  FA   - Mayer's free valence

  ATOM       NA         ZA         QA         VA         BVA        FA
  0 C      6.0104     6.0000    -0.0104     3.8181     3.8181     0.0000
  1 C      6.0104     6.0000    -0.0104     3.8181     3.8181     0.0000
  2 N      7.0494     7.0000    -0.0494     3.1868     3.1868     0.0000
  3 N      7.0494     7.0000    -0.0494     3.1868     3.1868     0.0000
  4 C      6.3488     6.0000    -0.3488     2.6058     2.6058     0.0000
  5 C      6.3140     6.0000    -0.3140     3.8168     3.8168     0.0000
  6 C      6.3141     6.0000    -0.3141     3.8168     3.8168     0.0000
  7 H      0.8481     1.0000     0.1519     0.9534     0.9534     0.0000
  8 H      0.8481     1.0000     0.1519     0.9534     0.9534     0.0000
  9 H      0.8481     1.0000     0.1519     0.9534     0.9534     0.0000
[...]
     12       0.000000  -0.000080   0.000000  -0.000315   0.000001   0.000000
     13       0.000000  -0.000000   0.000000   0.000000   0.000000  -0.000056
     14      -0.000549  -0.000000   0.000000   0.000000   0.000000   0.000000
     15      -0.000000   0.000906   0.000552  -0.066424   0.066842  -0.000000
     16      -0.035200   0.000000  -0.000000  -0.000000   0.000000   0.000108
     17       0.001465  -0.000000  -0.000000  -0.000000   0.000000  -0.001144
     18      -0.000000   0.000906  -0.000552  -0.066850  -0.066417  -0.000000
     19       0.035194  -0.000000   0.000000  -0.000000  -0.000000   0.000108
     20       0.001465  -0.000000   0.000000   0.000000   0.000000   0.001143
     21      -0.373423  -0.005584  -0.003646   0.400705  -0.403284   0.000785
     22       0.208761   0.003002   0.001866  -0.234613   0.236161  -0.000490
     23      -0.151596  -0.002583  -0.001729   0.174577  -0.175697   0.000631
     24      -0.373366  -0.005583   0.003648   0.403276   0.400715  -0.000784
     25      -0.208729  -0.003001   0.001868   0.236119   0.234657  -0.000489
     26      -0.151572  -0.002583   0.001730   0.175697   0.174578  -0.000631
     27       0.373368  -0.005583   0.003648   0.403274   0.400714   0.000785
     28      -0.208730   0.003001  -0.001868  -0.236117  -0.234656  -0.000490
     29      -0.151573   0.002583  -0.001730  -0.175696  -0.174577  -0.000631
     30       0.373424  -0.005584  -0.003646   0.400705  -0.403284  -0.000785
     31       0.208761  -0.003002  -0.001866   0.234613  -0.236161  -0.000490
     32      -0.151595   0.002583   0.001729  -0.174576   0.175696   0.000631
     33      -0.000000   0.000533   0.000412  -0.011269   0.011341  -0.000000
     34       0.002780  -0.000000  -0.000000  -0.000000   0.000000   0.000399
     35       0.287105   0.000000   0.000000  -0.000000   0.000000   0.012874
     36      -0.000000   0.000532  -0.000412  -0.011341  -0.011269   0.000000
     37      -0.002780   0.000000  -0.000000   0.000000   0.000000   0.000399
     38       0.287061  -0.000000  -0.000000  -0.000002  -0.000002  -0.012873
     39      -0.000000  -0.065513  -0.065497  -0.000919   0.000583   0.000000
     40      -0.002785   0.000000   0.000000   0.000000   0.000000  -0.044274
     41       0.001917  -0.000000  -0.000000   0.000000   0.000000  -0.047760
     42      -0.000000  -0.065482   0.065528  -0.000923  -0.000577  -0.000000
     43       0.002785   0.000000  -0.000000   0.000000   0.000000  -0.044283
     44       0.001917  -0.000000   0.000000  -0.000000  -0.000000   0.047769
     45       0.034545   0.398163   0.398012   0.005383  -0.003457   0.170588
     46       0.024210   0.298273   0.298094   0.004227  -0.002840   0.114557
     47       0.000902   0.019005   0.019413  -0.000088   0.000335   0.000259
     48       0.034543   0.397972  -0.398202   0.005404   0.003423  -0.170623
     49      -0.024209  -0.298131   0.298237  -0.004245  -0.002813   0.114580
     50       0.000902   0.018997  -0.019423  -0.000090  -0.000335  -0.000260
     51      -0.034543   0.397976  -0.398205   0.005404   0.003423   0.170626
     52      -0.024209   0.298133  -0.298238   0.004245   0.002813   0.114582
     53       0.000902  -0.018997   0.019423   0.000090   0.000335  -0.000260
     54      -0.034544   0.398165   0.398015   0.005383  -0.003457  -0.170590
     55       0.024210  -0.298275  -0.298097  -0.004227   0.002840   0.114559
     56       0.000902  -0.019006  -0.019414   0.000088  -0.000335   0.000260
     57      -0.000000  -0.011163  -0.011266   0.000325  -0.000400   0.000001
     58      -0.013390   0.000002   0.000002  -0.000000  -0.000000   0.307602
     59      -0.025103   0.000003   0.000004  -0.000000  -0.000000   0.562510
     60       0.000000  -0.011158   0.011271   0.000327   0.000398   0.000001
     61       0.013389  -0.000002   0.000002  -0.000000  -0.000000   0.307667
     62      -0.025101   0.000003  -0.000003   0.000001   0.000001  -0.562627
                 60         61         62    
      0       0.000000  -0.000000  -0.000000
      1      -0.001156   0.000283   0.000451
      2      -0.000236   0.000111   0.000104
      3      -0.000000   0.000000   0.000000
      4       0.001156  -0.000282   0.000451
      5      -0.000236   0.000111  -0.000104
      6      -0.000000   0.000000   0.000000
      7      -0.000193   0.000292   0.000211
      8       0.000300  -0.000179  -0.000562
      9       0.000000  -0.000000   0.000000
     10       0.000193  -0.000292   0.000211
     11       0.000300  -0.000179   0.000562
     12       0.000000   0.000000  -0.000000
     13      -0.000000   0.000000   0.000249
     14      -0.000038   0.000073   0.000000
     15      -0.000000   0.000000   0.000000
     16       0.000171   0.013581   0.013560
     17      -0.000874  -0.064321  -0.064268
     18       0.000000  -0.000000   0.000000
     19      -0.000171  -0.013579   0.013562
     20      -0.000874  -0.064314   0.064275
     21       0.001019   0.165099   0.165052
     22      -0.000724  -0.089334  -0.089395
     23       0.000713   0.059854   0.059857
     24       0.001018   0.165082  -0.165069
     25       0.000723   0.089325  -0.089405
     26       0.000713   0.059848  -0.059864
     27      -0.001018  -0.165081   0.165068
     28       0.000724   0.089324  -0.089404
     29       0.000713   0.059847  -0.059863
     30      -0.001018  -0.165099  -0.165052
     31      -0.000724  -0.089334  -0.089395
     32       0.000713   0.059853   0.059857
     33      -0.000000  -0.000001  -0.000001
     34       0.000270   0.008417   0.008416
     35       0.009491   0.646471   0.646352
     36      -0.000000  -0.000001   0.000001
     37      -0.000270  -0.008416   0.008417
     38       0.009487   0.646403  -0.646421
     39       0.000000   0.000000   0.000000
     40      -0.043488   0.000572   0.000731
     41      -0.047679   0.000629   0.000829
     42       0.000000  -0.000000   0.000000
     43       0.043479  -0.000572   0.000731
     44      -0.047669   0.000629  -0.000829
     45       0.164223  -0.002994  -0.003441
     46       0.110105  -0.001779  -0.002155
     47      -0.000022   0.000334   0.000349
     48       0.164189  -0.002993   0.003440
     49      -0.110082   0.001778  -0.002155
     50      -0.000022   0.000334  -0.000349
     51      -0.164191   0.002993  -0.003440
     52      -0.110084   0.001778  -0.002155
     53      -0.000022   0.000334  -0.000349
     54      -0.164226   0.002994   0.003441
     55       0.110107  -0.001779  -0.002155
     56      -0.000022   0.000334   0.000349
     57       0.000001  -0.000000  -0.000000
     58       0.310944  -0.004115  -0.005386
     59       0.566543  -0.007188  -0.009692
     60      -0.000001   0.000000  -0.000000
     61      -0.310880   0.004113  -0.005386
     62       0.566425  -0.007185   0.009691


-----------
IR SPECTRUM
-----------

 Mode   freq       eps      Int      T**2         TX        TY        TZ
       cm**-1   L/(mol*cm) km/mol    a.u.
----------------------------------------------------------------------------
  6:     97.87   0.000252    1.27  0.000803  (-0.028346  0.000000  0.000000)
  7:    102.91   0.000000    0.00  0.000000  (-0.000002  0.000000  0.000000)
  8:    137.02   0.000000    0.00  0.000000  ( 0.000001  0.000000  0.000000)
  9:    165.42   0.000910    4.60  0.001716  (-0.041429 -0.000000 -0.000000)
 10:    175.46   0.000000    0.00  0.000000  ( 0.000015 -0.000000 -0.000000)
 11:    177.01   0.003797   19.19  0.006694  ( 0.081816  0.000000 -0.000000)
 12:    280.40   0.000676    3.42  0.000753  (-0.000000  0.027435  0.000002)
 13:    281.06   0.000133    0.67  0.000148  ( 0.000000  0.000006 -0.012156)
 14:    292.35   0.000140    0.71  0.000150  (-0.012231 -0.000000  0.000000)
 15:    298.60   0.001277    6.46  0.001335  ( 0.000000  0.000000  0.036539)
 16:    320.60   0.000000    0.00  0.000000  ( 0.000000  0.000000  0.000000)
 17:    551.14   0.000339    1.71  0.000192  ( 0.000000 -0.013846 -0.000000)
 18:    580.50   0.001383    6.99  0.000744  (-0.000000  0.027268 -0.000000)
 19:    622.87   0.000325    1.64  0.000163  ( 0.000000 -0.000000 -0.012762)
 20:    637.94   0.001385    7.00  0.000678  ( 0.026030  0.000002  0.000000)
 21:    684.28   0.000000    0.00  0.000000  (-0.000000  0.000001 -0.000000)
 22:    729.05   0.001592    8.05  0.000681  (-0.000000 -0.000000 -0.026105)
 23:    867.17   0.005892   29.78  0.002120  (-0.000000  0.046047 -0.000000)
 24:    979.62   0.000213    1.08  0.000068  (-0.000000 -0.000000 -0.008240)
 25:   1065.41   0.000432    2.18  0.000127  ( 0.011249  0.000000 -0.000000)
 26:   1078.83   0.000120    0.61  0.000035  ( 0.000000  0.005893  0.000000)
 27:   1083.57   0.000000    0.00  0.000000  (-0.000000  0.000000  0.000000)
 28:   1091.36   0.000075    0.38  0.000021  (-0.000000 -0.000000  0.004624)
 29:   1121.56   0.000028    0.14  0.000008  ( 0.000000  0.002774 -0.000000)
 30:   1154.94   0.000000    0.00  0.000000  (-0.000000  0.000000 -0.000000)
 31:   1155.35   0.000003    0.01  0.000001  ( 0.000893 -0.000000 -0.000000)
 32:   1179.77   0.000371    1.88  0.000098  ( 0.000000 -0.000000 -0.009912)
 33:   1253.94   0.001947    9.84  0.000485  ( 0.000000  0.022013  0.000000)
 34:   1393.67   0.001131    5.72  0.000253  ( 0.000000 -0.000000 -0.015916)
 35:   1403.37   0.000012    0.06  0.000003  ( 0.000000  0.001612 -0.000000)
 36:   1425.65   0.000498    2.52  0.000109  (-0.000000 -0.000001 -0.010437)
 37:   1430.03   0.027481  138.88  0.005997  (-0.000000  0.077440 -0.000000)
 38:   1447.65   0.000686    3.46  0.000148  (-0.000000  0.012157 -0.000000)
 39:   1450.88   0.001072    5.42  0.000231  ( 0.000000 -0.000000 -0.015183)
 40:   1459.05   0.006265   31.66  0.001340  (-0.000000 -0.000000  0.036604)
 41:   1462.40   0.009435   47.68  0.002013  ( 0.000000  0.044871 -0.000000)
 42:   1465.41   0.002534   12.81  0.000540  (-0.023232  0.000000  0.000000)
 43:   1466.78   0.000000    0.00  0.000000  (-0.000001  0.000000 -0.000000)
 44:   1476.23   0.000000    0.00  0.000000  ( 0.000003  0.000000  0.000000)
 45:   1476.80   0.010053   50.80  0.002124  (-0.046090 -0.000000 -0.000000)
 46:   1486.77   0.003032   15.32  0.000636  ( 0.000000 -0.000001 -0.025227)
 47:   1494.88   0.002308   11.66  0.000482  (-0.000000  0.021950 -0.000001)
 48:   1503.78   0.004808   24.30  0.000998  (-0.000000  0.000001  0.031586)
 49:   1505.26   0.000939    4.75  0.000195  (-0.000000 -0.013953  0.000002)
 50:   1745.04   0.001768    8.93  0.000316  ( 0.000000  0.000000  0.017780)
 51:   3063.92   0.009545   48.24  0.000972  (-0.000000 -0.031179 -0.000002)
 52:   3065.20   0.004682   23.66  0.000477  (-0.000000 -0.000002  0.021834)
 53:   3074.04   0.023046  116.47  0.002340  ( 0.000000 -0.048369 -0.000000)
 54:   3075.08   0.000000    0.00  0.000000  (-0.000000 -0.000004 -0.000190)
 55:   3126.07   0.007542   38.12  0.000753  (-0.027439  0.000000 -0.000000)
 56:   3126.28   0.000000    0.00  0.000000  ( 0.000006  0.000000  0.000000)
 57:   3143.77   0.010220   51.65  0.001014  (-0.031851 -0.000000 -0.000000)
 58:   3143.79   0.000000    0.00  0.000000  ( 0.000102 -0.000000 -0.000000)
 59:   3163.44   0.003024   15.28  0.000298  (-0.000000 -0.017272  0.000002)
 60:   3166.59   0.004236   21.41  0.000417  ( 0.000000 -0.000002 -0.020431)
 61:   3190.37   0.003658   18.48  0.000358  ( 0.000000  0.000000 -0.018915)
 62:   3190.59   0.000185    0.94  0.000018  ( 0.000000  0.004256  0.000001)

* The epsilon (eps) is given for a Dirac delta lineshape.
** The dipole moment derivative (T) already includes vibrational overlap.

The first frequency considered to be a vibration is 6
The total number of vibrations considered is 57


--------------------------
THERMOCHEMISTRY AT 298.15K
--------------------------

Temperature         ... 298.15 K
Pressure            ... 1.00 atm
Total Mass          ... 124.19 AMU

Throughout the following assumptions are being made:
  (1) The electronic state is orbitally nondegenerate
  (2) There are no thermally accessible electronically excited states
  (3) Hindered rotations indicated by low frequency modes are not
      treated as such but are treated as vibrations and this may
      cause some error
  (4) All equations used are the standard statistical mechanics
      equations for an ideal gas
  (5) All vibrations are strictly harmonic

freq.      97.87  E(vib)   ...       0.46 
freq.     102.91  E(vib)   ...       0.46 
freq.     137.02  E(vib)   ...       0.42 
freq.     165.42  E(vib)   ...       0.39 
freq.     175.46  E(vib)   ...       0.38 
freq.     177.01  E(vib)   ...       0.38 
freq.     280.40  E(vib)   ...       0.28 
freq.     281.06  E(vib)   ...       0.28 
freq.     292.35  E(vib)   ...       0.27 
freq.     298.60  E(vib)   ...       0.26 
freq.     320.60  E(vib)   ...       0.25 
freq.     551.14  E(vib)   ...       0.12 
freq.     580.50  E(vib)   ...       0.11 
freq.     622.87  E(vib)   ...       0.09 
freq.     637.94  E(vib)   ...       0.09 
freq.     684.28  E(vib)   ...       0.07 
freq.     729.05  E(vib)   ...       0.06 
freq.     867.17  E(vib)   ...       0.04 
freq.     979.62  E(vib)   ...       0.03 
freq.    1065.41  E(vib)   ...       0.02 
freq.    1078.83  E(vib)   ...       0.02 
freq.    1083.57  E(vib)   ...       0.02 
freq.    1091.36  E(vib)   ...       0.02 
freq.    1121.56  E(vib)   ...       0.01 
freq.    1154.94  E(vib)   ...       0.01 
freq.    1155.35  E(vib)   ...       0.01 
freq.    1179.77  E(vib)   ...       0.01 
freq.    1253.94  E(vib)   ...       0.01 
freq.    1393.67  E(vib)   ...       0.00 
freq.    1403.37  E(vib)   ...       0.00 
freq.    1425.65  E(vib)   ...       0.00 
freq.    1430.03  E(vib)   ...       0.00 
freq.    1447.65  E(vib)   ...       0.00 
freq.    1450.88  E(vib)   ...       0.00 
freq.    1459.05  E(vib)   ...       0.00 
freq.    1462.40  E(vib)   ...       0.00 
freq.    1465.41  E(vib)   ...       0.00 
freq.    1466.78  E(vib)   ...       0.00 
freq.    1476.23  E(vib)   ...       0.00 
freq.    1476.80  E(vib)   ...       0.00 
freq.    1486.77  E(vib)   ...       0.00 
freq.    1494.88  E(vib)   ...       0.00 
freq.    1503.78  E(vib)   ...       0.00 
freq.    1505.26  E(vib)   ...       0.00 
freq.    1745.04  E(vib)   ...       0.00 
freq.    3063.92  E(vib)   ...       0.00 
freq.    3065.20  E(vib)   ...       0.00 
freq.    3074.04  E(vib)   ...       0.00 
freq.    3075.08  E(vib)   ...       0.00 
freq.    3126.07  E(vib)   ...       0.00 
freq.    3126.28  E(vib)   ...       0.00 
freq.    3143.77  E(vib)   ...       0.00 
freq.    3143.79  E(vib)   ...       0.00 
freq.    3163.44  E(vib)   ...       0.00 
freq.    3166.59  E(vib)   ...       0.00 
freq.    3190.37  E(vib)   ...       0.00 
freq.    3190.59  E(vib)   ...       0.00 

------------
INNER ENERGY
------------

The inner energy is: U= E(el) + E(ZPE) + E(vib) + E(rot) + E(trans)
    E(el)   - is the total energy from the electronic structure calculation
              = E(kin-el) + E(nuc-el) + E(el-el) + E(nuc-nuc)
    E(ZPE)  - the the zero temperature vibrational energy from the frequency calculation
    E(vib)  - the the finite temperature correction to E(ZPE) due to population
              of excited vibrational states
    E(rot)  - is the rotational thermal energy
    E(trans)- is the translational thermal energy

Summary of contributions to the inner energy U:
Electronic energy                ...   -383.49136760 Eh
Zero point energy                ...      0.18405040 Eh     115.49 kcal/mol
Thermal vibrational correction   ...      0.00735349 Eh       4.61 kcal/mol
Thermal rotational correction    ...      0.00141627 Eh       0.89 kcal/mol
Thermal translational correction ...      0.00141627 Eh       0.89 kcal/mol
-----------------------------------------------------------------------
Total thermal energy                   -383.29713117 Eh


Summary of corrections to the electronic energy:
(perhaps to be used in another calculation)
Total thermal correction                  0.01018603 Eh       6.39 kcal/mol
Non-thermal (ZPE) correction              0.18405040 Eh     115.49 kcal/mol
-----------------------------------------------------------------------
Total correction                          0.19423643 Eh     121.88 kcal/mol


--------
ENTHALPY
--------

The enthalpy is H = U + kB*T
                kB is Boltzmann's constant
Total free energy                 ...   -383.29713117 Eh 
Thermal Enthalpy correction       ...      0.00094421 Eh       0.59 kcal/mol
-----------------------------------------------------------------------
Total Enthalpy                    ...   -383.29618696 Eh


Note: Rotational entropy computed according to Herzberg 
Infrared and Raman Spectra, Chapter V,1, Van Nostrand Reinhold, 1945 
Point Group:  C2v, Symmetry Number:   2  
Rotational constants in cm-1:     0.083379     0.051270     0.032521 

Vibrational entropy computed according to the QRRHO of S. Grimme
Chem.Eur.J. 2012 18 9955


-------
ENTROPY
-------

The entropy contributions are T*S = T*(S(el)+S(vib)+S(rot)+S(trans))
     S(el)   - electronic entropy
     S(vib)  - vibrational entropy
     S(rot)  - rotational entropy
     S(trans)- translational entropy
The entropies will be listed as multiplied by the temperature to get
units of energy

Electronic entropy                ...      0.00000000 Eh      0.00 kcal/mol
Vibrational entropy               ...      0.01281488 Eh      8.04 kcal/mol
Rotational entropy                ...      0.01304893 Eh      8.19 kcal/mol
Translational entropy             ...      0.01917803 Eh     12.03 kcal/mol
-----------------------------------------------------------------------
Final entropy term                ...      0.04504184 Eh     28.26 kcal/mol

In case the symmetry of your molecule has not been determined correctly
or in case you have a reason to use a different symmetry number we print 
out the resulting rotational entropy values for sn=1,12 :
 --------------------------------------------------------
|  sn= 1 | S(rot)=       0.01370339 Eh      8.60 kcal/mol|
|  sn= 2 | S(rot)=       0.01304893 Eh      8.19 kcal/mol|
|  sn= 3 | S(rot)=       0.01266610 Eh      7.95 kcal/mol|
|  sn= 4 | S(rot)=       0.01239448 Eh      7.78 kcal/mol|
|  sn= 5 | S(rot)=       0.01218379 Eh      7.65 kcal/mol|
|  sn= 6 | S(rot)=       0.01201164 Eh      7.54 kcal/mol|
|  sn= 7 | S(rot)=       0.01186610 Eh      7.45 kcal/mol|
|  sn= 8 | S(rot)=       0.01174002 Eh      7.37 kcal/mol|
|  sn= 9 | S(rot)=       0.01162881 Eh      7.30 kcal/mol|
|  sn=10 | S(rot)=       0.01152933 Eh      7.23 kcal/mol|
|  sn=11 | S(rot)=       0.01143934 Eh      7.18 kcal/mol|
|  sn=12 | S(rot)=       0.01135719 Eh      7.13 kcal/mol|
 --------------------------------------------------------


-------------------
GIBBS FREE ENERGY
-------------------

The Gibbs free energy is G = H - T*S

Total enthalpy                    ...   -383.29618696 Eh 
Total entropy correction          ...     -0.04504184 Eh    -28.26 kcal/mol
-----------------------------------------------------------------------
Final Gibbs free energy         ...   -383.34122881 Eh

For completeness - the Gibbs free energy minus the electronic energy
G-E(el)                           ...      0.15013879 Eh     94.21 kcal/mol


Timings for individual modules:

Sum of individual times         ...     1664.801 sec (=  27.747 min)
GTO integral calculation        ...        3.059 sec (=   0.051 min)   0.2 %
SCF iterations                  ...      461.996 sec (=   7.700 min)  27.8 %
SCF Gradient evaluation         ...      100.027 sec (=   1.667 min)   6.0 %
Geometry relaxation             ...        0.160 sec (=   0.003 min)   0.0 %
Analytical frequency calculation...     1099.559 sec (=  18.326 min)  66.0 %
                             ****ORCA TERMINATED NORMALLY****
TOTAL RUN TIME: 0 days 0 hours 27 minutes 46 seconds 389 msec
