
                                 *****************
                                 * O   R   C   A *
                                 *****************

                                            #,                                       
                                            ###                                      
                                            ####                                     
                                            #####                                    
                                            ######                                   
                                           ########,                                 
                                     ,,################,,,,,                         
                               ,,#################################,,                 
                          ,,##########################################,,             
                       ,#########################################, ''#####,          
                    ,#############################################,,   '####,        
                  ,##################################################,,,,####,       
                ,###########''''           ''''###############################       
              ,#####''   ,,,,##########,,,,          '''####'''          '####       
            ,##' ,,,,###########################,,,                        '##       
           ' ,,###''''                  '''############,,,                           
         ,,##''                                '''############,,,,        ,,,,,,###''
      ,#''                                            '''#######################'''  
     '                                                          ''''####''''         
             ,#######,   #######,   ,#######,      ##                                
            ,#'     '#,  ##    ##  ,#'     '#,    #''#        ######   ,####,        
            ##       ##  ##   ,#'  ##            #'  '#       #        #'  '#        
            ##       ##  #######   ##           ,######,      #####,   #    #        
            '#,     ,#'  ##    ##  '#,     ,#' ,#      #,         ##   #,  ,#        
             '#######'   ##     ##  '#######'  #'      '#     #####' # '####'        



                  #######################################################
                  #                        -***-                        #
                  #          Department of theory and spectroscopy      #
                  #    Directorship and core code : Frank Neese         #
                  #        Max Planck Institute fuer Kohlenforschung    #
                  #                Kaiser Wilhelm Platz 1               #
                  #                 D-45470 Muelheim/Ruhr               #
                  #                      Germany                        #
                  #                                                     #
                  #                  All rights reserved                #
                  #                        -***-                        #
                  #######################################################


                         Program Version 5.0.4 -  RELEASE  -


 With contributions from (in alphabetic order):
   Daniel Aravena         : Magnetic Suceptibility
   Michael Atanasov       : Ab Initio Ligand Field Theory (pilot matlab implementation)
   Alexander A. Auer      : GIAO ZORA, VPT2 properties, NMR spectrum
   Ute Becker             : Parallelization
   Giovanni Bistoni       : ED, misc. LED, open-shell LED, HFLD
   Martin Brehm           : Molecular dynamics
   Dmytro Bykov           : SCF Hessian
   Vijay G. Chilkuri      : MRCI spin determinant printing, contributions to CSF-ICE
   Dipayan Datta          : RHF DLPNO-CCSD density
   Achintya Kumar Dutta   : EOM-CC, STEOM-CC
   Dmitry Ganyushin       : Spin-Orbit,Spin-Spin,Magnetic field MRCI
   Miquel Garcia          : C-PCM and meta-GGA Hessian, CC/C-PCM, Gaussian charge scheme
   Yang Guo               : DLPNO-NEVPT2, F12-NEVPT2, CIM, IAO-localization
   Andreas Hansen         : Spin unrestricted coupled pair/coupled cluster methods
   Benjamin Helmich-Paris : MC-RPA, TRAH-SCF, COSX integrals
   Lee Huntington         : MR-EOM, pCC
   Robert Izsak           : Overlap fitted RIJCOSX, COSX-SCS-MP3, EOM
   Marcus Kettner         : VPT2
   Christian Kollmar      : KDIIS, OOCD, Brueckner-CCSD(T), CCSD density, CASPT2, CASPT2-K
   Simone Kossmann        : Meta GGA functionals, TD-DFT gradient, OOMP2, MP2 Hessian
   Martin Krupicka        : Initial AUTO-CI
   Lucas Lang             : DCDCAS
   Marvin Lechner         : AUTO-CI (C++ implementation), FIC-MRCC
   Dagmar Lenk            : GEPOL surface, SMD
   Dimitrios Liakos       : Extrapolation schemes; Compound Job, initial MDCI parallelization
   Dimitrios Manganas     : Further ROCIS development; embedding schemes
   Dimitrios Pantazis     : SARC Basis sets
   Anastasios Papadopoulos: AUTO-CI, single reference methods and gradients
   Taras Petrenko         : DFT Hessian,TD-DFT gradient, ASA, ECA, R-Raman, ABS, FL, XAS/XES, NRVS
   Peter Pinski           : DLPNO-MP2, DLPNO-MP2 Gradient
   Christoph Reimann      : Effective Core Potentials
   Marius Retegan         : Local ZFS, SOC
   Christoph Riplinger    : Optimizer, TS searches, QM/MM, DLPNO-CCSD(T), (RO)-DLPNO pert. Triples
   Tobias Risthaus        : Range-separated hybrids, TD-DFT gradient, RPA, STAB
   Michael Roemelt        : Original ROCIS implementation
   Masaaki Saitow         : Open-shell DLPNO-CCSD energy and density
   Barbara Sandhoefer     : DKH picture change effects
   Avijit Sen             : IP-ROCIS
   Kantharuban Sivalingam : CASSCF convergence, NEVPT2, FIC-MRCI
   Bernardo de Souza      : ESD, SOC TD-DFT
   Georgi Stoychev        : AutoAux, RI-MP2 NMR, DLPNO-MP2 response
   Willem Van den Heuvel  : Paramagnetic NMR
   Boris Wezisla          : Elementary symmetry handling
   Frank Wennmohs         : Technical directorship


 We gratefully acknowledge several colleagues who have allowed us to
 interface, adapt or use parts of their codes:
   Stefan Grimme, W. Hujo, H. Kruse, P. Pracht,  : VdW corrections, initial TS optimization,
                  C. Bannwarth, S. Ehlert          DFT functionals, gCP, sTDA/sTD-DF
   Ed Valeev, F. Pavosevic, A. Kumar             : LibInt (2-el integral package), F12 methods
   Garnet Chan, S. Sharma, J. Yang, R. Olivares  : DMRG
   Ulf Ekstrom                                   : XCFun DFT Library
   Mihaly Kallay                                 : mrcc  (arbitrary order and MRCC methods)
   Jiri Pittner, Ondrej Demel                    : Mk-CCSD
   Frank Weinhold                                : gennbo (NPA and NBO analysis)
   Christopher J. Cramer and Donald G. Truhlar   : smd solvation model
   Lars Goerigk                                  : TD-DFT with DH, B97 family of functionals
   V. Asgeirsson, H. Jonsson                     : NEB implementation
   FAccTs GmbH                                   : IRC, NEB, NEB-TS, DLPNO-Multilevel, CI-OPT
                                                   MM, QMMM, 2- and 3-layer-ONIOM, Crystal-QMMM,
                                                   LR-CPCM, SF, NACMEs, symmetry and pop. for TD-DFT,
                                                   nearIR, NL-DFT gradient (VV10), updates on ESD,
                                                   ML-optimized integration grids
   S Lehtola, MJT Oliveira, MAL Marques          : LibXC Library
   Liviu Ungur et al                             : ANISO software


 Your calculation uses the libint2 library for the computation of 2-el integrals
 For citations please refer to: http://libint.valeyev.net

 Your ORCA version has been built with support for libXC version: 5.1.0
 For citations please refer to: https://tddft.org/programs/libxc/

 This ORCA versions uses:
   CBLAS   interface :  Fast vector & matrix operations
   LAPACKE interface :  Fast linear algebra routines
   SCALAPACK package :  Parallel linear algebra routines
   Shared memory     :  Shared parallel matrices
   BLAS/LAPACK       :  OpenBLAS 0.3.15  USE64BITINT DYNAMIC_ARCH NO_AFFINITY SkylakeX SINGLE_THREADED
        Core in use  :  SkylakeX
   Copyright (c) 2011-2014, The OpenBLAS Project




***************************************
The coordinates will be read from file: 3_deprot.xyz
***************************************


Your calculation utilizes the atom-pairwise dispersion correction
based on tight binding partial charges (D4)
Cite in your paper:
E.Caldeweyher, C.Bannwarth, S.Grimme, J.Chem.Phys., (2017), 147, 034112.
E.Caldeweyher, S.Ehlert, A.Hansen, H.Neugebauer, S.Grimme, J.Chem.Phys., (2018), in progress.
   

XCFun DFT library Copyright 2009-2010 Ulf Ekstrom and contributors.
See http://admol.org/xcfun for more information.
This is free software; see the source code for copying conditions.
There is ABSOLUTELY NO WARRANTY; not even for MERCHANTABILITY or FITNESS FOR A PARTICULAR PURPOSE.
For details see the documentation.
Scientific users of this library should cite U. Ekstrom, L. Visscher, R. Bast, A. J. Thorvaldsen and K. Ruud;
J.Chem.Theor.Comp. 2010, DOI: 10.1021/ct100117s
XCFun Version 0.99 

================================================================================

----- Orbital basis set information -----
Your calculation utilizes the basis: def2-TZVP
   F. Weigend and R. Ahlrichs, Phys. Chem. Chem. Phys. 7, 3297 (2005).

----- AuxJ basis set information -----
Your calculation utilizes the auxiliary basis: def2/J
   F. Weigend, Phys. Chem. Chem. Phys. 8, 1057 (2006).

================================================================================
                                        WARNINGS
                       Please study these warnings very carefully!
================================================================================


WARNING: Geometry Optimization
  ===> : Switching off AutoStart
         For restart on a previous wavefunction, please use MOREAD

INFO   : the flag for use of the SHARK integral package has been found!

================================================================================
                                       INPUT FILE
================================================================================
NAME = 3_deprot.inp
|  1> # ORCA 5.0.4 - /users/bwb16179/postgrad/2024_06/pKa_Reviewer_Comments/Aq_Z=0/3_deprot.inp # write input file
|  2> # Basic Mode
|  3> #
|  4> ! Opt Freq wB97X Def2-TZVP D4 SlowConv TightSCF Defgrid2 Def2/J RIJCOSX CPCM(Water)
|  5> 
|  6> %PAL NPROCS 4 END
|  7> 
|  8> %maxcore 4500
|  9> 
| 10> %geom
| 11> Maxiter 150
| 12> END
| 13> 
| 14> * xyzfile 0 1 3_deprot.xyz
| 15> 
| 16>                          ****END OF INPUT****
================================================================================

                       *****************************
                       * Geometry Optimization Run *
                       *****************************

Geometry optimization settings:
Update method            Update   .... BFGS
Choice of coordinates    CoordSys .... Z-matrix Internals
Initial Hessian          InHess   .... Almoef's Model

Convergence Tolerances:
Energy Change            TolE     ....  5.0000e-06 Eh
Max. Gradient            TolMAXG  ....  3.0000e-04 Eh/bohr
RMS Gradient             TolRMSG  ....  1.0000e-04 Eh/bohr
Max. Displacement        TolMAXD  ....  4.0000e-03 bohr
RMS Displacement         TolRMSD  ....  2.0000e-03 bohr
Strict Convergence                ....  False
------------------------------------------------------------------------------
                        ORCA OPTIMIZATION COORDINATE SETUP
------------------------------------------------------------------------------

The optimization will be done in new redundant internal coordinates
Making redundant internal coordinates   ...  (new redundants) done
Evaluating the initial hessian          ...  (Almloef) done
Evaluating the coordinates              ...  done
Calculating the B-matrix                .... done
Calculating the G-matrix                .... done
Diagonalizing the G-matrix              .... done
The first mode is                       ....   29
The number of degrees of freedom        ....   39

    -----------------------------------------------------------------
                    Redundant Internal Coordinates


    -----------------------------------------------------------------
         Definition                    Initial Value    Approx d2E/dq
    -----------------------------------------------------------------
      1. B(C   2,N   0)                  1.3818         0.576670   
      2. B(C   3,C   2)                  1.3571         0.705131   
      3. B(C   3,N   1)                  1.3818         0.576670   
      4. B(C   4,N   1)                  1.3607         0.623160   
      5. B(C   4,N   0)                  1.3607         0.623162   
      6. B(Cl  5,C   2)                  1.7025         0.444738   
      7. B(Cl  6,C   3)                  1.7025         0.444736   
      8. B(C   7,N   0)                  1.4519         0.445842   
      9. B(C   8,N   1)                  1.4519         0.445843   
     10. B(H   9,C   7)                  1.0959         0.352350   
     11. B(H  10,C   8)                  1.0959         0.352350   
     12. B(H  11,C   7)                  1.0995         0.347713   
     13. B(H  12,C   8)                  1.0995         0.347713   
     14. B(H  13,C   8)                  1.0995         0.347713   
     15. B(H  14,C   7)                  1.0995         0.347714   
     16. A(C   4,N   0,C   7)          124.1808         0.404364   
     17. A(C   2,N   0,C   4)          111.8751         0.423275   
     18. A(C   2,N   0,C   7)          123.9441         0.398877   
     19. A(C   4,N   1,C   8)          124.1809         0.404364   
     20. A(C   3,N   1,C   4)          111.8750         0.423275   
     21. A(C   3,N   1,C   8)          123.9442         0.398878   
     22. A(C   3,C   2,Cl  5)          129.5456         0.437537   
     23. A(N   0,C   2,Cl  5)          124.0665         0.419287   
     24. A(N   0,C   2,C   3)          106.3879         0.435609   
     25. A(C   2,C   3,Cl  6)          129.5456         0.437536   
     26. A(N   1,C   3,C   2)          106.3879         0.435609   
     27. A(N   1,C   3,Cl  6)          124.0665         0.419286   
     28. A(N   0,C   4,N   1)          103.4742         0.429193   
     29. A(N   0,C   7,H   9)          107.5296         0.330720   
     30. A(H  11,C   7,H  14)          109.1024         0.287667   
     31. A(H   9,C   7,H  14)          109.5355         0.288263   
     32. A(N   0,C   7,H  14)          110.5576         0.329997   
     33. A(H   9,C   7,H  11)          109.5355         0.288263   
     34. A(N   0,C   7,H  11)          110.5576         0.329997   
     35. A(N   1,C   8,H  10)          107.5295         0.330721   
     36. A(H  12,C   8,H  13)          109.1024         0.287666   
     37. A(H  10,C   8,H  13)          109.5355         0.288263   
     38. A(N   1,C   8,H  13)          110.5576         0.329997   
     39. A(H  10,C   8,H  12)          109.5355         0.288263   
     40. A(N   1,C   8,H  12)          110.5575         0.329997   
     41. D(Cl  5,C   2,N   0,C   4)   -180.0000         0.026653   
     42. D(Cl  5,C   2,N   0,C   7)      0.0000         0.026653   
     43. D(C   3,C   2,N   0,C   7)    180.0000         0.026653   
     44. D(C   3,C   2,N   0,C   4)      0.0000         0.026653   
     45. D(Cl  6,C   3,N   1,C   4)    180.0000         0.026653   
     46. D(C   2,C   3,N   1,C   8)    180.0000         0.026653   
     47. D(Cl  6,C   3,C   2,Cl  5)      0.0000         0.035062   
     48. D(N   1,C   3,C   2,Cl  5)    180.0000         0.035062   
     49. D(Cl  6,C   3,C   2,N   0)    180.0000         0.035062   
     50. D(C   2,C   3,N   1,C   4)     -0.0000         0.026653   
     51. D(N   1,C   3,C   2,N   0)      0.0000         0.035062   
     52. D(Cl  6,C   3,N   1,C   8)      0.0000         0.026653   
     53. D(N   0,C   4,N   1,C   3)      0.0001         0.028512   
     54. D(N   1,C   4,N   0,C   7)    180.0000         0.028512   
     55. D(N   1,C   4,N   0,C   2)     -0.0001         0.028512   
     56. D(N   0,C   4,N   1,C   8)   -180.0000         0.028512   
     57. D(H  14,C   7,N   0,C   4)    119.5368         0.016953   
     58. D(H  14,C   7,N   0,C   2)    -60.4631         0.016953   
     59. D(H  11,C   7,N   0,C   4)   -119.5370         0.016953   
     60. D(H  11,C   7,N   0,C   2)     60.4630         0.016953   
     61. D(H   9,C   7,N   0,C   4)     -0.0001         0.016953   
     62. D(H   9,C   7,N   0,C   2)    179.9999         0.016953   
     63. D(H  13,C   8,N   1,C   4)   -119.5369         0.016953   
     64. D(H  13,C   8,N   1,C   3)     60.4630         0.016953   
     65. D(H  12,C   8,N   1,C   4)    119.5369         0.016953   
     66. D(H  12,C   8,N   1,C   3)    -60.4632         0.016953   
     67. D(H  10,C   8,N   1,C   4)     -0.0000         0.016953   
     68. D(H  10,C   8,N   1,C   3)    179.9999         0.016953   
    -----------------------------------------------------------------

Number of atoms                         .... 15
Number of degrees of freedom            .... 68

         *************************************************************
         *                GEOMETRY OPTIMIZATION CYCLE   1            *
         *************************************************************
---------------------------------
CARTESIAN COORDINATES (ANGSTROEM)
---------------------------------
  N     -0.000000    1.068401    1.112444
  N      0.000000   -1.068402    1.112444
  C     -0.000000    0.678537   -0.213237
  C      0.000000   -0.678537   -0.213237
  C      0.000001   -0.000000    1.955094
  Cl    -0.000000    1.762528   -1.526093
  Cl    -0.000000   -1.762528   -1.526094
  C     -0.000000    2.452636    1.550386
  C      0.000000   -2.452636    1.550386
  H     -0.000001    2.452126    2.646308
  H      0.000001   -2.452124    2.646308
  H     -0.895713    2.973843    1.182956
  H     -0.895714   -2.973842    1.182958
  H      0.895713   -2.973843    1.182956
  H      0.895713    2.973842    1.182958

----------------------------
CARTESIAN COORDINATES (A.U.)
----------------------------
  NO LB      ZA    FRAG     MASS         X           Y           Z
   0 N     7.0000    0    14.007   -0.000000    2.018985    2.102214
   1 N     7.0000    0    14.007    0.000000   -2.018987    2.102214
   2 C     6.0000    0    12.011   -0.000000    1.282249   -0.402960
   3 C     6.0000    0    12.011    0.000000   -1.282249   -0.402960
   4 C     6.0000    0    12.011    0.000002   -0.000000    3.694592
   5 Cl   17.0000    0    35.453   -0.000000    3.330695   -2.883898
   6 Cl   17.0000    0    35.453   -0.000000   -3.330695   -2.883900
   7 C     6.0000    0    12.011   -0.000000    4.634810    2.929805
   8 C     6.0000    0    12.011    0.000000   -4.634810    2.929805
   9 H     1.0000    0     1.008   -0.000002    4.633847    5.000797
  10 H     1.0000    0     1.008    0.000002   -4.633843    5.000797
  11 H     1.0000    0     1.008   -1.692652    5.619749    2.235463
  12 H     1.0000    0     1.008   -1.692654   -5.619747    2.235467
  13 H     1.0000    0     1.008    1.692652   -5.619749    2.235463
  14 H     1.0000    0     1.008    1.692652    5.619747    2.235467

--------------------------------
INTERNAL COORDINATES (ANGSTROEM)
--------------------------------
 N      0   0   0     0.000000000000     0.00000000     0.00000000
 N      1   0   0     2.136803000000     0.00000000     0.00000000
 C      1   2   0     1.381819109818    73.61213741     0.00000000
 C      3   1   2     1.357074000000   106.38786259     0.00000000
 C      1   2   3     1.360712945225    38.26291500   180.00006800
 Cl     3   1   2     1.702535569325   124.06653745   180.00000085
 Cl     4   3   1     1.702536340443   129.54557853   180.00000000
 C      1   2   3     1.451860782096   162.44375569   180.00000000
 C      2   1   3     1.451859828675   162.44374379   180.00000000
 H      8   1   2     1.095922118668   107.52958105     0.00000000
 H      9   2   1     1.095922119600   107.52948839     0.00000000
 H      8   1   2     1.099528680898   110.55756405   240.46302170
 H      9   2   1     1.099528353166   110.55754510   119.53684782
 H      9   2   1     1.099528680898   110.55755818   240.46301781
 H      8   1   2     1.099527538531   110.55756689   119.53687137

---------------------------
INTERNAL COORDINATES (A.U.)
---------------------------
 N      0   0   0     0.000000000000     0.00000000     0.00000000
 N      1   0   0     4.037972472141     0.00000000     0.00000000
 C      1   2   0     2.611259684174    73.61213741     0.00000000
 C      3   1   2     2.564498203465   106.38786259     0.00000000
 C      1   2   3     2.571374813356    38.26291500   180.00006800
 Cl     3   1   2     3.217325959284   124.06653745   180.00000085
 Cl     4   3   1     3.217327416486   129.54557853   180.00000000
 C      1   2   3     2.743619262743   162.44375569   180.00000000
 C      2   1   3     2.743617461037   162.44374379   180.00000000
 H      8   1   2     2.070992668389   107.52958105     0.00000000
 H      9   2   1     2.070992670151   107.52948839     0.00000000
 H      8   1   2     2.077808083290   110.55756405   240.46302170
 H      9   2   1     2.077807463965   110.55754510   119.53684782
 H      9   2   1     2.077808083290   110.55755818   240.46301781
 H      8   1   2     2.077805924529   110.55756689   119.53687137

---------------------
BASIS SET INFORMATION
---------------------
There are 4 groups of distinct atoms

 Group   1 Type N   : 11s6p2d1f contracted to 5s3p2d1f pattern {62111/411/11/1}
 Group   2 Type C   : 11s6p2d1f contracted to 5s3p2d1f pattern {62111/411/11/1}
 Group   3 Type Cl  : 14s9p3d1f contracted to 5s5p2d1f pattern {73211/51111/21/1}
 Group   4 Type H   : 5s1p contracted to 3s1p pattern {311/1}

Atom   0N    basis set group =>   1
Atom   1N    basis set group =>   1
Atom   2C    basis set group =>   2
Atom   3C    basis set group =>   2
Atom   4C    basis set group =>   2
Atom   5Cl   basis set group =>   3
Atom   6Cl   basis set group =>   3
Atom   7C    basis set group =>   2
Atom   8C    basis set group =>   2
Atom   9H    basis set group =>   4
Atom  10H    basis set group =>   4
Atom  11H    basis set group =>   4
Atom  12H    basis set group =>   4
Atom  13H    basis set group =>   4
Atom  14H    basis set group =>   4
---------------------------------
AUXILIARY/J BASIS SET INFORMATION
---------------------------------
There are 4 groups of distinct atoms

 Group   1 Type N   : 12s5p4d2f1g contracted to 6s4p3d1f1g pattern {711111/2111/211/2/1}
 Group   2 Type C   : 12s5p4d2f1g contracted to 6s4p3d1f1g pattern {711111/2111/211/2/1}
 Group   3 Type Cl  : 14s5p5d2f1g contracted to 8s4p3d1f1g pattern {71111111/2111/311/2/1}
 Group   4 Type H   : 5s2p1d contracted to 3s1p1d pattern {311/2/1}

Atom   0N    basis set group =>   1
Atom   1N    basis set group =>   1
Atom   2C    basis set group =>   2
Atom   3C    basis set group =>   2
Atom   4C    basis set group =>   2
Atom   5Cl   basis set group =>   3
Atom   6Cl   basis set group =>   3
Atom   7C    basis set group =>   2
Atom   8C    basis set group =>   2
Atom   9H    basis set group =>   4
Atom  10H    basis set group =>   4
Atom  11H    basis set group =>   4
Atom  12H    basis set group =>   4
Atom  13H    basis set group =>   4
Atom  14H    basis set group =>   4


           ************************************************************
           *        Program running with 4 parallel MPI-processes     *
           *              working on a common directory               *
           ************************************************************
------------------------------------------------------------------------------
                           ORCA GTO INTEGRAL CALCULATION
                           -- RI-GTO INTEGRALS CHOSEN --
------------------------------------------------------------------------------
------------------------------------------------------------------------------
                   ___                                                        
                  /   \      - P O W E R E D   B Y -                         
                 /     \                                                     
                 |  |  |   _    _      __       _____    __    __             
                 |  |  |  | |  | |    /  \     |  _  \  |  |  /  |          
                  \  \/   | |  | |   /    \    | | | |  |  | /  /          
                 / \  \   | |__| |  /  /\  \   | |_| |  |  |/  /          
                |  |  |   |  __  | /  /__\  \  |    /   |      \           
                |  |  |   | |  | | |   __   |  |    \   |  |\   \          
                \     /   | |  | | |  |  |  |  | |\  \  |  | \   \       
                 \___/    |_|  |_| |__|  |__|  |_| \__\ |__|  \__/        
                                                                              
                      - O R C A' S   B I G   F R I E N D -                    
                                      &                                       
                       - I N T E G R A L  F E E D E R -                       
                                                                              
 v1 FN, 2020, v2 2021                                                         
------------------------------------------------------------------------------


Reading SHARK input file 3_deprot.SHARKINP.tmp ... ok
----------------------
SHARK INTEGRAL PACKAGE
----------------------

Number of atoms                             ...     15
Number of basis functions                   ...    327
Number of shells                            ...    127
Maximum angular momentum                    ...      3
Integral batch strategy                     ... SHARK/LIBINT Hybrid
RI-J (if used) integral strategy            ... SPLIT-RIJ (Revised 2003 algorithm where possible)
Printlevel                                  ...      1
Contraction scheme used                     ... SEGMENTED contraction
Coulomb Range Separation                    ... NOT USED
Exchange Range Separation                   ... Long Range
   Mu parameter                             ...  0.300000
   Scaling (regular/separated)              ...  0.157706  0.842294
Finite Nucleus Model                        ... NOT USED
Auxiliary Coulomb fitting basis             ... AVAILABLE
   # of basis functions in Aux-J            ...    511
   # of shells in Aux-J                     ...    169
   Maximum angular momentum in Aux-J        ...      4
Auxiliary J/K fitting basis                 ... NOT available
Auxiliary Correlation fitting basis         ... NOT available
Auxiliary 'external' fitting basis          ... NOT available
Integral threshold                          ...     2.500000e-11
Primitive cut-off                           ...     2.500000e-12
Primitive pair pre-selection threshold      ...     2.500000e-12

Calculating pre-screening integrals         ... done (  0.1 sec) Dimension = 127
Organizing shell pair data                  ... done (  0.1 sec)
Shell pair information
Total number of shell pairs                 ...      8128
Shell pairs after pre-screening             ...      7176
Total number of primitive shell pairs       ...     26809
Primitive shell pairs kept                  ...     17021
          la=0 lb=0:   1679 shell pairs
          la=1 lb=0:   2019 shell pairs
          la=1 lb=1:    641 shell pairs
          la=2 lb=0:   1030 shell pairs
          la=2 lb=1:    622 shell pairs
          la=2 lb=2:    168 shell pairs
          la=3 lb=0:    511 shell pairs
          la=3 lb=1:    305 shell pairs
          la=3 lb=2:    156 shell pairs
          la=3 lb=3:     45 shell pairs

Calculating one electron integrals          ... done (  0.0 sec)
Calculating RI/J V-Matrix + Cholesky decomp.... done (  0.0 sec)
Calculating Nuclear repulsion               ... done (  0.0 sec) ENN=    605.812471974589 Eh

SHARK setup successfully completed in   0.5 seconds

Maximum memory used throughout the entire GTOINT-calculation: 22.1 MB


           ************************************************************
           *        Program running with 4 parallel MPI-processes     *
           *              working on a common directory               *
           ************************************************************
-------------------------------------------------------------------------------
                                 ORCA SCF
-------------------------------------------------------------------------------

------------
SCF SETTINGS
------------
Hamiltonian:
 Density Functional     Method          .... DFT(GTOs)
 Exchange Functional    Exchange        .... WB97X
 Correlation Functional Correlation     .... WB97X
 Gradients option       PostSCFGGA      .... off
 Hybrid DFT is turned on
   Fraction HF Exchange ScalHFX         ....  0.157706
   Scaling of DF-GGA-X  ScalDFX         ....  0.000000
   Scaling of DF-GGA-C  ScalDFC         ....  1.000000
   Scaling of DF-LDA-C  ScalLDAC        ....  1.000000
   Perturbative correction              ....  0.000000
   Density functional embedding theory  .... OFF
 Long-range corrected/Screened/Range-Separated Hybrid DFT is turned on
   Amount of maximum screened exact exchange              ....  0.842294
   Range separation parameter mu (erf(mu*r12)/r12)        ....  0.300000
 RI-approximation to the Coulomb term is turned on
   Number of AuxJ basis functions       .... 511
   RIJ-COSX (HFX calculated with COS-X)).... on


General Settings:
 Integral files         IntName         .... 3_deprot
 Hartree-Fock type      HFTyp           .... RHF
 Total Charge           Charge          ....    0
 Multiplicity           Mult            ....    1
 Number of Electrons    NEL             ....   84
 Basis Dimension        Dim             ....  327
 Nuclear Repulsion      ENuc            ....    605.8124719746 Eh

Convergence Acceleration:
 DIIS                   CNVDIIS         .... on
   Start iteration      DIISMaxIt       ....     0
   Startup error        DIISStart       ....  0.200000
   # of expansion vecs  DIISMaxEq       ....     5
   Bias factor          DIISBfac        ....   1.050
   Max. coefficient     DIISMaxC        ....  10.000
 Trust-Rad. Augm. Hess. CNVTRAH         .... auto
   Auto Start mean grad. ratio tolernc. ....  1.125000
   Auto Start start iteration           ....    20
   Auto Start num. interpolation iter.  ....    10
   Max. Number of Micro iterations      ....    16
   Max. Number of Macro iterations      .... Maxiter - #DIIS iter
   Number of Davidson start vectors     ....     2
   Converg. threshold I  (grad. norm)   ....   1.000e-05
   Converg. threshold II (energy diff.) ....   1.000e-08
   Grad. Scal. Fac. for Micro threshold ....   0.100
   Minimum threshold for Micro iter.    ....   0.010
   NR start threshold (gradient norm)   ....   0.001
   Initial trust radius                 ....   0.400
   Minimum AH scaling param. (alpha)    ....   1.000
   Maximum AH scaling param. (alpha)    .... 1000.000
   Orbital update algorithm             .... Taylor
   White noise on init. David. guess    .... on
   Maximum white noise                  ....   0.010
   Quad. conv. algorithm                .... NR
 SOSCF                  CNVSOSCF        .... on
   Start iteration      SOSCFMaxIt      ....   150
   Startup grad/error   SOSCFStart      ....  0.001000
 Level Shifting         CNVShift        .... on
   Level shift para.    LevelShift      ....    0.2500
   Turn off err/grad.   ShiftErr        ....    0.0000
 Zerner damping         CNVZerner       .... off
 Static damping         CNVDamp         .... on
   Fraction old density DampFac         ....    0.8500
   Max. Damping (<1)    DampMax         ....    0.9800
   Min. Damping (>=0)   DampMin         ....    0.0000
   Turn off err/grad.   DampErr         ....    0.0300
 Fernandez-Rico         CNVRico         .... off

SCF Procedure:
 Maximum # iterations   MaxIter         ....   125
 SCF integral mode      SCFMode         .... Direct
   Integral package                     .... SHARK and LIBINT hybrid scheme
 Reset frequency        DirectResetFreq ....    20
 Integral Threshold     Thresh          ....  2.500e-11 Eh
 Primitive CutOff       TCut            ....  2.500e-12 Eh

Convergence Tolerance:
 Convergence Check Mode ConvCheckMode   .... Total+1el-Energy
 Convergence forced     ConvForced      .... 0
 Energy Change          TolE            ....  1.000e-08 Eh
 1-El. energy change                    ....  1.000e-05 Eh
 Orbital Gradient       TolG            ....  1.000e-05
 Orbital Rotation angle TolX            ....  1.000e-05
 DIIS Error             TolErr          ....  5.000e-07


Diagonalization of the overlap matrix:
Smallest eigenvalue                        ... 7.148e-05
Time for diagonalization                   ...    0.018 sec
Threshold for overlap eigenvalues          ... 1.000e-08
Number of eigenvalues below threshold      ... 0
Time for construction of square roots      ...    0.009 sec
Total time needed                          ...    0.028 sec

Time for model grid setup =    0.110 sec

------------------------------
INITIAL GUESS: MODEL POTENTIAL
------------------------------
Loading Hartree-Fock densities                     ... done
Calculating cut-offs                               ... done
Initializing the effective Hamiltonian             ... done
Setting up the integral package (SHARK)            ... done
Starting the Coulomb interaction                   ... done (   0.2 sec)
Reading the grid                                   ... done
Mapping shells                                     ... done
Starting the XC term evaluation                    ... done (   0.2 sec)
  promolecular density results
     # of electrons  =     83.995757085
     EX              =    -95.244745260
     EC              =     -3.022309636
     EX+EC           =    -98.267054896
Transforming the Hamiltonian                       ... done (   0.0 sec)
Diagonalizing the Hamiltonian                      ... done (   0.0 sec)
Back transforming the eigenvectors                 ... done (   0.0 sec)
Now organizing SCF variables                       ... done
                      ------------------
                      INITIAL GUESS DONE (   0.5 sec)
                      ------------------
-------------------
DFT GRID GENERATION
-------------------

General Integration Accuracy     IntAcc      ... 4.388
Radial Grid Type                 RadialGrid  ... OptM3 with GC (2021)
Angular Grid (max. ang.)         AngularGrid ... 4 (Lebedev-302)
Angular grid pruning method      GridPruning ... 4 (adaptive)
Weight generation scheme         WeightScheme... Becke
Basis function cutoff            BFCut       ... 1.0000e-11
Integration weight cutoff        WCut        ... 1.0000e-14
Angular grids for H and He will be reduced by one unit
Partially contracted basis set               ... off
Rotationally invariant grid construction     ... off

Total number of grid points                  ...    76127
Total number of batches                      ...     1196
Average number of points per batch           ...       63
Average number of grid points per atom       ...     5075
Time for grid setup =    0.532 sec

--------------------
COSX GRID GENERATION
--------------------

GRIDX 1
-------
General Integration Accuracy     IntAcc      ... 3.816
Radial Grid Type                 RadialGrid  ... OptM3 with GC (2021)
Angular Grid (max. ang.)         AngularGrid ... 1 (Lebedev-50)
Angular grid pruning method      GridPruning ... 4 (adaptive)
Weight generation scheme         WeightScheme... Becke
Basis function cutoff            BFCut       ... 1.0000e-11
Integration weight cutoff        WCut        ... 1.0000e-14
Angular grids for H and He will be reduced by one unit
Partially contracted basis set               ... on
Rotationally invariant grid construction     ... off

Total number of grid points                  ...     9535
Total number of batches                      ...      158
Average number of points per batch           ...       60
Average number of grid points per atom       ...      636
UseSFitting                                  ... on

GRIDX 2
-------
General Integration Accuracy     IntAcc      ... 4.020
Radial Grid Type                 RadialGrid  ... OptM3 with GC (2021)
Angular Grid (max. ang.)         AngularGrid ... 2 (Lebedev-110)
Angular grid pruning method      GridPruning ... 4 (adaptive)
Weight generation scheme         WeightScheme... Becke
Basis function cutoff            BFCut       ... 1.0000e-11
Integration weight cutoff        WCut        ... 1.0000e-14
Angular grids for H and He will be reduced by one unit
Partially contracted basis set               ... on
Rotationally invariant grid construction     ... off

Total number of grid points                  ...    21097
Total number of batches                      ...      337
Average number of points per batch           ...       62
Average number of grid points per atom       ...     1406
UseSFitting                                  ... on

GRIDX 3
-------
General Integration Accuracy     IntAcc      ... 4.338
Radial Grid Type                 RadialGrid  ... OptM3 with GC (2021)
Angular Grid (max. ang.)         AngularGrid ... 3 (Lebedev-194)
Angular grid pruning method      GridPruning ... 4 (adaptive)
Weight generation scheme         WeightScheme... Becke
Basis function cutoff            BFCut       ... 1.0000e-11
Integration weight cutoff        WCut        ... 1.0000e-14
Angular grids for H and He will be reduced by one unit
Partially contracted basis set               ... on
Rotationally invariant grid construction     ... off

Total number of grid points                  ...    47599
Total number of batches                      ...      750
Average number of points per batch           ...       63
Average number of grid points per atom       ...     3173
UseSFitting                                  ... on

Time for X-Grid setup             =    0.659 sec


--------------------
CPCM SOLVATION MODEL
--------------------
CPCM parameters:
  Epsilon                                         ...      80.4000
  Refrac                                          ...       1.3300
  Rsolv                                           ...       1.3000
  Surface type                                    ... GAUSSIAN VDW
  Epsilon function type                           ...         CPCM
Radii:
 Radius for N  used is    3.5149 Bohr (=   1.8600 Ang.)
 Radius for C  used is    3.8550 Bohr (=   2.0400 Ang.)
 Radius for Cl used is    3.9684 Bohr (=   2.1000 Ang.)
 Radius for H  used is    2.4944 Bohr (=   1.3200 Ang.)
Calculating surface                               ...        done! (  0.0s)
GEPOL surface points                              ...          863
GEPOL Volume                                      ...    1188.0375
GEPOL Surface-area                                ...     666.8413
Calculating surface distance matrix               ...        done! (  0.0s)
Performing Cholesky decomposition & store         ...        done! (  0.0s)
Overall time for CPCM initialization              ...                 0.0s
--------------
SCF ITERATIONS
--------------
ITER       Energy         Delta-E        Max-DP      RMS-DP      [F,P]     Damp
               ***  Starting incremental Fock matrix formation  ***
  0  -1223.9228864439   0.000000000000 0.02755103  0.00029973  0.1330162 0.8500
  1  -1223.9496616161  -0.026775172180 0.03387676  0.00030873  0.1076600 0.8500
                               ***Turning on DIIS***
  2  -1223.9701022193  -0.020440603214 0.03052193  0.00026406  0.0831401 0.8500
  3  -1223.9852997732  -0.015197553923 0.02307436  0.00020510  0.0633792 0.8500
  4  -1223.9970727279  -0.011772954698 0.01780711  0.00016853  0.0504713 0.8500
  5  -1224.0063918851  -0.009319157172 0.01455730  0.00014442  0.0416452 0.8500
  6  -1224.0140022560  -0.007610370911 0.01234301  0.00012557  0.0349886 0.8500
  7  -1224.0203283733  -0.006326117248 0.07184363  0.00073604  0.0296374 0.0000
  8  -1224.0546406976  -0.034312324367 0.00200097  0.00004280  0.0011779 0.0000
                      *** Initiating the SOSCF procedure ***
                           *** Shutting down DIIS ***
                      *** Re-Reading the Fockian *** 
                      *** Removing any level shift *** 
ITER      Energy       Delta-E        Grad      Rot      Max-DP    RMS-DP
  9  -1224.05467113  -0.0000304341  0.000648  0.000648  0.001183  0.000023
               *** Restarting incremental Fock matrix formation ***
 10  -1224.05467555  -0.0000044200  0.000469  0.001104  0.000668  0.000017
 11  -1224.05467877  -0.0000032166  0.000148  0.000758  0.000635  0.000014
 12  -1224.05467966  -0.0000008900  0.000063  0.000110  0.000336  0.000004
 13  -1224.05467978  -0.0000001219  0.000011  0.000019  0.000139  0.000001
 14  -1224.05467979  -0.0000000122  0.000005  0.000022  0.000080  0.000000
                  ***Gradient check signals convergence***
              ***Rediagonalizing the Fockian in SOSCF/NRSCF***

               *****************************************************
               *                     SUCCESS                       *
               *           SCF CONVERGED AFTER  15 CYCLES          *
               *****************************************************

Old exchange energy                            =    -26.397481305 Eh
New exchange energy                            =    -26.397479724 Eh
Exchange energy change after final integration =      0.000001581 Eh
Total energy after final integration           =  -1224.054678218 Eh
Final COS-X integration done in                =    17.341 sec

----------------
TOTAL SCF ENERGY
----------------

Total Energy       :        -1224.05467822 Eh          -33308.22115 eV

Components:
Nuclear Repulsion  :          605.81247197 Eh           16484.99544 eV
Electronic Energy  :        -1829.86715019 Eh          -49793.21659 eV
One Electron Energy:        -2884.42811928 Eh          -78489.27944 eV
Two Electron Energy:         1054.56096908 Eh           28696.06285 eV
Max COSX asymmetry :            0.00000280 Eh               0.00008 eV
CPCM Dielectric    :           -0.01190526 Eh              -0.32396 eV

Virial components:
Potential Energy   :        -2445.29801116 Eh          -66539.94171 eV
Kinetic Energy     :         1221.24333295 Eh           33231.72056 eV
Virial Ratio       :            2.00230204


DFT components:
N(Alpha)           :       41.999990720555 electrons
N(Beta)            :       41.999990720555 electrons
N(Total)           :       83.999981441110 electrons
E(XC)              :      -73.287655735741 Eh       
DFET-embed. en.    :        0.000000000000 Eh       
CPCM Solvation Model Properties:
Surface-charge          :           -0.02432071
Charge-correction       :           -0.00027480 Eh              -0.00748 eV
Free-energy (cav+disp)  :  This term is not implemented in the current solvation scheme

---------------
SCF CONVERGENCE
---------------

  Last Energy change         ...   -6.8710e-09  Tolerance :   1.0000e-08
  Last MAX-Density change    ...    3.9968e-15  Tolerance :   1.0000e-07
  Last RMS-Density change    ...    2.8794e-17  Tolerance :   5.0000e-09
  Last Orbital Gradient      ...    1.6457e-06  Tolerance :   1.0000e-05
  Last Orbital Rotation      ...    8.4987e-06  Tolerance :   1.0000e-05

             **** THE GBW FILE WAS UPDATED (3_deprot.gbw) ****
             **** DENSITY 3_deprot.scfp WAS UPDATED ****
             **** ENERGY FILE WAS UPDATED (3_deprot.en.tmp) ****
             **** THE GBW FILE WAS UPDATED (3_deprot.gbw) ****
             **** DENSITY 3_deprot.scfp WAS UPDATED ****
----------------
ORBITAL ENERGIES
----------------

  NO   OCC          E(Eh)            E(eV) 
   0   2.0000    -101.525657     -2762.6536 
   1   2.0000    -101.525650     -2762.6534 
   2   2.0000     -14.462330      -393.5400 
   3   2.0000     -14.462301      -393.5392 
   4   2.0000     -10.354423      -281.7582 
   5   2.0000     -10.353711      -281.7388 
   6   2.0000     -10.292222      -280.0656 
   7   2.0000     -10.292217      -280.0655 
   8   2.0000     -10.286860      -279.9197 
   9   2.0000      -9.574766      -260.5426 
  10   2.0000      -9.574755      -260.5423 
  11   2.0000      -7.336270      -199.6300 
  12   2.0000      -7.336266      -199.6300 
  13   2.0000      -7.326235      -199.3570 
  14   2.0000      -7.326233      -199.3569 
  15   2.0000      -7.326167      -199.3551 
  16   2.0000      -7.326163      -199.3550 
  17   2.0000      -1.185295       -32.2535 
  18   2.0000      -1.075647       -29.2699 
  19   2.0000      -1.029103       -28.0033 
  20   2.0000      -0.995080       -27.0775 
  21   2.0000      -0.908815       -24.7301 
  22   2.0000      -0.843110       -22.9422 
  23   2.0000      -0.815587       -22.1932 
  24   2.0000      -0.716937       -19.5088 
  25   2.0000      -0.714060       -19.4306 
  26   2.0000      -0.640046       -17.4165 
  27   2.0000      -0.617070       -16.7913 
  28   2.0000      -0.583332       -15.8733 
  29   2.0000      -0.568127       -15.4595 
  30   2.0000      -0.562655       -15.3106 
  31   2.0000      -0.554753       -15.0956 
  32   2.0000      -0.517274       -14.0757 
  33   2.0000      -0.512234       -13.9386 
  34   2.0000      -0.496976       -13.5234 
  35   2.0000      -0.472609       -12.8603 
  36   2.0000      -0.463700       -12.6179 
  37   2.0000      -0.452605       -12.3160 
  38   2.0000      -0.447351       -12.1730 
  39   2.0000      -0.382572       -10.4103 
  40   2.0000      -0.345545        -9.4027 
  41   2.0000      -0.323372        -8.7994 
  42   0.0000       0.093732         2.5506 
  43   0.0000       0.102035         2.7765 
  44   0.0000       0.106054         2.8859 
  45   0.0000       0.134662         3.6644 
  46   0.0000       0.135261         3.6806 
  47   0.0000       0.149022         4.0551 
  48   0.0000       0.172785         4.7017 
  49   0.0000       0.195531         5.3207 
  50   0.0000       0.195755         5.3268 
  51   0.0000       0.207540         5.6474 
  52   0.0000       0.209413         5.6984 
  53   0.0000       0.217865         5.9284 
  54   0.0000       0.218675         5.9504 
  55   0.0000       0.247902         6.7457 
  56   0.0000       0.255840         6.9618 
  57   0.0000       0.264835         7.2065 
  58   0.0000       0.269677         7.3383 
  59   0.0000       0.292171         7.9504 
  60   0.0000       0.301783         8.2119 
  61   0.0000       0.316746         8.6191 
  62   0.0000       0.321120         8.7381 
  63   0.0000       0.321986         8.7617 
  64   0.0000       0.343026         9.3342 
  65   0.0000       0.348905         9.4942 
  66   0.0000       0.368698        10.0328 
  67   0.0000       0.382426        10.4063 
  68   0.0000       0.385952        10.5023 
  69   0.0000       0.407459        11.0875 
  70   0.0000       0.414660        11.2835 
  71   0.0000       0.415024        11.2934 
  72   0.0000       0.421667        11.4742 
  73   0.0000       0.426210        11.5978 
  74   0.0000       0.435408        11.8481 
  75   0.0000       0.461400        12.5553 
  76   0.0000       0.468766        12.7558 
  77   0.0000       0.480847        13.0845 
  78   0.0000       0.488629        13.2963 
  79   0.0000       0.498022        13.5519 
  80   0.0000       0.515191        14.0191 
  81   0.0000       0.516196        14.0464 
  82   0.0000       0.516559        14.0563 
  83   0.0000       0.519869        14.1464 
  84   0.0000       0.550796        14.9879 
  85   0.0000       0.556381        15.1399 
  86   0.0000       0.557559        15.1719 
  87   0.0000       0.574240        15.6259 
  88   0.0000       0.575933        15.6719 
  89   0.0000       0.578790        15.7497 
  90   0.0000       0.601683        16.3726 
  91   0.0000       0.621669        16.9165 
  92   0.0000       0.622926        16.9507 
  93   0.0000       0.629316        17.1246 
  94   0.0000       0.655057        17.8250 
  95   0.0000       0.664333        18.0774 
  96   0.0000       0.694226        18.8908 
  97   0.0000       0.711623        19.3643 
  98   0.0000       0.712888        19.3987 
  99   0.0000       0.729208        19.8427 
 100   0.0000       0.746310        20.3081 
 101   0.0000       0.750406        20.4196 
 102   0.0000       0.759346        20.6629 
 103   0.0000       0.768469        20.9111 
 104   0.0000       0.792938        21.5769 
 105   0.0000       0.810183        22.0462 
 106   0.0000       0.814065        22.1518 
 107   0.0000       0.817589        22.2477 
 108   0.0000       0.834428        22.7059 
 109   0.0000       0.836934        22.7741 
 110   0.0000       0.926294        25.2057 
 111   0.0000       0.949412        25.8348 
 112   0.0000       0.963316        26.2132 
 113   0.0000       0.989173        26.9168 
 114   0.0000       0.999331        27.1932 
 115   0.0000       1.020712        27.7750 
 116   0.0000       1.048430        28.5292 
 117   0.0000       1.056334        28.7443 
 118   0.0000       1.057773        28.7835 
 119   0.0000       1.095625        29.8135 
 120   0.0000       1.142161        31.0798 
 121   0.0000       1.157176        31.4884 
 122   0.0000       1.162210        31.6253 
 123   0.0000       1.174638        31.9635 
 124   0.0000       1.175567        31.9888 
 125   0.0000       1.186491        32.2861 
 126   0.0000       1.186719        32.2923 
 127   0.0000       1.233057        33.5532 
 128   0.0000       1.236349        33.6428 
 129   0.0000       1.285988        34.9935 
 130   0.0000       1.304550        35.4986 
 131   0.0000       1.317652        35.8551 
 132   0.0000       1.369821        37.2747 
 133   0.0000       1.408216        38.3195 
 134   0.0000       1.453085        39.5405 
 135   0.0000       1.464980        39.8641 
 136   0.0000       1.487222        40.4694 
 137   0.0000       1.544216        42.0203 
 138   0.0000       1.584565        43.1182 
 139   0.0000       1.588372        43.2218 
 140   0.0000       1.593859        43.3711 
 141   0.0000       1.601757        43.5860 
 142   0.0000       1.618250        44.0348 
 143   0.0000       1.629236        44.3338 
 144   0.0000       1.631887        44.4059 
 145   0.0000       1.640328        44.6356 
 146   0.0000       1.667249        45.3682 
 147   0.0000       1.689035        45.9610 
 148   0.0000       1.694869        46.1197 
 149   0.0000       1.696558        46.1657 
 150   0.0000       1.731381        47.1133 
 151   0.0000       1.740948        47.3736 
 152   0.0000       1.747108        47.5412 
 153   0.0000       1.748951        47.5914 
 154   0.0000       1.794047        48.8185 
 155   0.0000       1.798941        48.9517 
 156   0.0000       1.803620        49.0790 
 157   0.0000       1.848220        50.2926 
 158   0.0000       1.860940        50.6388 
 159   0.0000       1.872741        50.9599 
 160   0.0000       1.890954        51.4555 
 161   0.0000       1.894779        51.5596 
 162   0.0000       1.894929        51.5636 
 163   0.0000       1.898168        51.6518 
 164   0.0000       1.904904        51.8351 
 165   0.0000       1.944052        52.9003 
 166   0.0000       1.949324        53.0438 
 167   0.0000       1.967413        53.5360 
 168   0.0000       1.990477        54.1636 
 169   0.0000       2.003342        54.5137 
 170   0.0000       2.012643        54.7668 
 171   0.0000       2.033928        55.3460 
 172   0.0000       2.098987        57.1163 
 173   0.0000       2.102126        57.2018 
 174   0.0000       2.112756        57.4910 
 175   0.0000       2.127277        57.8862 
 176   0.0000       2.149262        58.4844 
 177   0.0000       2.162877        58.8549 
 178   0.0000       2.166614        58.9566 
 179   0.0000       2.175158        59.1891 
 180   0.0000       2.176060        59.2136 
 181   0.0000       2.195575        59.7446 
 182   0.0000       2.198474        59.8235 
 183   0.0000       2.215561        60.2885 
 184   0.0000       2.229507        60.6680 
 185   0.0000       2.236000        60.8447 
 186   0.0000       2.248706        61.1904 
 187   0.0000       2.318891        63.1002 
 188   0.0000       2.320776        63.1515 
 189   0.0000       2.320833        63.1531 
 190   0.0000       2.335611        63.5552 
 191   0.0000       2.339692        63.6662 
 192   0.0000       2.353070        64.0303 
 193   0.0000       2.369513        64.4777 
 194   0.0000       2.379982        64.7626 
 195   0.0000       2.381125        64.7937 
 196   0.0000       2.393492        65.1302 
 197   0.0000       2.408929        65.5503 
 198   0.0000       2.424626        65.9774 
 199   0.0000       2.425617        66.0044 
 200   0.0000       2.428561        66.0845 
 201   0.0000       2.474765        67.3418 
 202   0.0000       2.478813        67.4519 
 203   0.0000       2.504916        68.1622 
 204   0.0000       2.564896        69.7944 
 205   0.0000       2.571674        69.9788 
 206   0.0000       2.577638        70.1411 
 207   0.0000       2.592808        70.5539 
 208   0.0000       2.599158        70.7267 
 209   0.0000       2.629372        71.5488 
 210   0.0000       2.665882        72.5424 
 211   0.0000       2.674212        72.7690 
 212   0.0000       2.688527        73.1585 
 213   0.0000       2.703470        73.5652 
 214   0.0000       2.733552        74.3837 
 215   0.0000       2.759044        75.0774 
 216   0.0000       2.781537        75.6895 
 217   0.0000       2.803549        76.2885 
 218   0.0000       2.830136        77.0119 
 219   0.0000       2.899585        78.9017 
 220   0.0000       2.920887        79.4814 
 221   0.0000       2.922482        79.5248 
 222   0.0000       2.976327        80.9900 
 223   0.0000       3.034730        82.5792 
 224   0.0000       3.071390        83.5768 
 225   0.0000       3.077145        83.7334 
 226   0.0000       3.083919        83.9177 
 227   0.0000       3.143057        85.5269 
 228   0.0000       3.158630        85.9507 
 229   0.0000       3.161677        86.0336 
 230   0.0000       3.186726        86.7152 
 231   0.0000       3.193823        86.9083 
 232   0.0000       3.197135        86.9985 
 233   0.0000       3.211976        87.4023 
 234   0.0000       3.214282        87.4651 
 235   0.0000       3.220436        87.6325 
 236   0.0000       3.258953        88.6806 
 237   0.0000       3.275675        89.1356 
 238   0.0000       3.286574        89.4322 
 239   0.0000       3.319881        90.3386 
 240   0.0000       3.326102        90.5078 
 241   0.0000       3.337974        90.8309 
 242   0.0000       3.350927        91.1834 
 243   0.0000       3.372493        91.7702 
 244   0.0000       3.379422        91.9587 
 245   0.0000       3.395666        92.4008 
 246   0.0000       3.430032        93.3359 
 247   0.0000       3.431269        93.3696 
 248   0.0000       3.441954        93.6603 
 249   0.0000       3.482502        94.7637 
 250   0.0000       3.487716        94.9056 
 251   0.0000       3.489318        94.9492 
 252   0.0000       3.548204        96.5515 
 253   0.0000       3.584315        97.5342 
 254   0.0000       3.593085        97.7728 
 255   0.0000       3.618938        98.4763 
 256   0.0000       3.625977        98.6679 
 257   0.0000       3.636203        98.9461 
 258   0.0000       3.692046       100.4657 
 259   0.0000       3.696950       100.5991 
 260   0.0000       3.696958       100.5994 
 261   0.0000       3.701346       100.7187 
 262   0.0000       3.756582       102.2218 
 263   0.0000       3.775022       102.7236 
 264   0.0000       3.809073       103.6501 
 265   0.0000       3.812391       103.7404 
 266   0.0000       3.926034       106.8328 
 267   0.0000       3.982144       108.3596 
 268   0.0000       4.012427       109.1837 
 269   0.0000       4.034643       109.7882 
 270   0.0000       4.076709       110.9329 
 271   0.0000       4.114610       111.9642 
 272   0.0000       4.150295       112.9353 
 273   0.0000       4.223032       114.9145 
 274   0.0000       4.250951       115.6743 
 275   0.0000       4.261707       115.9669 
 276   0.0000       4.295349       116.8824 
 277   0.0000       4.312176       117.3403 
 278   0.0000       4.353998       118.4783 
 279   0.0000       4.365447       118.7899 
 280   0.0000       4.402983       119.8113 
 281   0.0000       4.510840       122.7462 
 282   0.0000       4.515325       122.8682 
 283   0.0000       4.588589       124.8619 
 284   0.0000       4.589648       124.8907 
 285   0.0000       4.691266       127.6558 
 286   0.0000       4.852065       132.0314 
 287   0.0000       4.853371       132.0669 
 288   0.0000       4.948601       134.6583 
 289   0.0000       4.970307       135.2489 
 290   0.0000       4.984737       135.6416 
 291   0.0000       5.053327       137.5080 
 292   0.0000       5.106613       138.9580 
 293   0.0000       5.114962       139.1852 
 294   0.0000       5.168853       140.6516 
 295   0.0000       5.193011       141.3090 
 296   0.0000       5.217922       141.9869 
 297   0.0000       5.287807       143.8885 
 298   0.0000       5.329019       145.0100 
 299   0.0000       5.384836       146.5288 
 300   0.0000       5.409872       147.2101 
 301   0.0000       5.434953       147.8926 
 302   0.0000       5.438111       147.9785 
 303   0.0000       5.571608       151.6112 
 304   0.0000       5.646365       153.6454 
 305   0.0000       5.779556       157.2697 
 306   0.0000       5.839009       158.8875 
 307   0.0000       5.853800       159.2900 
 308   0.0000       5.997126       163.1901 
 309   0.0000       6.032037       164.1401 
 310   0.0000       6.073424       165.2663 
 311   0.0000       6.194860       168.5707 
 312   0.0000      10.801441       293.9221 
 313   0.0000      10.835321       294.8441 
 314   0.0000      10.863082       295.5995 
 315   0.0000      10.938185       297.6432 
 316   0.0000      11.407314       310.4088 
 317   0.0000      11.506805       313.1161 
 318   0.0000      22.350934       608.1998 
 319   0.0000      22.496048       612.1486 
 320   0.0000      22.510411       612.5394 
 321   0.0000      22.701600       617.7420 
 322   0.0000      22.896297       623.0399 
 323   0.0000      25.839886       703.1391 
 324   0.0000      26.390804       718.1303 
 325   0.0000      32.746140       891.0678 
 326   0.0000      33.043950       899.1716 

                    ********************************
                    * MULLIKEN POPULATION ANALYSIS *
                    ********************************

-----------------------
MULLIKEN ATOMIC CHARGES
-----------------------
   0 N :   -0.036996
   1 N :   -0.036996
   2 C :    0.027128
   3 C :    0.027118
   4 C :   -0.288390
   5 Cl:   -0.016652
   6 Cl:   -0.016654
   7 C :   -0.320270
   8 C :   -0.320255
   9 H :    0.162074
  10 H :    0.162069
  11 H :    0.164455
  12 H :    0.164457
  13 H :    0.164457
  14 H :    0.164454
Sum of atomic charges:    0.0000000

--------------------------------
MULLIKEN REDUCED ORBITAL CHARGES
--------------------------------
  0 N s       :     3.439461  s :     3.439461
      pz      :     1.019430  p :     3.488183
      px      :     1.438491
      py      :     1.030262
      dz2     :     0.029077  d :     0.103721
      dxz     :     0.017182
      dyz     :     0.026911
      dx2y2   :     0.015507
      dxy     :     0.015044
      f0      :     0.000740  f :     0.005632
      f+1     :     0.000686
      f-1     :     0.001281
      f+2     :     0.000742
      f-2     :     0.000514
      f+3     :     0.000832
      f-3     :     0.000838
  1 N s       :     3.439451  s :     3.439451
      pz      :     1.019436  p :     3.488192
      px      :     1.438492
      py      :     1.030264
      dz2     :     0.029079  d :     0.103721
      dxz     :     0.017182
      dyz     :     0.026909
      dx2y2   :     0.015507
      dxy     :     0.015044
      f0      :     0.000740  f :     0.005632
      f+1     :     0.000686
      f-1     :     0.001281
      f+2     :     0.000742
      f-2     :     0.000514
      f+3     :     0.000832
      f-3     :     0.000838
  2 C s       :     3.072054  s :     3.072054
      pz      :     0.731764  p :     2.705410
      px      :     1.086845
      py      :     0.886801
      dz2     :     0.043724  d :     0.180486
      dxz     :     0.035917
      dyz     :     0.047793
      dx2y2   :     0.018336
      dxy     :     0.034716
      f0      :     0.003212  f :     0.014922
      f+1     :     0.002614
      f-1     :     0.002423
      f+2     :     0.002222
      f-2     :     0.001181
      f+3     :     0.002383
      f-3     :     0.000887
  3 C s       :     3.072037  s :     3.072037
      pz      :     0.731798  p :     2.705447
      px      :     1.086844
      py      :     0.886804
      dz2     :     0.043704  d :     0.180476
      dxz     :     0.035917
      dyz     :     0.047809
      dx2y2   :     0.018330
      dxy     :     0.034716
      f0      :     0.003212  f :     0.014922
      f+1     :     0.002614
      f-1     :     0.002423
      f+2     :     0.002221
      f-2     :     0.001181
      f+3     :     0.002383
      f-3     :     0.000887
  4 C s       :     3.666570  s :     3.666570
      pz      :     1.144457  p :     2.497862
      px      :     0.715462
      py      :     0.637943
      dz2     :     0.014536  d :     0.110397
      dxz     :     0.020939
      dyz     :     0.031794
      dx2y2   :     0.010327
      dxy     :     0.032800
      f0      :     0.001361  f :     0.013561
      f+1     :     0.000466
      f-1     :     0.003342
      f+2     :     0.001967
      f-2     :     0.003647
      f+3     :     0.001835
      f-3     :     0.000944
  5 Cls       :     5.861656  s :     5.861656
      pz      :     3.508826  p :    11.081993
      px      :     3.926852
      py      :     3.646315
      dz2     :     0.012294  d :     0.066750
      dxz     :     0.012203
      dyz     :     0.026172
      dx2y2   :     0.006541
      dxy     :     0.009541
      f0      :     0.000747  f :     0.006252
      f+1     :     0.000399
      f-1     :     0.002146
      f+2     :     0.001358
      f-2     :     0.001042
      f+3     :     0.000317
      f-3     :     0.000243
  6 Cls       :     5.861638  s :     5.861638
      pz      :     3.508832  p :    11.082013
      px      :     3.926852
      py      :     3.646328
      dz2     :     0.012293  d :     0.066751
      dxz     :     0.012203
      dyz     :     0.026173
      dx2y2   :     0.006541
      dxy     :     0.009540
      f0      :     0.000747  f :     0.006252
      f+1     :     0.000399
      f-1     :     0.002146
      f+2     :     0.001358
      f-2     :     0.001042
      f+3     :     0.000317
      f-3     :     0.000243
  7 C s       :     3.318953  s :     3.318953
      pz      :     1.085866  p :     2.929933
      px      :     1.089489
      py      :     0.754579
      dz2     :     0.012634  d :     0.066115
      dxz     :     0.004517
      dyz     :     0.012095
      dx2y2   :     0.007495
      dxy     :     0.029375
      f0      :     0.001050  f :     0.005268
      f+1     :    -0.000034
      f-1     :     0.000741
      f+2     :     0.000639
      f-2     :     0.000312
      f+3     :     0.001390
      f-3     :     0.001170
  8 C s       :     3.318943  s :     3.318943
      pz      :     1.085857  p :     2.929927
      px      :     1.089488
      py      :     0.754582
      dz2     :     0.012632  d :     0.066117
      dxz     :     0.004516
      dyz     :     0.012097
      dx2y2   :     0.007495
      dxy     :     0.029376
      f0      :     0.001050  f :     0.005268
      f+1     :    -0.000034
      f-1     :     0.000740
      f+2     :     0.000639
      f-2     :     0.000312
      f+3     :     0.001390
      f-3     :     0.001170
  9 H s       :     0.815721  s :     0.815721
      pz      :     0.015009  p :     0.022204
      px      :     0.004093
      py      :     0.003102
 10 H s       :     0.815726  s :     0.815726
      pz      :     0.015009  p :     0.022205
      px      :     0.004093
      py      :     0.003102
 11 H s       :     0.814339  s :     0.814339
      pz      :     0.004804  p :     0.021206
      px      :     0.010654
      py      :     0.005749
 12 H s       :     0.814337  s :     0.814337
      pz      :     0.004803  p :     0.021206
      px      :     0.010654
      py      :     0.005749
 13 H s       :     0.814337  s :     0.814337
      pz      :     0.004804  p :     0.021206
      px      :     0.010654
      py      :     0.005749
 14 H s       :     0.814340  s :     0.814340
      pz      :     0.004804  p :     0.021206
      px      :     0.010654
      py      :     0.005749


                     *******************************
                     * LOEWDIN POPULATION ANALYSIS *
                     *******************************

----------------------
LOEWDIN ATOMIC CHARGES
----------------------
   0 N :    0.184134
   1 N :    0.184134
   2 C :   -0.553226
   3 C :   -0.553226
   4 C :   -0.385471
   5 Cl:    0.449089
   6 Cl:    0.449088
   7 C :   -0.274335
   8 C :   -0.274336
   9 H :    0.132557
  10 H :    0.132557
  11 H :    0.127259
  12 H :    0.127259
  13 H :    0.127259
  14 H :    0.127258

-------------------------------
LOEWDIN REDUCED ORBITAL CHARGES
-------------------------------
  0 N s       :     2.873988  s :     2.873988
      pz      :     1.160640  p :     3.574514
      px      :     1.250454
      py      :     1.163420
      dz2     :     0.098032  d :     0.343815
      dxz     :     0.054531
      dyz     :     0.105770
      dx2y2   :     0.044933
      dxy     :     0.040550
      f0      :     0.003297  f :     0.023548
      f+1     :     0.002197
      f-1     :     0.007349
      f+2     :     0.003062
      f-2     :     0.003050
      f+3     :     0.002373
      f-3     :     0.002219
  1 N s       :     2.873989  s :     2.873989
      pz      :     1.160640  p :     3.574515
      px      :     1.250454
      py      :     1.163420
      dz2     :     0.098032  d :     0.343815
      dxz     :     0.054531
      dyz     :     0.105770
      dx2y2   :     0.044932
      dxy     :     0.040550
      f0      :     0.003297  f :     0.023548
      f+1     :     0.002197
      f-1     :     0.007349
      f+2     :     0.003062
      f-2     :     0.003050
      f+3     :     0.002373
      f-3     :     0.002219
  2 C s       :     2.777409  s :     2.777409
      pz      :     0.927792  p :     2.994243
      px      :     1.013705
      py      :     1.052746
      dz2     :     0.186530  d :     0.693958
      dxz     :     0.110705
      dyz     :     0.208983
      dx2y2   :     0.077013
      dxy     :     0.110726
      f0      :     0.021947  f :     0.087617
      f+1     :     0.015266
      f-1     :     0.016079
      f+2     :     0.012411
      f-2     :     0.007856
      f+3     :     0.007816
      f-3     :     0.006241
  3 C s       :     2.777409  s :     2.777409
      pz      :     0.927792  p :     2.994243
      px      :     1.013705
      py      :     1.052746
      dz2     :     0.186529  d :     0.693957
      dxz     :     0.110705
      dyz     :     0.208984
      dx2y2   :     0.077013
      dxy     :     0.110726
      f0      :     0.021947  f :     0.087617
      f+1     :     0.015266
      f-1     :     0.016079
      f+2     :     0.012411
      f-2     :     0.007856
      f+3     :     0.007816
      f-3     :     0.006241
  4 C s       :     3.044864  s :     3.044864
      pz      :     1.280452  p :     2.816892
      px      :     0.719193
      py      :     0.817247
      dz2     :     0.069689  d :     0.437091
      dxz     :     0.035752
      dyz     :     0.141672
      dx2y2   :     0.082042
      dxy     :     0.107936
      f0      :     0.009921  f :     0.086624
      f+1     :     0.001176
      f-1     :     0.026075
      f+2     :     0.015038
      f-2     :     0.022083
      f+3     :     0.006021
      f-3     :     0.006310
  5 Cls       :     5.519885  s :     5.519885
      pz      :     3.474943  p :    10.906060
      px      :     3.841301
      py      :     3.589815
      dz2     :     0.021538  d :     0.111533
      dxz     :     0.021864
      dyz     :     0.041079
      dx2y2   :     0.010510
      dxy     :     0.016542
      f0      :     0.001694  f :     0.013433
      f+1     :     0.000999
      f-1     :     0.004264
      f+2     :     0.002628
      f-2     :     0.002667
      f+3     :     0.000720
      f-3     :     0.000461
  6 Cls       :     5.519885  s :     5.519885
      pz      :     3.474944  p :    10.906061
      px      :     3.841302
      py      :     3.589816
      dz2     :     0.021538  d :     0.111533
      dxz     :     0.021864
      dyz     :     0.041079
      dx2y2   :     0.010510
      dxy     :     0.016542
      f0      :     0.001694  f :     0.013433
      f+1     :     0.000999
      f-1     :     0.004264
      f+2     :     0.002628
      f-2     :     0.002667
      f+3     :     0.000720
      f-3     :     0.000461
  7 C s       :     2.840174  s :     2.840174
      pz      :     1.091290  p :     3.094981
      px      :     1.102578
      py      :     0.901113
      dz2     :     0.066641  d :     0.300886
      dxz     :     0.014665
      dyz     :     0.053215
      dx2y2   :     0.055911
      dxy     :     0.110454
      f0      :     0.004960  f :     0.038294
      f+1     :     0.000452
      f-1     :     0.005294
      f+2     :     0.007379
      f-2     :     0.005486
      f+3     :     0.007558
      f-3     :     0.007164
  8 C s       :     2.840174  s :     2.840174
      pz      :     1.091290  p :     3.094981
      px      :     1.102578
      py      :     0.901113
      dz2     :     0.066641  d :     0.300887
      dxz     :     0.014665
      dyz     :     0.053216
      dx2y2   :     0.055911
      dxy     :     0.110454
      f0      :     0.004960  f :     0.038294
      f+1     :     0.000452
      f-1     :     0.005294
      f+2     :     0.007379
      f-2     :     0.005486
      f+3     :     0.007558
      f-3     :     0.007164
  9 H s       :     0.806134  s :     0.806134
      pz      :     0.039352  p :     0.061310
      px      :     0.012993
      py      :     0.008964
 10 H s       :     0.806134  s :     0.806134
      pz      :     0.039352  p :     0.061310
      px      :     0.012993
      py      :     0.008964
 11 H s       :     0.811899  s :     0.811899
      pz      :     0.015431  p :     0.060843
      px      :     0.030086
      py      :     0.015326
 12 H s       :     0.811898  s :     0.811898
      pz      :     0.015431  p :     0.060843
      px      :     0.030086
      py      :     0.015326
 13 H s       :     0.811898  s :     0.811898
      pz      :     0.015431  p :     0.060843
      px      :     0.030086
      py      :     0.015326
 14 H s       :     0.811899  s :     0.811899
      pz      :     0.015431  p :     0.060843
      px      :     0.030086
      py      :     0.015326


                      *****************************
                      * MAYER POPULATION ANALYSIS *
                      *****************************

  NA   - Mulliken gross atomic population
  ZA   - Total nuclear charge
  QA   - Mulliken gross atomic charge
  VA   - Mayer's total valence
  BVA  - Mayer's bonded valence
  FA   - Mayer's free valence

  ATOM       NA         ZA         QA         VA         BVA        FA
  0 N      7.0370     7.0000    -0.0370     3.2101     3.2101    -0.0000
  1 N      7.0370     7.0000    -0.0370     3.2100     3.2100     0.0000
  2 C      5.9729     6.0000     0.0271     4.0849     4.0849    -0.0000
  3 C      5.9729     6.0000     0.0271     4.0849     4.0849     0.0000
  4 C      6.2884     6.0000    -0.2884     2.6325     2.6325     0.0000
  5 Cl    17.0167    17.0000    -0.0167     1.3056     1.3056    -0.0000
  6 Cl    17.0167    17.0000    -0.0167     1.3056     1.3056     0.0000
  7 C      6.3203     6.0000    -0.3203     3.8036     3.8036     0.0000
  8 C      6.3203     6.0000    -0.3203     3.8036     3.8036     0.0000
  9 H      0.8379     1.0000     0.1621     0.9728     0.9728     0.0000
 10 H      0.8379     1.0000     0.1621     0.9728     0.9728     0.0000
 11 H      0.8355     1.0000     0.1645     0.9539     0.9539     0.0000
 12 H      0.8355     1.0000     0.1645     0.9539     0.9539    -0.0000
 13 H      0.8355     1.0000     0.1645     0.9539     0.9539    -0.0000
 14 H      0.8355     1.0000     0.1645     0.9539     0.9539     0.0000

  Mayer bond orders larger than 0.100000
B(  0-N ,  2-C ) :   1.1208 B(  0-N ,  4-C ) :   1.2025 B(  0-N ,  7-C ) :   0.8726 
B(  1-N ,  3-C ) :   1.1208 B(  1-N ,  4-C ) :   1.2025 B(  1-N ,  8-C ) :   0.8726 
B(  2-C ,  3-C ) :   1.6161 B(  2-C ,  5-Cl) :   1.2157 B(  3-C ,  6-Cl) :   1.2157 
B(  7-C ,  9-H ) :   0.9639 B(  7-C , 11-H ) :   0.9628 B(  7-C , 14-H ) :   0.9628 
B(  8-C , 10-H ) :   0.9639 B(  8-C , 12-H ) :   0.9628 B(  8-C , 13-H ) :   0.9628 


-------
TIMINGS
-------

Total SCF time: 0 days 0 hours 1 min 58 sec 

Total time                  ....     118.851 sec
Sum of individual times     ....     117.945 sec  ( 99.2%)

Fock matrix formation       ....     115.639 sec  ( 97.3%)
  Split-RI-J                ....       5.223 sec  (  4.5% of F)
  Chain of spheres X        ....      92.528 sec  ( 80.0% of F)
  XC integration            ....       9.657 sec  (  8.4% of F)
    Basis function eval.    ....       2.155 sec  ( 22.3% of XC)
    Density eval.           ....       2.393 sec  ( 24.8% of XC)
    XC-Functional eval.     ....       0.784 sec  (  8.1% of XC)
    XC-Potential eval.      ....       3.293 sec  ( 34.1% of XC)
Diagonalization             ....       0.260 sec  (  0.2%)
Density matrix formation    ....       0.019 sec  (  0.0%)
Population analysis         ....       0.037 sec  (  0.0%)
Initial guess               ....       0.365 sec  (  0.3%)
Orbital Transformation      ....       0.000 sec  (  0.0%)
Orbital Orthonormalization  ....       0.000 sec  (  0.0%)
DIIS solution               ....       0.154 sec  (  0.1%)
SOSCF solution              ....       0.169 sec  (  0.1%)
Grid generation             ....       1.301 sec  (  1.1%)

Maximum memory used throughout the entire SCF-calculation: 83.2 MB


-------------------------------------------------------------------------------
                          DFT DISPERSION CORRECTION                            
                                                                               
                                 DFTD4 V2.5                                    
-------------------------------------------------------------------------------
The WB97X functional is recognized
Active option DFTDOPT                   ...         5   

Starting D4
-------------------------   ----------------
Dispersion correction           -0.002555326
-------------------------   ----------------


-------------------------   --------------------
FINAL SINGLE POINT ENERGY     -1224.057233544177
-------------------------   --------------------



           ************************************************************
           *        Program running with 4 parallel MPI-processes     *
           *              working on a common directory               *
           ************************************************************
------------------------------------------------------------------------------
                         ORCA SCF GRADIENT CALCULATION
------------------------------------------------------------------------------

 ... reading COSX grid (gridx3)
Gradient of the Kohn-Sham DFT energy:
Kohn-Sham wavefunction type      ... RKS
Hartree-Fock exchange scaling    ...    0.158
Number of operators              ...    1
Number of atoms                  ...   15
Basis set dimensions             ...  327
Integral neglect threshold       ... 2.5e-11
Integral primitive cutoff        ... 2.5e-12
SHARK Integral package           ... ON

Nuc. rep. gradient       (SHARK) ... done (  0.0 sec)
HCore & Overlap gradient (SHARK) ... done (  0.2 sec)
RI-J gradient            (SHARK) ... done (  1.4 sec)
COSX-gradient                    ... done ( 18.6 sec)
Exchange-correlation gradient    ... done
Dispersion correction            ... Starting D4
Starting D4


------------------- 
Dispersion Gradient 
------------------- 
   1  :   -0.000000000    0.000012139    0.000007201
   2  :   -0.000000000   -0.000012139    0.000007201
   3  :    0.000000000    0.000008574   -0.000004713
Starting D4
   4  :    0.000000000   -0.000008574   -0.000004713
   5  :    0.000000000   -0.000000000    0.000016099
   6  :   -0.000000000    0.000036813   -0.000041057
   7  :   -0.000000000   -0.000036813   -0.000041057
   8  :   -0.000000000    0.000044901    0.000018152
   9  :    0.000000000   -0.000044901    0.000018152
  10  :   -0.000000000    0.000008393    0.000005813
  11  :    0.000000000   -0.000008393    0.000005813
  12  :    0.000000024    0.000007322    0.000003277
  13  :    0.000000024   -0.000007322    0.000003277
  14  :   -0.000000024   -0.000007322    0.000003277
  15  :   -0.000000024    0.000007322    0.000003277

  |G| =    0.000086832

Starting D4
done

------------------
CARTESIAN GRADIENT
------------------

   1   N   :   -0.000000131    0.003117429    0.001735197
   2   N   :   -0.000000085   -0.003118363    0.001735325
   3   C   :    0.000000068    0.006882167   -0.000937336
   4   C   :    0.000000029   -0.006881648   -0.000936981
   5   C   :    0.000000133    0.000000494    0.005419764
   6   Cl  :   -0.000000038    0.003052890   -0.003054489
   7   Cl  :   -0.000000107   -0.003053699   -0.003054713
   8   C   :    0.000000541   -0.005369167   -0.002266528
   9   C   :   -0.000000132    0.005369488   -0.002266731
  10   H   :    0.000000015    0.000105017    0.006216812
  11   H   :   -0.000000004   -0.000104772    0.006216816
  12   H   :   -0.004898718    0.003260271   -0.001913768
  13   H   :   -0.004898567   -0.003260056   -0.001913707
  14   H   :    0.004898734   -0.003260156   -0.001913819
  15   H   :    0.004898162    0.003259981   -0.001913481

Difference to translation invariance:
           :   -0.0000001003   -0.0000001227    0.0011523613

Difference to rotation invariance:
           :   -0.0000017145    0.0000004851    0.0000000332

Norm of the cartesian gradient     ...    0.0220685819
RMS gradient                       ...    0.0032897899
MAX gradient                       ...    0.0068821671

-------
TIMINGS
-------

Total SCF gradient time            ...       24.284 sec

One electron gradient       ....       0.203 sec  (  0.8%)
RI-J Coulomb gradient       ....       1.408 sec  (  5.8%)
COSX gradient               ....      18.596 sec  ( 76.6%)
XC gradient                 ....       2.504 sec  ( 10.3%)
CPCM gradient               ....       0.426 sec  (  1.8%)
   A-Matrix (El+Nuc)        ....       0.037 sec  (  0.2%)
   Potential                ....       0.389 sec  (  1.6%)

Maximum memory used throughout the entire SCFGRAD-calculation: 55.0 MB
------------------------------------------------------------------------------
                         ORCA GEOMETRY RELAXATION STEP
[...]
      2       0.047810  -0.060895   0.048228  -0.059283   0.000010  -0.000001
      3      -0.000000  -0.000000   0.000000   0.000004   0.011678  -0.012161
      4       0.125528   0.278006  -0.094784  -0.134583   0.000023  -0.000004
      5      -0.047811  -0.060895   0.048227   0.059283  -0.000010   0.000001
      6       0.000000  -0.000000   0.000000   0.000000   0.000739   0.000530
      7      -0.041962  -0.045226   0.011131   0.036574  -0.000006   0.000001
      8      -0.068397   0.105850  -0.064118   0.093286  -0.000016   0.000002
      9      -0.000000  -0.000000   0.000000  -0.000000  -0.000740   0.000530
     10      -0.041962   0.045227  -0.011131   0.036575  -0.000006   0.000001
     11       0.068399   0.105851  -0.064118  -0.093285   0.000016  -0.000002
     12       0.000000   0.000000  -0.000000  -0.000000  -0.000000   0.000583
     13      -0.097585   0.000000  -0.000001   0.128916  -0.000022   0.000003
     14      -0.000001  -0.080222   0.026620  -0.000000  -0.000000   0.000000
     15      -0.000000   0.000000  -0.000000  -0.000000  -0.000080   0.000013
     16       0.000279   0.005895  -0.003439   0.000663  -0.000000  -0.000000
     17       0.002964  -0.009510   0.004806  -0.004446   0.000001  -0.000000
     18       0.000000   0.000000  -0.000000   0.000000   0.000080   0.000013
     19       0.000279  -0.005895   0.003439   0.000663  -0.000000   0.000000
     20      -0.002964  -0.009510   0.004806   0.004446  -0.000001   0.000000
     21      -0.000000   0.000000   0.000000  -0.000010  -0.034155  -0.033891
     22      -0.133471   0.195464   0.035525  -0.007085   0.000001   0.000000
     23      -0.053341   0.063103   0.023515  -0.023213   0.000004  -0.000000
     24       0.000000   0.000000   0.000000   0.000013   0.034175  -0.033870
     25      -0.133473  -0.195460  -0.035527  -0.007087   0.000002  -0.000001
     26       0.053341   0.063102   0.023515   0.023214  -0.000004   0.000001
     27      -0.000001   0.000002  -0.000001   0.000141   0.497066   0.496689
     28       0.440856  -0.408802  -0.470396   0.477175  -0.000079   0.000009
     29      -0.048129   0.061522   0.019588  -0.018970   0.000002  -0.000002
     30      -0.000001  -0.000003  -0.000006  -0.000184  -0.497366   0.496389
     31       0.440856   0.408784   0.470399   0.477183  -0.000082   0.000012
     32       0.048129   0.061519   0.019587   0.018970  -0.000002  -0.000001
     33       0.082096  -0.108231  -0.038445  -0.057218   0.033135   0.032987
     34       0.238423  -0.199169  -0.240085   0.125063  -0.136957  -0.137918
     35       0.251246  -0.208054  -0.266790   0.310955  -0.325338  -0.325635
     36      -0.082098  -0.108228  -0.038448   0.057215  -0.033152   0.032968
     37       0.238421   0.199157   0.240085   0.125052  -0.137043   0.137843
     38      -0.251243  -0.208041  -0.266786  -0.310932   0.325536  -0.325452
     39       0.082096   0.108227   0.038445  -0.057241  -0.033140   0.032973
     40       0.238422   0.199160   0.240089   0.125153   0.136993  -0.137828
     41      -0.251245  -0.208046  -0.266794  -0.311172  -0.325430   0.325438
     42      -0.082095   0.108230   0.038443   0.057238   0.033118   0.032994
     43       0.238423  -0.199169  -0.240085   0.125140   0.136914   0.137919
     44       0.251245  -0.208052  -0.266792   0.311139   0.325235   0.325648
                 36         37         38         39         40         41    
      0      -0.000000   0.000000  -0.000000   0.000000  -0.000000   0.000131
      1      -0.023153  -0.048713  -0.118801  -0.000437   0.000007   0.000000
      2       0.040041   0.026672   0.042510  -0.000086   0.000393  -0.000000
      3      -0.000000   0.000000  -0.000000   0.000000   0.000000   0.000174
      4       0.023143  -0.048718   0.118799  -0.000437  -0.000007  -0.000000
      5       0.040035  -0.026682   0.042510   0.000086   0.000393  -0.000000
      6       0.000000   0.000000  -0.000000  -0.000000  -0.000000   0.000036
      7      -0.020509   0.010231   0.662285  -0.000174  -0.000041   0.000000
      8      -0.004818   0.000671  -0.068251   0.000644  -0.000740   0.000000
      9      -0.000000  -0.000000   0.000001   0.000000   0.000000   0.000070
     10       0.020511   0.010227  -0.662284  -0.000174   0.000041   0.000000
     11      -0.004818  -0.000669  -0.068252  -0.000645  -0.000739   0.000000
     12       0.000000  -0.000000   0.000000  -0.000000   0.000000  -0.000219
     13       0.000006   0.054295   0.000000   0.001405  -0.000000  -0.000000
     14      -0.042452   0.000005  -0.031908   0.000000   0.000491   0.000000
     15       0.000000  -0.000000  -0.000000   0.000000  -0.000000   0.000002
     16       0.000765  -0.000546  -0.024363   0.000032  -0.000077   0.000000
     17      -0.001360  -0.000422   0.019740  -0.000001   0.000043  -0.000000
     18       0.000000  -0.000000  -0.000000  -0.000000  -0.000000   0.000002
     19      -0.000765  -0.000546   0.024363   0.000032   0.000077  -0.000000
     20      -0.001360   0.000422   0.019740   0.000001   0.000043  -0.000000
     21      -0.000000  -0.000000  -0.000000   0.000000  -0.000000  -0.058610
     22      -0.026959  -0.026949   0.021896  -0.034478   0.034573   0.000000
     23       0.015518   0.014728  -0.024659  -0.000821   0.000947   0.000000
     24      -0.000000   0.000000   0.000000  -0.000000  -0.000000  -0.074405
     25       0.026954  -0.026955  -0.021896  -0.034499  -0.034551   0.000000
     26       0.015515  -0.014731  -0.024659   0.000822   0.000947  -0.000000
     27       0.000002   0.000001   0.000000   0.000001  -0.000001  -0.009223
     28      -0.198146  -0.145199  -0.106543  -0.001751   0.001622   0.000000
     29       0.008405   0.007843  -0.028093   0.310167  -0.310477   0.000001
     30       0.000005  -0.000004   0.000000  -0.000001  -0.000001  -0.011709
     31       0.198115  -0.145243   0.106543  -0.001752  -0.001622   0.000000
     32       0.008403  -0.007845  -0.028093  -0.310361  -0.310284   0.000005
     33       0.282468   0.284924   0.028448  -0.369626   0.369666   0.353109
     34       0.331739   0.358529   0.108743   0.205620  -0.206124  -0.204798
     35      -0.195756  -0.163850   0.020147  -0.149139   0.149057   0.151787
     36       0.282408  -0.284984   0.028448   0.369858   0.369437   0.448312
     37      -0.331664   0.358599  -0.108741   0.205750   0.205997   0.260031
     38      -0.195721   0.163894   0.020147   0.149232   0.148964   0.192704
     39      -0.282408   0.284984  -0.028447  -0.369854  -0.369433   0.448313
     40      -0.331667   0.358602  -0.108741   0.205748   0.205995  -0.260032
     41      -0.195713   0.163887   0.020148   0.149233   0.148965  -0.192707
     42      -0.282468  -0.284924  -0.028448   0.369625  -0.369665   0.353109
     43       0.331741   0.358530   0.108743   0.205619  -0.206123   0.204797
     44      -0.195751  -0.163847   0.020148  -0.149141   0.149059  -0.151789
                 42         43         44    
      0      -0.000199  -0.000000   0.000000
      1      -0.000000  -0.000191   0.000148
      2       0.000000   0.000089  -0.000490
      3       0.000163  -0.000000   0.000000
      4       0.000000   0.000192   0.000147
      5      -0.000000   0.000090   0.000489
      6      -0.000149  -0.000000  -0.000000
      7       0.000000  -0.000402   0.000456
      8       0.000000  -0.000068   0.000109
      9       0.000137   0.000000   0.000000
     10      -0.000000   0.000403   0.000455
     11       0.000000  -0.000068  -0.000109
     12       0.000026   0.000000  -0.000000
     13      -0.000000   0.000000   0.000178
     14      -0.000000   0.000032  -0.000000
     15       0.000001   0.000000  -0.000000
     16      -0.000000   0.000028  -0.000014
     17       0.000000  -0.000026   0.000005
     18      -0.000001   0.000000   0.000000
     19      -0.000000  -0.000028  -0.000014
     20      -0.000000  -0.000026  -0.000005
     21       0.074379   0.000000  -0.000000
     22      -0.000000  -0.015737   0.015736
     23      -0.000000   0.064301  -0.064397
     24      -0.058579  -0.000000  -0.000000
     25       0.000000   0.015770   0.015703
     26      -0.000000   0.064436   0.064262
     27       0.011704  -0.000001   0.000001
     28      -0.000000   0.002141  -0.002131
     29      -0.000001  -0.635182   0.636621
     30      -0.009218  -0.000002  -0.000002
     31       0.000000  -0.002147  -0.002128
     32       0.000004  -0.636519  -0.635284
     33      -0.448294  -0.178794   0.179015
     34       0.260077   0.096500  -0.096709
     35      -0.192679  -0.065367   0.065445
     36       0.353093  -0.179169  -0.178638
     37       0.204860  -0.096703  -0.096505
     38       0.151756  -0.065504  -0.065307
     39       0.353094   0.179172   0.178641
     40      -0.204861  -0.096705  -0.096507
     41      -0.151759  -0.065506  -0.065310
     42      -0.448294   0.178795  -0.179016
     43      -0.260077   0.096501  -0.096709
     44       0.192681  -0.065368   0.065447


-----------
IR SPECTRUM
-----------

 Mode   freq       eps      Int      T**2         TX        TY        TZ
       cm**-1   L/(mol*cm) km/mol    a.u.
----------------------------------------------------------------------------
  6:    101.35   0.000000    0.00  0.000000  (-0.000001  0.000000 -0.000000)
  7:    114.57   0.000513    2.59  0.001397  (-0.037378 -0.000000 -0.000000)
  8:    127.85   0.000000    0.00  0.000000  (-0.000001  0.000000  0.000000)
  9:    169.15   0.002109   10.66  0.003890  (-0.062373 -0.000000 -0.000000)
 10:    172.80   0.000115    0.58  0.000208  (-0.000002  0.000000  0.014420)
 11:    236.47   0.000078    0.39  0.000103  ( 0.000000 -0.010144 -0.000000)
 12:    272.63   0.001915    9.68  0.002192  (-0.046824 -0.000001 -0.000001)
 13:    283.45   0.001897    9.58  0.002088  ( 0.000001  0.000000 -0.045694)
 14:    319.11   0.000000    0.00  0.000000  ( 0.000001 -0.000000 -0.000000)
 15:    440.00   0.001607    8.12  0.001140  ( 0.000000 -0.033757 -0.000000)
 16:    539.26   0.001421    7.18  0.000822  ( 0.000000 -0.000000 -0.028676)
 17:    578.48   0.002725   13.77  0.001470  (-0.000000 -0.038342 -0.000000)
 18:    634.06   0.000780    3.94  0.000384  (-0.019599 -0.000001 -0.000000)
 19:    645.05   0.000775    3.92  0.000375  ( 0.000000 -0.000000 -0.019368)
 20:    690.89   0.000000    0.00  0.000000  ( 0.000001 -0.000000  0.000000)
 21:    879.66   0.000224    1.13  0.000080  ( 0.000000  0.008923 -0.000000)
 22:   1087.88   0.000345    1.74  0.000099  ( 0.000000 -0.000000  0.009941)
 23:   1091.39   0.000107    0.54  0.000031  ( 0.000000 -0.005528 -0.000001)
 24:   1106.84   0.011936   60.32  0.003365  (-0.000000 -0.000000  0.058011)
 25:   1155.44   0.000005    0.02  0.000001  (-0.001135 -0.000000  0.000000)
 26:   1155.84   0.000000    0.00  0.000000  (-0.000000  0.000000 -0.000000)
 27:   1172.49   0.019998  101.06  0.005322  (-0.000000  0.072955 -0.000000)
 28:   1369.24   0.004326   21.86  0.000986  (-0.000000 -0.031401  0.000000)
 29:   1386.52   0.003241   16.38  0.000730  ( 0.000000 -0.000000 -0.027009)
 30:   1428.63   0.019432   98.20  0.004245  (-0.000000 -0.065150  0.000001)
 31:   1438.76   0.003119   15.76  0.000676  (-0.000000  0.000000  0.026008)
 32:   1458.85   0.006810   34.41  0.001457  (-0.000000 -0.000000 -0.038166)
 33:   1473.51   0.008605   43.49  0.001822  (-0.000001  0.042689 -0.000000)
 34:   1474.05   0.000000    0.00  0.000000  (-0.000012 -0.000010 -0.000000)
 35:   1474.54   0.007632   38.57  0.001615  ( 0.040190  0.000001  0.000000)
 36:   1498.36   0.010308   52.09  0.002147  ( 0.000000  0.000001 -0.046335)
 37:   1498.81   0.000786    3.97  0.000164  (-0.000000  0.012791  0.000005)
 38:   1679.87   0.008545   43.18  0.001587  ( 0.000000  0.000000 -0.039841)
 39:   3087.36   0.014216   71.84  0.001437  (-0.000000 -0.037906  0.000001)
 40:   3087.91   0.000169    0.86  0.000017  (-0.000000  0.000012  0.004138)
 41:   3165.25   0.005306   26.82  0.000523  (-0.022872  0.000000 -0.000000)
 42:   3165.26   0.000075    0.38  0.000007  ( 0.002717  0.000000 -0.000000)
 43:   3202.07   0.001432    7.24  0.000140  (-0.000000  0.000004  0.011814)
 44:   3202.29   0.000166    0.84  0.000016  (-0.000000  0.004022 -0.000012)

* The epsilon (eps) is given for a Dirac delta lineshape.
** The dipole moment derivative (T) already includes vibrational overlap.

The first frequency considered to be a vibration is 6
The total number of vibrations considered is 39


--------------------------
THERMOCHEMISTRY AT 298.15K
--------------------------

Temperature         ... 298.15 K
Pressure            ... 1.00 atm
Total Mass          ... 165.02 AMU

Throughout the following assumptions are being made:
  (1) The electronic state is orbitally nondegenerate
  (2) There are no thermally accessible electronically excited states
  (3) Hindered rotations indicated by low frequency modes are not
      treated as such but are treated as vibrations and this may
      cause some error
  (4) All equations used are the standard statistical mechanics
      equations for an ideal gas
  (5) All vibrations are strictly harmonic

freq.     101.35  E(vib)   ...       0.46 
freq.     114.57  E(vib)   ...       0.44 
freq.     127.85  E(vib)   ...       0.43 
freq.     169.15  E(vib)   ...       0.38 
freq.     172.80  E(vib)   ...       0.38 
freq.     236.47  E(vib)   ...       0.32 
freq.     272.63  E(vib)   ...       0.29 
freq.     283.45  E(vib)   ...       0.28 
freq.     319.11  E(vib)   ...       0.25 
freq.     440.00  E(vib)   ...       0.17 
freq.     539.26  E(vib)   ...       0.12 
freq.     578.48  E(vib)   ...       0.11 
freq.     634.06  E(vib)   ...       0.09 
freq.     645.05  E(vib)   ...       0.09 
freq.     690.89  E(vib)   ...       0.07 
freq.     879.66  E(vib)   ...       0.04 
freq.    1087.88  E(vib)   ...       0.02 
freq.    1091.39  E(vib)   ...       0.02 
freq.    1106.84  E(vib)   ...       0.02 
freq.    1155.44  E(vib)   ...       0.01 
freq.    1155.84  E(vib)   ...       0.01 
freq.    1172.49  E(vib)   ...       0.01 
freq.    1369.24  E(vib)   ...       0.01 
freq.    1386.52  E(vib)   ...       0.00 
freq.    1428.63  E(vib)   ...       0.00 
freq.    1438.76  E(vib)   ...       0.00 
freq.    1458.85  E(vib)   ...       0.00 
freq.    1473.51  E(vib)   ...       0.00 
freq.    1474.05  E(vib)   ...       0.00 
freq.    1474.54  E(vib)   ...       0.00 
freq.    1498.36  E(vib)   ...       0.00 
freq.    1498.81  E(vib)   ...       0.00 
freq.    1679.87  E(vib)   ...       0.00 
freq.    3087.36  E(vib)   ...       0.00 
freq.    3087.91  E(vib)   ...       0.00 
freq.    3165.25  E(vib)   ...       0.00 
freq.    3165.26  E(vib)   ...       0.00 
freq.    3202.07  E(vib)   ...       0.00 
freq.    3202.29  E(vib)   ...       0.00 

------------
INNER ENERGY
------------

The inner energy is: U= E(el) + E(ZPE) + E(vib) + E(rot) + E(trans)
    E(el)   - is the total energy from the electronic structure calculation
              = E(kin-el) + E(nuc-el) + E(el-el) + E(nuc-nuc)
    E(ZPE)  - the the zero temperature vibrational energy from the frequency calculation
    E(vib)  - the the finite temperature correction to E(ZPE) due to population
              of excited vibrational states
    E(rot)  - is the rotational thermal energy
    E(trans)- is the translational thermal energy

Summary of contributions to the inner energy U:
Electronic energy                ...  -1224.05781053 Eh
Zero point energy                ...      0.10950225 Eh      68.71 kcal/mol
Thermal vibrational correction   ...      0.00643033 Eh       4.04 kcal/mol
Thermal rotational correction    ...      0.00141627 Eh       0.89 kcal/mol
Thermal translational correction ...      0.00141627 Eh       0.89 kcal/mol
-----------------------------------------------------------------------
Total thermal energy                  -1223.93904541 Eh


Summary of corrections to the electronic energy:
(perhaps to be used in another calculation)
Total thermal correction                  0.00926287 Eh       5.81 kcal/mol
Non-thermal (ZPE) correction              0.10950225 Eh      68.71 kcal/mol
-----------------------------------------------------------------------
Total correction                          0.11876512 Eh      74.53 kcal/mol


--------
ENTHALPY
--------

The enthalpy is H = U + kB*T
                kB is Boltzmann's constant
Total free energy                 ...  -1223.93904541 Eh 
Thermal Enthalpy correction       ...      0.00094421 Eh       0.59 kcal/mol
-----------------------------------------------------------------------
Total Enthalpy                    ...  -1223.93810120 Eh


Note: Rotational entropy computed according to Herzberg 
Infrared and Raman Spectra, Chapter V,1, Van Nostrand Reinhold, 1945 
Point Group:  C2v, Symmetry Number:   2  
Rotational constants in cm-1:     0.051812     0.037122     0.021805 

Vibrational entropy computed according to the QRRHO of S. Grimme
Chem.Eur.J. 2012 18 9955


-------
ENTROPY
-------

The entropy contributions are T*S = T*(S(el)+S(vib)+S(rot)+S(trans))
     S(el)   - electronic entropy
     S(vib)  - vibrational entropy
     S(rot)  - rotational entropy
     S(trans)- translational entropy
The entropies will be listed as multiplied by the temperature to get
units of energy

Electronic entropy                ...      0.00000000 Eh      0.00 kcal/mol
Vibrational entropy               ...      0.01127905 Eh      7.08 kcal/mol
Rotational entropy                ...      0.01361469 Eh      8.54 kcal/mol
Translational entropy             ...      0.01958067 Eh     12.29 kcal/mol
-----------------------------------------------------------------------
Final entropy term                ...      0.04447441 Eh     27.91 kcal/mol

In case the symmetry of your molecule has not been determined correctly
or in case you have a reason to use a different symmetry number we print 
out the resulting rotational entropy values for sn=1,12 :
 --------------------------------------------------------
|  sn= 1 | S(rot)=       0.01426914 Eh      8.95 kcal/mol|
|  sn= 2 | S(rot)=       0.01361469 Eh      8.54 kcal/mol|
|  sn= 3 | S(rot)=       0.01323185 Eh      8.30 kcal/mol|
|  sn= 4 | S(rot)=       0.01296023 Eh      8.13 kcal/mol|
|  sn= 5 | S(rot)=       0.01274954 Eh      8.00 kcal/mol|
|  sn= 6 | S(rot)=       0.01257740 Eh      7.89 kcal/mol|
|  sn= 7 | S(rot)=       0.01243185 Eh      7.80 kcal/mol|
|  sn= 8 | S(rot)=       0.01230577 Eh      7.72 kcal/mol|
|  sn= 9 | S(rot)=       0.01219456 Eh      7.65 kcal/mol|
|  sn=10 | S(rot)=       0.01209509 Eh      7.59 kcal/mol|
|  sn=11 | S(rot)=       0.01200510 Eh      7.53 kcal/mol|
|  sn=12 | S(rot)=       0.01192294 Eh      7.48 kcal/mol|
 --------------------------------------------------------


-------------------
GIBBS FREE ENERGY
-------------------

The Gibbs free energy is G = H - T*S

Total enthalpy                    ...  -1223.93810120 Eh 
Total entropy correction          ...     -0.04447441 Eh    -27.91 kcal/mol
-----------------------------------------------------------------------
Final Gibbs free energy         ...  -1223.98257561 Eh

For completeness - the Gibbs free energy minus the electronic energy
G-E(el)                           ...      0.07523492 Eh     47.21 kcal/mol


Timings for individual modules:

Sum of individual times         ...     1204.130 sec (=  20.069 min)
GTO integral calculation        ...        3.117 sec (=   0.052 min)   0.3 %
SCF iterations                  ...      332.802 sec (=   5.547 min)  27.6 %
SCF Gradient evaluation         ...       73.727 sec (=   1.229 min)   6.1 %
Geometry relaxation             ...        0.135 sec (=   0.002 min)   0.0 %
Analytical frequency calculation...      794.349 sec (=  13.239 min)  66.0 %
                             ****ORCA TERMINATED NORMALLY****
TOTAL RUN TIME: 0 days 0 hours 20 minutes 5 seconds 762 msec
