
                                 *****************
                                 * O   R   C   A *
                                 *****************

                                            #,                                       
                                            ###                                      
                                            ####                                     
                                            #####                                    
                                            ######                                   
                                           ########,                                 
                                     ,,################,,,,,                         
                               ,,#################################,,                 
                          ,,##########################################,,             
                       ,#########################################, ''#####,          
                    ,#############################################,,   '####,        
                  ,##################################################,,,,####,       
                ,###########''''           ''''###############################       
              ,#####''   ,,,,##########,,,,          '''####'''          '####       
            ,##' ,,,,###########################,,,                        '##       
           ' ,,###''''                  '''############,,,                           
         ,,##''                                '''############,,,,        ,,,,,,###''
      ,#''                                            '''#######################'''  
     '                                                          ''''####''''         
             ,#######,   #######,   ,#######,      ##                                
            ,#'     '#,  ##    ##  ,#'     '#,    #''#        ######   ,####,        
            ##       ##  ##   ,#'  ##            #'  '#       #        #'  '#        
            ##       ##  #######   ##           ,######,      #####,   #    #        
            '#,     ,#'  ##    ##  '#,     ,#' ,#      #,         ##   #,  ,#        
             '#######'   ##     ##  '#######'  #'      '#     #####' # '####'        



                  #######################################################
                  #                        -***-                        #
                  #          Department of theory and spectroscopy      #
                  #    Directorship and core code : Frank Neese         #
                  #        Max Planck Institute fuer Kohlenforschung    #
                  #                Kaiser Wilhelm Platz 1               #
                  #                 D-45470 Muelheim/Ruhr               #
                  #                      Germany                        #
                  #                                                     #
                  #                  All rights reserved                #
                  #                        -***-                        #
                  #######################################################


                         Program Version 5.0.4 -  RELEASE  -


 With contributions from (in alphabetic order):
   Daniel Aravena         : Magnetic Suceptibility
   Michael Atanasov       : Ab Initio Ligand Field Theory (pilot matlab implementation)
   Alexander A. Auer      : GIAO ZORA, VPT2 properties, NMR spectrum
   Ute Becker             : Parallelization
   Giovanni Bistoni       : ED, misc. LED, open-shell LED, HFLD
   Martin Brehm           : Molecular dynamics
   Dmytro Bykov           : SCF Hessian
   Vijay G. Chilkuri      : MRCI spin determinant printing, contributions to CSF-ICE
   Dipayan Datta          : RHF DLPNO-CCSD density
   Achintya Kumar Dutta   : EOM-CC, STEOM-CC
   Dmitry Ganyushin       : Spin-Orbit,Spin-Spin,Magnetic field MRCI
   Miquel Garcia          : C-PCM and meta-GGA Hessian, CC/C-PCM, Gaussian charge scheme
   Yang Guo               : DLPNO-NEVPT2, F12-NEVPT2, CIM, IAO-localization
   Andreas Hansen         : Spin unrestricted coupled pair/coupled cluster methods
   Benjamin Helmich-Paris : MC-RPA, TRAH-SCF, COSX integrals
   Lee Huntington         : MR-EOM, pCC
   Robert Izsak           : Overlap fitted RIJCOSX, COSX-SCS-MP3, EOM
   Marcus Kettner         : VPT2
   Christian Kollmar      : KDIIS, OOCD, Brueckner-CCSD(T), CCSD density, CASPT2, CASPT2-K
   Simone Kossmann        : Meta GGA functionals, TD-DFT gradient, OOMP2, MP2 Hessian
   Martin Krupicka        : Initial AUTO-CI
   Lucas Lang             : DCDCAS
   Marvin Lechner         : AUTO-CI (C++ implementation), FIC-MRCC
   Dagmar Lenk            : GEPOL surface, SMD
   Dimitrios Liakos       : Extrapolation schemes; Compound Job, initial MDCI parallelization
   Dimitrios Manganas     : Further ROCIS development; embedding schemes
   Dimitrios Pantazis     : SARC Basis sets
   Anastasios Papadopoulos: AUTO-CI, single reference methods and gradients
   Taras Petrenko         : DFT Hessian,TD-DFT gradient, ASA, ECA, R-Raman, ABS, FL, XAS/XES, NRVS
   Peter Pinski           : DLPNO-MP2, DLPNO-MP2 Gradient
   Christoph Reimann      : Effective Core Potentials
   Marius Retegan         : Local ZFS, SOC
   Christoph Riplinger    : Optimizer, TS searches, QM/MM, DLPNO-CCSD(T), (RO)-DLPNO pert. Triples
   Tobias Risthaus        : Range-separated hybrids, TD-DFT gradient, RPA, STAB
   Michael Roemelt        : Original ROCIS implementation
   Masaaki Saitow         : Open-shell DLPNO-CCSD energy and density
   Barbara Sandhoefer     : DKH picture change effects
   Avijit Sen             : IP-ROCIS
   Kantharuban Sivalingam : CASSCF convergence, NEVPT2, FIC-MRCI
   Bernardo de Souza      : ESD, SOC TD-DFT
   Georgi Stoychev        : AutoAux, RI-MP2 NMR, DLPNO-MP2 response
   Willem Van den Heuvel  : Paramagnetic NMR
   Boris Wezisla          : Elementary symmetry handling
   Frank Wennmohs         : Technical directorship


 We gratefully acknowledge several colleagues who have allowed us to
 interface, adapt or use parts of their codes:
   Stefan Grimme, W. Hujo, H. Kruse, P. Pracht,  : VdW corrections, initial TS optimization,
                  C. Bannwarth, S. Ehlert          DFT functionals, gCP, sTDA/sTD-DF
   Ed Valeev, F. Pavosevic, A. Kumar             : LibInt (2-el integral package), F12 methods
   Garnet Chan, S. Sharma, J. Yang, R. Olivares  : DMRG
   Ulf Ekstrom                                   : XCFun DFT Library
   Mihaly Kallay                                 : mrcc  (arbitrary order and MRCC methods)
   Jiri Pittner, Ondrej Demel                    : Mk-CCSD
   Frank Weinhold                                : gennbo (NPA and NBO analysis)
   Christopher J. Cramer and Donald G. Truhlar   : smd solvation model
   Lars Goerigk                                  : TD-DFT with DH, B97 family of functionals
   V. Asgeirsson, H. Jonsson                     : NEB implementation
   FAccTs GmbH                                   : IRC, NEB, NEB-TS, DLPNO-Multilevel, CI-OPT
                                                   MM, QMMM, 2- and 3-layer-ONIOM, Crystal-QMMM,
                                                   LR-CPCM, SF, NACMEs, symmetry and pop. for TD-DFT,
                                                   nearIR, NL-DFT gradient (VV10), updates on ESD,
                                                   ML-optimized integration grids
   S Lehtola, MJT Oliveira, MAL Marques          : LibXC Library
   Liviu Ungur et al                             : ANISO software


 Your calculation uses the libint2 library for the computation of 2-el integrals
 For citations please refer to: http://libint.valeyev.net

 Your ORCA version has been built with support for libXC version: 5.1.0
 For citations please refer to: https://tddft.org/programs/libxc/

 This ORCA versions uses:
   CBLAS   interface :  Fast vector & matrix operations
   LAPACKE interface :  Fast linear algebra routines
   SCALAPACK package :  Parallel linear algebra routines
   Shared memory     :  Shared parallel matrices
   BLAS/LAPACK       :  OpenBLAS 0.3.15  USE64BITINT DYNAMIC_ARCH NO_AFFINITY SkylakeX SINGLE_THREADED
        Core in use  :  SkylakeX
   Copyright (c) 2011-2014, The OpenBLAS Project




***************************************
The coordinates will be read from file: 4_deprot.xyz
***************************************


Your calculation utilizes the atom-pairwise dispersion correction
based on tight binding partial charges (D4)
Cite in your paper:
E.Caldeweyher, C.Bannwarth, S.Grimme, J.Chem.Phys., (2017), 147, 034112.
E.Caldeweyher, S.Ehlert, A.Hansen, H.Neugebauer, S.Grimme, J.Chem.Phys., (2018), in progress.
   

XCFun DFT library Copyright 2009-2010 Ulf Ekstrom and contributors.
See http://admol.org/xcfun for more information.
This is free software; see the source code for copying conditions.
There is ABSOLUTELY NO WARRANTY; not even for MERCHANTABILITY or FITNESS FOR A PARTICULAR PURPOSE.
For details see the documentation.
Scientific users of this library should cite U. Ekstrom, L. Visscher, R. Bast, A. J. Thorvaldsen and K. Ruud;
J.Chem.Theor.Comp. 2010, DOI: 10.1021/ct100117s
XCFun Version 0.99 

================================================================================

----- Orbital basis set information -----
Your calculation utilizes the basis: def2-TZVP
   F. Weigend and R. Ahlrichs, Phys. Chem. Chem. Phys. 7, 3297 (2005).

----- AuxJ basis set information -----
Your calculation utilizes the auxiliary basis: def2/J
   F. Weigend, Phys. Chem. Chem. Phys. 8, 1057 (2006).

================================================================================
                                        WARNINGS
                       Please study these warnings very carefully!
================================================================================


WARNING: Geometry Optimization
  ===> : Switching off AutoStart
         For restart on a previous wavefunction, please use MOREAD

INFO   : the flag for use of the SHARK integral package has been found!

================================================================================
                                       INPUT FILE
================================================================================
NAME = 4_deprot.inp
|  1> # ORCA 5.0.4 - /users/bwb16179/postgrad/2024_06/pKa_Reviewer_Comments/Aq_Z=0/4_deprot.inp # write input file
|  2> # Basic Mode
|  3> #
|  4> ! Opt Freq wB97X Def2-TZVP D4 SlowConv TightSCF Defgrid2 Def2/J RIJCOSX CPCM(Water)
|  5> 
|  6> %PAL NPROCS 4 END
|  7> 
|  8> %maxcore 4500
|  9> 
| 10> %geom
| 11> Maxiter 150
| 12> END
| 13> 
| 14> * xyzfile 0 1 4_deprot.xyz
| 15> 
| 16>                          ****END OF INPUT****
================================================================================

                       *****************************
                       * Geometry Optimization Run *
                       *****************************

Geometry optimization settings:
Update method            Update   .... BFGS
Choice of coordinates    CoordSys .... Z-matrix Internals
Initial Hessian          InHess   .... Almoef's Model

Convergence Tolerances:
Energy Change            TolE     ....  5.0000e-06 Eh
Max. Gradient            TolMAXG  ....  3.0000e-04 Eh/bohr
RMS Gradient             TolRMSG  ....  1.0000e-04 Eh/bohr
Max. Displacement        TolMAXD  ....  4.0000e-03 bohr
RMS Displacement         TolRMSD  ....  2.0000e-03 bohr
Strict Convergence                ....  False
------------------------------------------------------------------------------
                        ORCA OPTIMIZATION COORDINATE SETUP
------------------------------------------------------------------------------

The optimization will be done in new redundant internal coordinates
Making redundant internal coordinates   ...  (new redundants) done
Evaluating the initial hessian          ...  (Almloef) done
Evaluating the coordinates              ...  done
Calculating the B-matrix                .... done
Calculating the G-matrix                .... done
Diagonalizing the G-matrix              .... done
Small eigenvalue found = 2.003e-02
Small eigenvalue found = 2.064e-02
The first mode is                       ....   65
The number of degrees of freedom        ....   75

    -----------------------------------------------------------------
                    Redundant Internal Coordinates


    -----------------------------------------------------------------
         Definition                    Initial Value    Approx d2E/dq
    -----------------------------------------------------------------
      1. B(N   2,C   0)                  1.4652         0.424520   
      2. B(N   3,C   1)                  1.4652         0.424520   
      3. B(C   4,N   2)                  1.3854         0.569053   
      4. B(C   5,C   4)                  1.3562         0.707529   
      5. B(C   5,N   3)                  1.3854         0.569053   
      6. B(C   6,N   3)                  1.3594         0.626171   
      7. B(C   6,N   2)                  1.3594         0.626171   
      8. B(C   7,C   0)                  1.5248         0.380738   
      9. B(C   8,C   0)                  1.5248         0.380739   
     10. B(C   9,C   1)                  1.5248         0.380738   
     11. B(C  10,C   1)                  1.5248         0.380739   
     12. B(H  11,C   4)                  1.0892         0.361191   
     13. B(H  12,C   5)                  1.0892         0.361191   
     14. B(H  13,C   0)                  1.1004         0.346604   
     15. B(H  14,C   1)                  1.1004         0.346604   
     16. B(H  15,C   7)                  1.1023         0.344196   
     17. B(H  16,C   8)                  1.1023         0.344195   
     18. B(H  17,C   9)                  1.1023         0.344197   
     19. B(H  18,C  10)                  1.1023         0.344195   
     20. B(H  19,C   7)                  1.1003         0.346686   
     21. B(H  20,C   8)                  1.1003         0.346687   
     22. B(H  21,C   9)                  1.1003         0.346685   
     23. B(H  22,C  10)                  1.1003         0.346686   
     24. B(H  23,C   7)                  1.1006         0.346296   
     25. B(H  24,C   8)                  1.1006         0.346295   
     26. B(H  25,C   9)                  1.1006         0.346296   
     27. B(H  26,C  10)                  1.1006         0.346296   
     28. A(N   2,C   0,C   7)          111.0149         0.370289   
     29. A(C   8,C   0,H  13)          108.8954         0.323298   
     30. A(N   2,C   0,H  13)          104.1193         0.327166   
     31. A(C   7,C   0,H  13)          108.8954         0.323298   
     32. A(N   2,C   0,C   8)          111.0149         0.370289   
     33. A(C   7,C   0,C   8)          112.5206         0.365721   
     34. A(C   9,C   1,C  10)          112.5206         0.365721   
     35. A(N   3,C   1,C   9)          111.0149         0.370289   
     36. A(C  10,C   1,H  14)          108.8954         0.323298   
     37. A(N   3,C   1,H  14)          104.1193         0.327166   
     38. A(C   9,C   1,H  14)          108.8954         0.323298   
     39. A(N   3,C   1,C  10)          111.0150         0.370289   
     40. A(C   4,N   2,C   6)          112.4005         0.422634   
     41. A(C   0,N   2,C   6)          123.4229         0.401225   
     42. A(C   0,N   2,C   4)          124.1767         0.394538   
     43. A(C   1,N   3,C   6)          123.4229         0.401225   
     44. A(C   1,N   3,C   5)          124.1767         0.394538   
     45. A(C   5,N   3,C   6)          112.4005         0.422634   
     46. A(N   2,C   4,C   5)          106.1420         0.434833   
     47. A(C   5,C   4,H  11)          130.4857         0.361102   
     48. A(N   2,C   4,H  11)          123.3723         0.345882   
     49. A(N   3,C   5,H  12)          123.3723         0.345882   
     50. A(N   3,C   5,C   4)          106.1420         0.434833   
     51. A(C   4,C   5,H  12)          130.4857         0.361102   
     52. A(N   2,C   6,N   3)          102.9152         0.429936   
     53. A(H  15,C   7,H  19)          107.8710         0.287077   
     54. A(C   0,C   7,H  19)          110.1035         0.323311   
     55. A(C   0,C   7,H  15)          111.1753         0.322929   
     56. A(H  19,C   7,H  23)          108.3748         0.287350   
     57. A(H  15,C   7,H  23)          108.4187         0.287027   
     58. A(C   0,C   7,H  23)          110.7989         0.323251   
     59. A(C   0,C   8,H  16)          111.1753         0.322929   
     60. A(H  20,C   8,H  24)          108.3747         0.287350   
     61. A(H  16,C   8,H  24)          108.4186         0.287026   
     62. A(C   0,C   8,H  24)          110.7989         0.323251   
     63. A(H  16,C   8,H  20)          107.8710         0.287077   
     64. A(C   0,C   8,H  20)          110.1036         0.323311   
     65. A(C   1,C   9,H  17)          111.1754         0.322929   
     66. A(H  21,C   9,H  25)          108.3748         0.287350   
     67. A(H  17,C   9,H  25)          108.4187         0.287027   
     68. A(C   1,C   9,H  25)          110.7989         0.323251   
     69. A(H  17,C   9,H  21)          107.8710         0.287077   
     70. A(C   1,C   9,H  21)          110.1035         0.323311   
     71. A(C   1,C  10,H  18)          111.1753         0.322929   
     72. A(H  22,C  10,H  26)          108.3748         0.287350   
     73. A(H  18,C  10,H  26)          108.4186         0.287027   
     74. A(C   1,C  10,H  26)          110.7989         0.323251   
     75. A(H  18,C  10,H  22)          107.8710         0.287077   
     76. A(C   1,C  10,H  22)          110.1035         0.323311   
     77. D(C   4,N   2,C   0,C   7)    -62.9765         0.015365   
     78. D(C   6,N   2,C   0,H  13)     -0.0000         0.015365   
     79. D(C   6,N   2,C   0,C   7)    117.0234         0.015365   
     80. D(C   4,N   2,C   0,H  13)   -179.9999         0.015365   
     81. D(C   6,N   2,C   0,C   8)   -117.0235         0.015365   
     82. D(C   4,N   2,C   0,C   8)     62.9766         0.015365   
     83. D(C   5,N   3,C   1,C  10)     62.9766         0.015365   
     84. D(C   6,N   3,C   1,H  14)      0.0002         0.015365   
     85. D(C   6,N   3,C   1,C   9)    117.0236         0.015365   
     86. D(C   6,N   3,C   1,C  10)   -117.0233         0.015365   
     87. D(C   5,N   3,C   1,H  14)   -179.9999         0.015365   
     88. D(C   5,N   3,C   1,C   9)    -62.9765         0.015365   
     89. D(H  11,C   4,N   2,C   0)     -0.0001         0.025910   
     90. D(C   5,C   4,N   2,C   6)      0.0002         0.025910   
     91. D(C   5,C   4,N   2,C   0)   -179.9999         0.025910   
     92. D(H  11,C   4,N   2,C   6)   -179.9999         0.025910   
     93. D(H  12,C   5,C   4,H  11)      0.0001         0.035321   
     94. D(N   3,C   5,C   4,N   2)     -0.0001         0.035321   
     95. D(H  12,C   5,N   3,C   6)    179.9999         0.025910   
     96. D(N   3,C   5,C   4,H  11)   -179.9999         0.035321   
     97. D(H  12,C   5,N   3,C   1)      0.0000         0.025910   
     98. D(C   4,C   5,N   3,C   6)     -0.0001         0.025910   
     99. D(C   4,C   5,N   3,C   1)    180.0000         0.025910   
    100. D(H  12,C   5,C   4,N   2)    179.9999         0.035321   
    101. D(N   2,C   6,N   3,C   5)      0.0002         0.028809   
    102. D(N   3,C   6,N   2,C   4)     -0.0003         0.028809   
    103. D(N   3,C   6,N   2,C   0)    179.9999         0.028809   
    104. D(N   2,C   6,N   3,C   1)   -179.9999         0.028809   
    105. D(H  15,C   7,C   0,C   8)    -59.8481         0.011551   
    106. D(H  15,C   7,C   0,N   2)     65.2630         0.011551   
    107. D(H  15,C   7,C   0,H  13)    179.3235         0.011551   
    108. D(H  23,C   7,C   0,H  13)     58.6863         0.011551   
    109. D(H  23,C   7,C   0,C   8)    179.5147         0.011551   
    110. D(H  23,C   7,C   0,N   2)    -55.3742         0.011551   
    111. D(H  19,C   7,C   0,H  13)    -61.1889         0.011551   
    112. D(H  19,C   7,C   0,C   8)     59.6395         0.011551   
    113. D(H  19,C   7,C   0,N   2)   -175.2494         0.011551   
    114. D(H  24,C   8,C   0,H  13)    -58.6863         0.011551   
    115. D(H  24,C   8,C   0,C   7)   -179.5147         0.011551   
    116. D(H  24,C   8,C   0,N   2)     55.3742         0.011551   
    117. D(H  20,C   8,C   0,H  13)     61.1889         0.011551   
    118. D(H  20,C   8,C   0,C   7)    -59.6394         0.011551   
    119. D(H  20,C   8,C   0,N   2)    175.2494         0.011551   
    120. D(H  16,C   8,C   0,H  13)   -179.3235         0.011551   
    121. D(H  16,C   8,C   0,C   7)     59.8482         0.011551   
    122. D(H  16,C   8,C   0,N   2)    -65.2629         0.011551   
    123. D(H  25,C   9,C   1,C  10)    179.5146         0.011551   
    124. D(H  25,C   9,C   1,N   3)    -55.3743         0.011551   
    125. D(H  21,C   9,C   1,H  14)    -61.1890         0.011551   
    126. D(H  21,C   9,C   1,C  10)     59.6394         0.011551   
    127. D(H  21,C   9,C   1,N   3)   -175.2495         0.011551   
    128. D(H  17,C   9,C   1,H  14)    179.3235         0.011551   
    129. D(H  17,C   9,C   1,C  10)    -59.8482         0.011551   
    130. D(H  25,C   9,C   1,H  14)     58.6862         0.011551   
    131. D(H  17,C   9,C   1,N   3)     65.2629         0.011551   
    132. D(H  26,C  10,C   1,N   3)     55.3743         0.011551   
    133. D(H  22,C  10,C   1,H  14)     61.1890         0.011551   
    134. D(H  22,C  10,C   1,C   9)    -59.6393         0.011551   
    135. D(H  22,C  10,C   1,N   3)    175.2495         0.011551   
    136. D(H  18,C  10,C   1,H  14)   -179.3234         0.011551   
    137. D(H  18,C  10,C   1,C   9)     59.8483         0.011551   
    138. D(H  26,C  10,C   1,C   9)   -179.5146         0.011551   
    139. D(H  18,C  10,C   1,N   3)    -65.2629         0.011551   
    140. D(H  26,C  10,C   1,H  14)    -58.6863         0.011551   
    -----------------------------------------------------------------

Number of atoms                         .... 27
Number of degrees of freedom            .... 140

         *************************************************************
         *                GEOMETRY OPTIMIZATION CYCLE   1            *
         *************************************************************
---------------------------------
CARTESIAN COORDINATES (ANGSTROEM)
---------------------------------
  C      0.000000    2.456466    0.553232
  C     -0.000000   -2.456466    0.553232
  N      0.000001    1.063252    0.099616
  N      0.000001   -1.063252    0.099616
  C      0.000002    0.678075   -1.231203
  C      0.000001   -0.678075   -1.231203
  C      0.000004    0.000000    0.946651
  C      1.268001    3.176646    0.107564
  C     -1.268002    3.176644    0.107567
  C     -1.268002   -3.176644    0.107564
  C      1.268001   -3.176646    0.107567
  H      0.000001    1.385232   -2.059596
  H      0.000000   -1.385232   -2.059596
  H      0.000002    2.381327    1.651062
  H     -0.000001   -2.381327    1.651062
  H      1.312351    3.262086   -0.990520
  H     -1.312355    3.262083   -0.990518
  H     -1.312353   -3.262083   -0.990520
  H      1.312354   -3.262084   -0.990518
  H      1.292425    4.193752    0.526650
  H     -1.292427    4.193750    0.526652
  H     -1.292426   -4.193751    0.526649
  H      1.292423   -4.193753    0.526651
  H      2.164460    2.638276    0.450971
  H     -2.164460    2.638273    0.450976
  H     -2.164460   -2.638274    0.450972
  H      2.164459   -2.638277    0.450977

----------------------------
CARTESIAN COORDINATES (A.U.)
----------------------------
  NO LB      ZA    FRAG     MASS         X           Y           Z
   0 C     6.0000    0    12.011    0.000000    4.642048    1.045457
   1 C     6.0000    0    12.011   -0.000000   -4.642048    1.045457
   2 N     7.0000    0    14.007    0.000002    2.009255    0.188247
   3 N     7.0000    0    14.007    0.000002   -2.009255    0.188247
   4 C     6.0000    0    12.011    0.000004    1.281376   -2.326636
   5 C     6.0000    0    12.011    0.000002   -1.281376   -2.326636
   6 C     6.0000    0    12.011    0.000008    0.000000    1.788911
   7 C     6.0000    0    12.011    2.396175    6.002991    0.203267
   8 C     6.0000    0    12.011   -2.396177    6.002987    0.203272
   9 C     6.0000    0    12.011   -2.396177   -6.002987    0.203267
  10 C     6.0000    0    12.011    2.396175   -6.002991    0.203272
  11 H     1.0000    0     1.008    0.000002    2.617709   -3.892072
  12 H     1.0000    0     1.008    0.000000   -2.617709   -3.892072
  13 H     1.0000    0     1.008    0.000004    4.500056    3.120055
  14 H     1.0000    0     1.008   -0.000002   -4.500056    3.120055
  15 H     1.0000    0     1.008    2.479984    6.164449   -1.871812
  16 H     1.0000    0     1.008   -2.479992    6.164443   -1.871808
  17 H     1.0000    0     1.008   -2.479988   -6.164443   -1.871812
  18 H     1.0000    0     1.008    2.479990   -6.164445   -1.871808
  19 H     1.0000    0     1.008    2.442329    7.925043    0.995224
  20 H     1.0000    0     1.008   -2.442333    7.925039    0.995228
  21 H     1.0000    0     1.008   -2.442331   -7.925041    0.995222
  22 H     1.0000    0     1.008    2.442326   -7.925045    0.995226
  23 H     1.0000    0     1.008    4.090237    4.985619    0.852212
  24 H     1.0000    0     1.008   -4.090237    4.985613    0.852221
  25 H     1.0000    0     1.008   -4.090237   -4.985615    0.852214
  26 H     1.0000    0     1.008    4.090235   -4.985621    0.852223

--------------------------------
INTERNAL COORDINATES (ANGSTROEM)
--------------------------------
 C      0   0   0     0.000000000000     0.00000000     0.00000000
 C      1   0   0     4.912932000000     0.00000000     0.00000000
 N      1   2   0     1.465200575093    18.03471101     0.00000000
 N      2   1   3     1.465200575093    18.03471101     0.00000000
 C      3   1   2     1.385438750754   124.17666317   179.99990333
 C      5   3   1     1.356150000000   106.14195216   180.00007514
 C      3   1   2     1.359401745893   123.42286438     0.00000000
 C      1   2   4     1.524829739553   118.18382260   289.36531968
 C      1   2   4     1.524828749700   118.18375727    70.63506773
 C      2   1   3     1.524829626520   118.18373962   289.36505293
 C      2   1   3     1.524828862734   118.18384026    70.63480097
 H      5   3   1     1.089176746492   123.37234662     0.00000000
 H      6   5   3     1.089176746492   130.48570123   179.99991162
 H      1   2   4     1.100398372511    86.08459965   180.00023069
 H      2   1   3     1.100398372510    86.08459965   179.99992588
 H      8   1   2     1.102295508090   111.17534629    83.49639777
 H      9   1   2     1.102296547466   111.17534374   276.50364006
 H     10   2   1     1.102295470814   111.17536408    83.49636134
 H     11   2   1     1.102296469956   111.17532195   276.50372804
 H      8   1   2     1.100333686846   110.10349829   202.98400760
 H      9   1   2     1.100333328172   110.10355369   157.01599631
 H     10   2   1     1.100334230336   110.10345880   202.98393436
 H     11   2   1     1.100333805074   110.10352020   157.01613050
 H      8   1   2     1.100640433216   110.79890033   322.85920130
 H      9   1   2     1.100640731886   110.79891308    37.14077897
 H     10   2   1     1.100639930735   110.79892135   322.85914531
 H     11   2   1     1.100640065610   110.79888890    37.14087680

---------------------------
INTERNAL COORDINATES (A.U.)
---------------------------
 C      0   0   0     0.000000000000     0.00000000     0.00000000
 C      1   0   0     9.284095994578     0.00000000     0.00000000
 N      1   2   0     2.768827818190    18.03471101     0.00000000
 N      2   1   3     2.768827818190    18.03471101     0.00000000
 C      3   1   2     2.618099814247   124.17666317   179.99990333
 C      5   3   1     2.562752096518   106.14195216   180.00007514
 C      3   1   2     2.568897005713   123.42286438     0.00000000
 C      1   2   4     2.881510608613   118.18382260   289.36531968
 C      1   2   4     2.881508738063   118.18375727    70.63506773
 C      2   1   3     2.881510395012   118.18373962   289.36505293
 C      2   1   3     2.881508951665   118.18384026    70.63480097
 H      5   3   1     2.058245762305   123.37234662     0.00000000
 H      6   5   3     2.058245762305   130.48570123   179.99991162
 H      1   2   4     2.079451562259    86.08459965   180.00023069
 H      2   1   3     2.079451562256    86.08459965   179.99992588
 H      8   1   2     2.083036628942   111.17534629    83.49639777
 H      9   1   2     2.083038593077   111.17534374   276.50364006
 H     10   2   1     2.083036558501   111.17536408    83.49636134
 H     11   2   1     2.083038446605   111.17532195   276.50372804
 H      8   1   2     2.079329324067   110.10349829   202.98400760
 H      9   1   2     2.079328646271   110.10355369   157.01599631
 H     10   2   1     2.079330351115   110.10345880   202.98393436
 H     11   2   1     2.079329547486   110.10352020   157.01613050
 H      8   1   2     2.079908990699   110.79890033   322.85920130
 H      9   1   2     2.079909555103   110.79891308    37.14077897
 H     10   2   1     2.079908041147   110.79892135   322.85914531
 H     11   2   1     2.079908296023   110.79888890    37.14087680

---------------------
BASIS SET INFORMATION
---------------------
There are 3 groups of distinct atoms

 Group   1 Type C   : 11s6p2d1f contracted to 5s3p2d1f pattern {62111/411/11/1}
 Group   2 Type N   : 11s6p2d1f contracted to 5s3p2d1f pattern {62111/411/11/1}
 Group   3 Type H   : 5s1p contracted to 3s1p pattern {311/1}

Atom   0C    basis set group =>   1
Atom   1C    basis set group =>   1
Atom   2N    basis set group =>   2
Atom   3N    basis set group =>   2
Atom   4C    basis set group =>   1
Atom   5C    basis set group =>   1
Atom   6C    basis set group =>   1
Atom   7C    basis set group =>   1
Atom   8C    basis set group =>   1
Atom   9C    basis set group =>   1
Atom  10C    basis set group =>   1
Atom  11H    basis set group =>   3
Atom  12H    basis set group =>   3
Atom  13H    basis set group =>   3
Atom  14H    basis set group =>   3
Atom  15H    basis set group =>   3
Atom  16H    basis set group =>   3
Atom  17H    basis set group =>   3
Atom  18H    basis set group =>   3
Atom  19H    basis set group =>   3
Atom  20H    basis set group =>   3
Atom  21H    basis set group =>   3
Atom  22H    basis set group =>   3
Atom  23H    basis set group =>   3
Atom  24H    basis set group =>   3
Atom  25H    basis set group =>   3
Atom  26H    basis set group =>   3
---------------------------------
AUXILIARY/J BASIS SET INFORMATION
---------------------------------
There are 3 groups of distinct atoms

 Group   1 Type C   : 12s5p4d2f1g contracted to 6s4p3d1f1g pattern {711111/2111/211/2/1}
 Group   2 Type N   : 12s5p4d2f1g contracted to 6s4p3d1f1g pattern {711111/2111/211/2/1}
 Group   3 Type H   : 5s2p1d contracted to 3s1p1d pattern {311/2/1}

Atom   0C    basis set group =>   1
Atom   1C    basis set group =>   1
Atom   2N    basis set group =>   2
Atom   3N    basis set group =>   2
Atom   4C    basis set group =>   1
Atom   5C    basis set group =>   1
Atom   6C    basis set group =>   1
Atom   7C    basis set group =>   1
Atom   8C    basis set group =>   1
Atom   9C    basis set group =>   1
Atom  10C    basis set group =>   1
Atom  11H    basis set group =>   3
Atom  12H    basis set group =>   3
Atom  13H    basis set group =>   3
Atom  14H    basis set group =>   3
Atom  15H    basis set group =>   3
Atom  16H    basis set group =>   3
Atom  17H    basis set group =>   3
Atom  18H    basis set group =>   3
Atom  19H    basis set group =>   3
Atom  20H    basis set group =>   3
Atom  21H    basis set group =>   3
Atom  22H    basis set group =>   3
Atom  23H    basis set group =>   3
Atom  24H    basis set group =>   3
Atom  25H    basis set group =>   3
Atom  26H    basis set group =>   3


           ************************************************************
           *        Program running with 4 parallel MPI-processes     *
           *              working on a common directory               *
           ************************************************************
------------------------------------------------------------------------------
                           ORCA GTO INTEGRAL CALCULATION
                           -- RI-GTO INTEGRALS CHOSEN --
------------------------------------------------------------------------------
------------------------------------------------------------------------------
                   ___                                                        
                  /   \      - P O W E R E D   B Y -                         
                 /     \                                                     
                 |  |  |   _    _      __       _____    __    __             
                 |  |  |  | |  | |    /  \     |  _  \  |  |  /  |          
                  \  \/   | |  | |   /    \    | | | |  |  | /  /          
                 / \  \   | |__| |  /  /\  \   | |_| |  |  |/  /          
                |  |  |   |  __  | /  /__\  \  |    /   |      \           
                |  |  |   | |  | | |   __   |  |    \   |  |\   \          
                \     /   | |  | | |  |  |  |  | |\  \  |  | \   \       
                 \___/    |_|  |_| |__|  |__|  |_| \__\ |__|  \__/        
                                                                              
                      - O R C A' S   B I G   F R I E N D -                    
                                      &                                       
                       - I N T E G R A L  F E E D E R -                       
                                                                              
 v1 FN, 2020, v2 2021                                                         
------------------------------------------------------------------------------


Reading SHARK input file 4_deprot.SHARKINP.tmp ... ok
----------------------
SHARK INTEGRAL PACKAGE
----------------------

Number of atoms                             ...     27
Number of basis functions                   ...    437
Number of shells                            ...    185
Maximum angular momentum                    ...      3
Integral batch strategy                     ... SHARK/LIBINT Hybrid
RI-J (if used) integral strategy            ... SPLIT-RIJ (Revised 2003 algorithm where possible)
Printlevel                                  ...      1
Contraction scheme used                     ... SEGMENTED contraction
Coulomb Range Separation                    ... NOT USED
Exchange Range Separation                   ... Long Range
   Mu parameter                             ...  0.300000
   Scaling (regular/separated)              ...  0.157706  0.842294
Finite Nucleus Model                        ... NOT USED
Auxiliary Coulomb fitting basis             ... AVAILABLE
   # of basis functions in Aux-J            ...    715
   # of shells in Aux-J                     ...    245
   Maximum angular momentum in Aux-J        ...      4
Auxiliary J/K fitting basis                 ... NOT available
Auxiliary Correlation fitting basis         ... NOT available
Auxiliary 'external' fitting basis          ... NOT available
Integral threshold                          ...     2.500000e-11
Primitive cut-off                           ...     2.500000e-12
Primitive pair pre-selection threshold      ...     2.500000e-12

Calculating pre-screening integrals         ... done (  0.1 sec) Dimension = 185
Organizing shell pair data                  ... done (  0.1 sec)
Shell pair information
Total number of shell pairs                 ...     17205
Shell pairs after pre-screening             ...     14370
Total number of primitive shell pairs       ...     50376
Primitive shell pairs kept                  ...     30471
          la=0 lb=0:   4350 shell pairs
          la=1 lb=0:   4223 shell pairs
          la=1 lb=1:   1053 shell pairs
          la=2 lb=0:   1908 shell pairs
          la=2 lb=1:    944 shell pairs
          la=2 lb=2:    228 shell pairs
          la=3 lb=0:    935 shell pairs
          la=3 lb=1:    459 shell pairs
          la=3 lb=2:    212 shell pairs
          la=3 lb=3:     58 shell pairs

Calculating one electron integrals          ... done (  0.0 sec)
Calculating RI/J V-Matrix + Cholesky decomp.... done (  0.0 sec)
Calculating Nuclear repulsion               ... done (  0.0 sec) ENN=    631.240263604345 Eh

SHARK setup successfully completed in   0.5 seconds

Maximum memory used throughout the entire GTOINT-calculation: 26.7 MB


           ************************************************************
           *        Program running with 4 parallel MPI-processes     *
           *              working on a common directory               *
           ************************************************************
-------------------------------------------------------------------------------
                                 ORCA SCF
-------------------------------------------------------------------------------

------------
SCF SETTINGS
------------
Hamiltonian:
 Density Functional     Method          .... DFT(GTOs)
 Exchange Functional    Exchange        .... WB97X
 Correlation Functional Correlation     .... WB97X
 Gradients option       PostSCFGGA      .... off
 Hybrid DFT is turned on
   Fraction HF Exchange ScalHFX         ....  0.157706
   Scaling of DF-GGA-X  ScalDFX         ....  0.000000
   Scaling of DF-GGA-C  ScalDFC         ....  1.000000
   Scaling of DF-LDA-C  ScalLDAC        ....  1.000000
   Perturbative correction              ....  0.000000
   Density functional embedding theory  .... OFF
 Long-range corrected/Screened/Range-Separated Hybrid DFT is turned on
   Amount of maximum screened exact exchange              ....  0.842294
   Range separation parameter mu (erf(mu*r12)/r12)        ....  0.300000
 RI-approximation to the Coulomb term is turned on
   Number of AuxJ basis functions       .... 715
   RIJ-COSX (HFX calculated with COS-X)).... on


General Settings:
 Integral files         IntName         .... 4_deprot
 Hartree-Fock type      HFTyp           .... RHF
 Total Charge           Charge          ....    0
 Multiplicity           Mult            ....    1
 Number of Electrons    NEL             ....   84
 Basis Dimension        Dim             ....  437
 Nuclear Repulsion      ENuc            ....    631.2402636043 Eh

Convergence Acceleration:
 DIIS                   CNVDIIS         .... on
   Start iteration      DIISMaxIt       ....     0
   Startup error        DIISStart       ....  0.200000
   # of expansion vecs  DIISMaxEq       ....     5
   Bias factor          DIISBfac        ....   1.050
   Max. coefficient     DIISMaxC        ....  10.000
 Trust-Rad. Augm. Hess. CNVTRAH         .... auto
   Auto Start mean grad. ratio tolernc. ....  1.125000
   Auto Start start iteration           ....    20
   Auto Start num. interpolation iter.  ....    10
   Max. Number of Micro iterations      ....    16
   Max. Number of Macro iterations      .... Maxiter - #DIIS iter
   Number of Davidson start vectors     ....     2
   Converg. threshold I  (grad. norm)   ....   1.000e-05
   Converg. threshold II (energy diff.) ....   1.000e-08
   Grad. Scal. Fac. for Micro threshold ....   0.100
   Minimum threshold for Micro iter.    ....   0.010
   NR start threshold (gradient norm)   ....   0.001
   Initial trust radius                 ....   0.400
   Minimum AH scaling param. (alpha)    ....   1.000
   Maximum AH scaling param. (alpha)    .... 1000.000
   Orbital update algorithm             .... Taylor
   White noise on init. David. guess    .... on
   Maximum white noise                  ....   0.010
   Quad. conv. algorithm                .... NR
 SOSCF                  CNVSOSCF        .... on
   Start iteration      SOSCFMaxIt      ....   150
   Startup grad/error   SOSCFStart      ....  0.001000
 Level Shifting         CNVShift        .... on
   Level shift para.    LevelShift      ....    0.2500
   Turn off err/grad.   ShiftErr        ....    0.0000
 Zerner damping         CNVZerner       .... off
 Static damping         CNVDamp         .... on
   Fraction old density DampFac         ....    0.8500
   Max. Damping (<1)    DampMax         ....    0.9800
   Min. Damping (>=0)   DampMin         ....    0.0000
   Turn off err/grad.   DampErr         ....    0.0300
 Fernandez-Rico         CNVRico         .... off

SCF Procedure:
 Maximum # iterations   MaxIter         ....   125
 SCF integral mode      SCFMode         .... Direct
   Integral package                     .... SHARK and LIBINT hybrid scheme
 Reset frequency        DirectResetFreq ....    20
 Integral Threshold     Thresh          ....  2.500e-11 Eh
 Primitive CutOff       TCut            ....  2.500e-12 Eh

Convergence Tolerance:
 Convergence Check Mode ConvCheckMode   .... Total+1el-Energy
 Convergence forced     ConvForced      .... 0
 Energy Change          TolE            ....  1.000e-08 Eh
 1-El. energy change                    ....  1.000e-05 Eh
 Orbital Gradient       TolG            ....  1.000e-05
 Orbital Rotation angle TolX            ....  1.000e-05
 DIIS Error             TolErr          ....  5.000e-07


Diagonalization of the overlap matrix:
Smallest eigenvalue                        ... 6.483e-05
Time for diagonalization                   ...    0.033 sec
Threshold for overlap eigenvalues          ... 1.000e-08
Number of eigenvalues below threshold      ... 0
Time for construction of square roots      ...    0.016 sec
Total time needed                          ...    0.051 sec

Time for model grid setup =    0.217 sec

------------------------------
INITIAL GUESS: MODEL POTENTIAL
------------------------------
Loading Hartree-Fock densities                     ... done
Calculating cut-offs                               ... done
Initializing the effective Hamiltonian             ... done
Setting up the integral package (SHARK)            ... done
Starting the Coulomb interaction                   ... done (   0.4 sec)
Reading the grid                                   ... done
Mapping shells                                     ... done
Starting the XC term evaluation                    ... done (   0.3 sec)
  promolecular density results
     # of electrons  =     83.985163229
     EX              =    -63.841408252
     EC              =     -2.773817988
     EX+EC           =    -66.615226240
Transforming the Hamiltonian                       ... done (   0.0 sec)
Diagonalizing the Hamiltonian                      ... done (   0.0 sec)
Back transforming the eigenvectors                 ... done (   0.0 sec)
Now organizing SCF variables                       ... done
                      ------------------
                      INITIAL GUESS DONE (   1.0 sec)
                      ------------------
-------------------
DFT GRID GENERATION
-------------------

General Integration Accuracy     IntAcc      ... 4.388
Radial Grid Type                 RadialGrid  ... OptM3 with GC (2021)
Angular Grid (max. ang.)         AngularGrid ... 4 (Lebedev-302)
Angular grid pruning method      GridPruning ... 4 (adaptive)
Weight generation scheme         WeightScheme... Becke
Basis function cutoff            BFCut       ... 1.0000e-11
Integration weight cutoff        WCut        ... 1.0000e-14
Angular grids for H and He will be reduced by one unit
Partially contracted basis set               ... off
Rotationally invariant grid construction     ... off

Total number of grid points                  ...   117029
Total number of batches                      ...     1841
Average number of points per batch           ...       63
Average number of grid points per atom       ...     4334
Time for grid setup =    0.911 sec

--------------------
COSX GRID GENERATION
--------------------

GRIDX 1
-------
General Integration Accuracy     IntAcc      ... 3.816
Radial Grid Type                 RadialGrid  ... OptM3 with GC (2021)
Angular Grid (max. ang.)         AngularGrid ... 1 (Lebedev-50)
Angular grid pruning method      GridPruning ... 4 (adaptive)
Weight generation scheme         WeightScheme... Becke
Basis function cutoff            BFCut       ... 1.0000e-11
Integration weight cutoff        WCut        ... 1.0000e-14
Angular grids for H and He will be reduced by one unit
Partially contracted basis set               ... on
Rotationally invariant grid construction     ... off

Total number of grid points                  ...    14947
Total number of batches                      ...      248
Average number of points per batch           ...       60
Average number of grid points per atom       ...      554
UseSFitting                                  ... on

GRIDX 2
-------
General Integration Accuracy     IntAcc      ... 4.020
Radial Grid Type                 RadialGrid  ... OptM3 with GC (2021)
Angular Grid (max. ang.)         AngularGrid ... 2 (Lebedev-110)
Angular grid pruning method      GridPruning ... 4 (adaptive)
Weight generation scheme         WeightScheme... Becke
Basis function cutoff            BFCut       ... 1.0000e-11
Integration weight cutoff        WCut        ... 1.0000e-14
Angular grids for H and He will be reduced by one unit
Partially contracted basis set               ... on
Rotationally invariant grid construction     ... off

Total number of grid points                  ...    31429
Total number of batches                      ...      501
Average number of points per batch           ...       62
Average number of grid points per atom       ...     1164
UseSFitting                                  ... on

GRIDX 3
-------
General Integration Accuracy     IntAcc      ... 4.338
Radial Grid Type                 RadialGrid  ... OptM3 with GC (2021)
Angular Grid (max. ang.)         AngularGrid ... 3 (Lebedev-194)
Angular grid pruning method      GridPruning ... 4 (adaptive)
Weight generation scheme         WeightScheme... Becke
Basis function cutoff            BFCut       ... 1.0000e-11
Integration weight cutoff        WCut        ... 1.0000e-14
Angular grids for H and He will be reduced by one unit
Partially contracted basis set               ... on
Rotationally invariant grid construction     ... off

Total number of grid points                  ...    68473
Total number of batches                      ...     1085
Average number of points per batch           ...       63
Average number of grid points per atom       ...     2536
UseSFitting                                  ... on

Time for X-Grid setup             =    1.353 sec


--------------------
CPCM SOLVATION MODEL
--------------------
CPCM parameters:
  Epsilon                                         ...      80.4000
  Refrac                                          ...       1.3300
  Rsolv                                           ...       1.3000
  Surface type                                    ... GAUSSIAN VDW
  Epsilon function type                           ...         CPCM
Radii:
 Radius for C  used is    3.8550 Bohr (=   2.0400 Ang.)
 Radius for N  used is    3.5149 Bohr (=   1.8600 Ang.)
 Radius for H  used is    2.4944 Bohr (=   1.3200 Ang.)
Calculating surface                               ...        done! (  0.0s)
GEPOL surface points                              ...         1467
GEPOL Volume                                      ...    1441.3978
GEPOL Surface-area                                ...     798.6163
Calculating surface distance matrix               ...        done! (  0.0s)
Performing Cholesky decomposition & store         ...        done! (  0.1s)
Overall time for CPCM initialization              ...                 0.1s
--------------
SCF ITERATIONS
--------------
ITER       Energy         Delta-E        Max-DP      RMS-DP      [F,P]     Damp
               ***  Starting incremental Fock matrix formation  ***
  0   -461.8299703608   0.000000000000 0.02543610  0.00031101  0.1688267 0.8500
  1   -461.8904366833  -0.060466322560 0.03203625  0.00031471  0.1355786 0.8500
                               ***Turning on DIIS***
  2   -461.9364711586  -0.046034475315 0.03035134  0.00026632  0.1036854 0.8500
  3   -461.9706007179  -0.034129559316 0.02638709  0.00020597  0.0782367 0.8500
  4   -461.9968683711  -0.026267653149 0.02274597  0.00016755  0.0621664 0.8500
  5   -462.0175297538  -0.020661382703 0.01976157  0.00014193  0.0513702 0.8500
  6   -462.0343022761  -0.016772522272 0.01727394  0.00012221  0.0432085 0.8500
  7   -462.0481676324  -0.013865356371 0.01525774  0.00010651  0.0366065 0.8500
  8   -462.0597549933  -0.011587360814 0.01347361  0.00009262  0.0309689 0.8500
  9   -462.0694663815  -0.009711388218 0.07875907  0.00053352  0.0261433 0.0000
 10   -462.1221384694  -0.052672087965 0.00198264  0.00002008  0.0012088 0.0000
                      *** Initiating the SOSCF procedure ***
                           *** Shutting down DIIS ***
                      *** Re-Reading the Fockian *** 
                      *** Removing any level shift *** 
ITER      Energy       Delta-E        Grad      Rot      Max-DP    RMS-DP
 11   -462.12215861  -0.0000201362  0.000239  0.000239  0.001701  0.000013
               *** Restarting incremental Fock matrix formation ***
 12   -462.12215247   0.0000061363  0.000151  0.000244  0.001343  0.000016
 13   -462.12215319  -0.0000007219  0.000055  0.000157  0.000531  0.000008
 14   -462.12215330  -0.0000001101  0.000041  0.000037  0.000263  0.000004
 15   -462.12215334  -0.0000000378  0.000004  0.000006  0.000073  0.000001
                  ***Gradient check signals convergence***
              ***Rediagonalizing the Fockian in SOSCF/NRSCF***

               *****************************************************
               *                     SUCCESS                       *
               *           SCF CONVERGED AFTER  16 CYCLES          *
               *****************************************************

Old exchange energy                            =    -21.369730770 Eh
New exchange energy                            =    -21.369729189 Eh
Exchange energy change after final integration =      0.000001582 Eh
Total energy after final integration           =   -462.122151767 Eh
Final COS-X integration done in                =    38.127 sec

----------------
TOTAL SCF ENERGY
----------------

Total Energy       :         -462.12215177 Eh          -12574.98305 eV

Components:
Nuclear Repulsion  :          631.24026360 Eh           17176.92083 eV
Electronic Energy  :        -1093.36241537 Eh          -29751.90388 eV
One Electron Energy:        -1874.93247309 Eh          -51019.50637 eV
Two Electron Energy:          781.57005772 Eh           21267.60249 eV
Max COSX asymmetry :            0.00000242 Eh               0.00007 eV
CPCM Dielectric    :           -0.01794944 Eh              -0.48843 eV

Virial components:
Potential Energy   :         -921.84457897 Eh          -25084.66627 eV
Kinetic Energy     :          459.72242720 Eh           12509.68322 eV
Virial Ratio       :            2.00521994


DFT components:
N(Alpha)           :       42.000014275886 electrons
N(Beta)            :       42.000014275886 electrons
N(Total)           :       84.000028551772 electrons
E(XC)              :      -47.222811209553 Eh       
DFET-embed. en.    :        0.000000000000 Eh       
CPCM Solvation Model Properties:
Surface-charge          :           -0.03498374
Charge-correction       :           -0.00052100 Eh              -0.01418 eV
Free-energy (cav+disp)  :  This term is not implemented in the current solvation scheme

---------------
SCF CONVERGENCE
---------------

  Last Energy change         ...   -9.7518e-09  Tolerance :   1.0000e-08
  Last MAX-Density change    ...    1.7764e-15  Tolerance :   1.0000e-07
  Last RMS-Density change    ...    1.4355e-17  Tolerance :   5.0000e-09
  Last Orbital Gradient      ...    2.1932e-06  Tolerance :   1.0000e-05
  Last Orbital Rotation      ...    3.9724e-06  Tolerance :   1.0000e-05

             **** THE GBW FILE WAS UPDATED (4_deprot.gbw) ****
             **** DENSITY 4_deprot.scfp WAS UPDATED ****
             **** ENERGY FILE WAS UPDATED (4_deprot.en.tmp) ****
             **** THE GBW FILE WAS UPDATED (4_deprot.gbw) ****
             **** DENSITY 4_deprot.scfp WAS UPDATED ****
----------------
ORBITAL ENERGIES
----------------

  NO   OCC          E(Eh)            E(eV) 
   0   2.0000     -14.437531      -392.8652 
   1   2.0000     -14.437504      -392.8645 
   2   2.0000     -10.297220      -280.2016 
   3   2.0000     -10.297215      -280.2015 
   4   2.0000     -10.281871      -279.7839 
   5   2.0000     -10.281154      -279.7644 
   6   2.0000     -10.268991      -279.4335 
   7   2.0000     -10.245762      -278.8014 
   8   2.0000     -10.245762      -278.8014 
   9   2.0000     -10.245755      -278.8012 
  10   2.0000     -10.245753      -278.8011 
  11   2.0000      -1.156280       -31.4640 
  12   2.0000      -1.050363       -28.5818 
  13   2.0000      -0.941131       -25.6095 
  14   2.0000      -0.890519       -24.2322 
  15   2.0000      -0.873675       -23.7739 
  16   2.0000      -0.815405       -22.1883 
  17   2.0000      -0.815054       -22.1787 
  18   2.0000      -0.764052       -20.7909 
  19   2.0000      -0.751007       -20.4359 
  20   2.0000      -0.678298       -18.4574 
  21   2.0000      -0.667667       -18.1681 
  22   2.0000      -0.624769       -17.0008 
  23   2.0000      -0.586743       -15.9661 
  24   2.0000      -0.578141       -15.7320 
  25   2.0000      -0.559166       -15.2157 
  26   2.0000      -0.557782       -15.1780 
  27   2.0000      -0.535327       -14.5670 
  28   2.0000      -0.534443       -14.5429 
  29   2.0000      -0.526410       -14.3243 
  30   2.0000      -0.500943       -13.6314 
  31   2.0000      -0.492660       -13.4060 
  32   2.0000      -0.485432       -13.2093 
  33   2.0000      -0.483053       -13.1445 
  34   2.0000      -0.465380       -12.6636 
  35   2.0000      -0.456592       -12.4245 
  36   2.0000      -0.446331       -12.1453 
  37   2.0000      -0.441984       -12.0270 
  38   2.0000      -0.433862       -11.8060 
  39   2.0000      -0.370936       -10.0937 
  40   2.0000      -0.334739        -9.1087 
  41   2.0000      -0.327230        -8.9044 
  42   0.0000       0.109701         2.9851 
  43   0.0000       0.113192         3.0801 
  44   0.0000       0.121928         3.3178 
  45   0.0000       0.127863         3.4793 
  46   0.0000       0.155293         4.2257 
  47   0.0000       0.157151         4.2763 
  48   0.0000       0.165718         4.5094 
  49   0.0000       0.166203         4.5226 
  50   0.0000       0.173430         4.7193 
  51   0.0000       0.185280         5.0417 
  52   0.0000       0.186927         5.0865 
  53   0.0000       0.194798         5.3007 
  54   0.0000       0.200924         5.4674 
  55   0.0000       0.217437         5.9168 
  56   0.0000       0.218582         5.9479 
  57   0.0000       0.228357         6.2139 
  58   0.0000       0.228414         6.2155 
  59   0.0000       0.232979         6.3397 
  60   0.0000       0.244305         6.6479 
  61   0.0000       0.247218         6.7271 
  62   0.0000       0.249684         6.7942 
  63   0.0000       0.252486         6.8705 
  64   0.0000       0.265032         7.2119 
  65   0.0000       0.266303         7.2465 
  66   0.0000       0.286441         7.7944 
  67   0.0000       0.288227         7.8431 
  68   0.0000       0.291557         7.9337 
  69   0.0000       0.293058         7.9745 
  70   0.0000       0.315539         8.5863 
  71   0.0000       0.317742         8.6462 
  72   0.0000       0.318757         8.6738 
  73   0.0000       0.321057         8.7364 
  74   0.0000       0.336106         9.1459 
  75   0.0000       0.340673         9.2702 
  76   0.0000       0.362006         9.8507 
  77   0.0000       0.367486         9.9998 
  78   0.0000       0.374961        10.2032 
  79   0.0000       0.384681        10.4677 
  80   0.0000       0.395340        10.7577 
  81   0.0000       0.406510        11.0617 
  82   0.0000       0.426643        11.6096 
  83   0.0000       0.435637        11.8543 
  84   0.0000       0.440387        11.9835 
  85   0.0000       0.441079        12.0024 
  86   0.0000       0.462312        12.5802 
  87   0.0000       0.471781        12.8378 
  88   0.0000       0.480129        13.0650 
  89   0.0000       0.483808        13.1651 
  90   0.0000       0.493245        13.4219 
  91   0.0000       0.500878        13.6296 
  92   0.0000       0.510311        13.8863 
  93   0.0000       0.511483        13.9182 
  94   0.0000       0.512613        13.9489 
  95   0.0000       0.521450        14.1894 
  96   0.0000       0.526080        14.3154 
  97   0.0000       0.527279        14.3480 
  98   0.0000       0.532612        14.4931 
  99   0.0000       0.537260        14.6196 
 100   0.0000       0.540171        14.6988 
 101   0.0000       0.548201        14.9173 
 102   0.0000       0.554123        15.0784 
 103   0.0000       0.560098        15.2410 
 104   0.0000       0.569446        15.4954 
 105   0.0000       0.573039        15.5932 
 106   0.0000       0.583499        15.8778 
 107   0.0000       0.589739        16.0476 
 108   0.0000       0.594101        16.1663 
 109   0.0000       0.594130        16.1671 
 110   0.0000       0.596973        16.2445 
 111   0.0000       0.619057        16.8454 
 112   0.0000       0.619435        16.8557 
 113   0.0000       0.632530        17.2120 
 114   0.0000       0.649746        17.6805 
 115   0.0000       0.671981        18.2855 
 116   0.0000       0.684740        18.6327 
 117   0.0000       0.698241        19.0001 
 118   0.0000       0.700132        19.0515 
 119   0.0000       0.707417        19.2498 
 120   0.0000       0.722701        19.6657 
 121   0.0000       0.725541        19.7430 
 122   0.0000       0.733419        19.9573 
 123   0.0000       0.747995        20.3540 
 124   0.0000       0.762341        20.7443 
 125   0.0000       0.764484        20.8027 
 126   0.0000       0.784010        21.3340 
 127   0.0000       0.799601        21.7582 
 128   0.0000       0.840148        22.8616 
 129   0.0000       0.854100        23.2412 
 130   0.0000       0.858805        23.3693 
 131   0.0000       0.868813        23.6416 
 132   0.0000       0.879715        23.9383 
 133   0.0000       0.897655        24.4264 
 134   0.0000       0.924264        25.1505 
 135   0.0000       0.943636        25.6776 
 136   0.0000       0.948012        25.7967 
 137   0.0000       0.957088        26.0437 
 138   0.0000       0.978375        26.6229 
 139   0.0000       0.990786        26.9607 
 140   0.0000       0.994065        27.0499 
 141   0.0000       1.009566        27.4717 
 142   0.0000       1.039608        28.2892 
 143   0.0000       1.039828        28.2952 
 144   0.0000       1.040529        28.3142 
 145   0.0000       1.054620        28.6977 
 146   0.0000       1.071382        29.1538 
 147   0.0000       1.082045        29.4439 
 148   0.0000       1.091771        29.7086 
 149   0.0000       1.104417        30.0527 
 150   0.0000       1.117826        30.4176 
 151   0.0000       1.130629        30.7660 
 152   0.0000       1.149116        31.2690 
 153   0.0000       1.150812        31.3152 
 154   0.0000       1.154529        31.4163 
 155   0.0000       1.172438        31.9037 
 156   0.0000       1.185077        32.2476 
 157   0.0000       1.207179        32.8490 
 158   0.0000       1.243664        33.8418 
 159   0.0000       1.259265        34.2663 
 160   0.0000       1.267093        34.4794 
 161   0.0000       1.280379        34.8409 
 162   0.0000       1.283216        34.9181 
 163   0.0000       1.293153        35.1885 
 164   0.0000       1.297802        35.3150 
 165   0.0000       1.317812        35.8595 
 166   0.0000       1.321239        35.9527 
 167   0.0000       1.335262        36.3343 
 168   0.0000       1.352278        36.7974 
 169   0.0000       1.370973        37.3061 
 170   0.0000       1.372766        37.3549 
 171   0.0000       1.420221        38.6462 
 172   0.0000       1.430366        38.9222 
 173   0.0000       1.433020        38.9945 
 174   0.0000       1.474478        40.1226 
 175   0.0000       1.522596        41.4320 
 176   0.0000       1.524064        41.4719 
 177   0.0000       1.538155        41.8553 
 178   0.0000       1.553499        42.2729 
 179   0.0000       1.587480        43.1975 
 180   0.0000       1.621757        44.1302 
 181   0.0000       1.624352        44.2009 
 182   0.0000       1.627734        44.2929 
 183   0.0000       1.632874        44.4328 
 184   0.0000       1.658274        45.1239 
 185   0.0000       1.663140        45.2563 
 186   0.0000       1.668099        45.3913 
 187   0.0000       1.670158        45.4473 
 188   0.0000       1.671863        45.4937 
 189   0.0000       1.684577        45.8397 
 190   0.0000       1.689069        45.9619 
 191   0.0000       1.690934        46.0127 
 192   0.0000       1.709500        46.5179 
 193   0.0000       1.714981        46.6670 
 194   0.0000       1.715951        46.6934 
 195   0.0000       1.728181        47.0262 
 196   0.0000       1.730785        47.0971 
 197   0.0000       1.752211        47.6801 
 198   0.0000       1.754720        47.7484 
 199   0.0000       1.757695        47.8293 
 200   0.0000       1.766693        48.0742 
 201   0.0000       1.768218        48.1156 
 202   0.0000       1.799875        48.9771 
 203   0.0000       1.801752        49.0282 
 204   0.0000       1.817123        49.4464 
 205   0.0000       1.825054        49.6622 
 206   0.0000       1.831676        49.8425 
 207   0.0000       1.852208        50.4011 
 208   0.0000       1.874046        50.9954 
 209   0.0000       1.874209        50.9998 
 210   0.0000       1.878560        51.1182 
 211   0.0000       1.915081        52.1120 
 212   0.0000       1.921470        52.2859 
 213   0.0000       1.939781        52.7841 
 214   0.0000       1.969664        53.5973 
 215   0.0000       1.991551        54.1929 
 216   0.0000       2.010678        54.7133 
 217   0.0000       2.025370        55.1131 
 218   0.0000       2.032939        55.3191 
 219   0.0000       2.047475        55.7146 
 220   0.0000       2.064772        56.1853 
 221   0.0000       2.088062        56.8190 
 222   0.0000       2.104174        57.2575 
 223   0.0000       2.135410        58.1075 
 224   0.0000       2.151798        58.5534 
 225   0.0000       2.181428        59.3597 
 226   0.0000       2.190212        59.5987 
 227   0.0000       2.205591        60.0172 
 228   0.0000       2.215468        60.2860 
 229   0.0000       2.229562        60.6695 
 230   0.0000       2.232745        60.7561 
 231   0.0000       2.246234        61.1231 
 232   0.0000       2.281651        62.0869 
 233   0.0000       2.284104        62.1536 
 234   0.0000       2.296412        62.4886 
 235   0.0000       2.314333        62.9762 
 236   0.0000       2.336842        63.5887 
 237   0.0000       2.370970        64.5174 
 238   0.0000       2.384851        64.8951 
 239   0.0000       2.386602        64.9428 
 240   0.0000       2.403328        65.3979 
 241   0.0000       2.412762        65.6546 
 242   0.0000       2.414206        65.6939 
 243   0.0000       2.428666        66.0874 
 244   0.0000       2.453243        66.7561 
 245   0.0000       2.460665        66.9581 
 246   0.0000       2.464551        67.0638 
 247   0.0000       2.474232        67.3273 
 248   0.0000       2.478437        67.4417 
 249   0.0000       2.487239        67.6812 
 250   0.0000       2.489922        67.7542 
 251   0.0000       2.500559        68.0437 
 252   0.0000       2.505902        68.1891 
 253   0.0000       2.529774        68.8386 
 254   0.0000       2.539985        69.1165 
 255   0.0000       2.540686        69.1356 
 256   0.0000       2.554201        69.5034 
 257   0.0000       2.580731        70.2253 
 258   0.0000       2.581906        70.2572 
 259   0.0000       2.607903        70.9647 
 260   0.0000       2.635918        71.7270 
 261   0.0000       2.637100        71.7591 
 262   0.0000       2.653779        72.2130 
 263   0.0000       2.666933        72.5709 
 264   0.0000       2.682478        72.9939 
 265   0.0000       2.693948        73.3061 
 266   0.0000       2.698434        73.4281 
 267   0.0000       2.715546        73.8938 
 268   0.0000       2.725466        74.1637 
 269   0.0000       2.731647        74.3319 
 270   0.0000       2.745079        74.6974 
 271   0.0000       2.764142        75.2161 
 272   0.0000       2.765130        75.2430 
 273   0.0000       2.778267        75.6005 
 274   0.0000       2.786420        75.8223 
 275   0.0000       2.801734        76.2391 
 276   0.0000       2.811958        76.5173 
 277   0.0000       2.824054        76.8464 
 278   0.0000       2.837347        77.2081 
 279   0.0000       2.845679        77.4349 
 280   0.0000       2.871389        78.1345 
 281   0.0000       2.873024        78.1790 
 282   0.0000       2.877564        78.3025 
 283   0.0000       2.910434        79.1969 
 284   0.0000       2.938028        79.9478 
 285   0.0000       2.939489        79.9876 
 286   0.0000       2.954828        80.4050 
 287   0.0000       2.960486        80.5589 
 288   0.0000       2.989095        81.3374 
 289   0.0000       3.007795        81.8463 
 290   0.0000       3.014717        82.0346 
 291   0.0000       3.020294        82.1864 
 292   0.0000       3.032151        82.5090 
 293   0.0000       3.052844        83.0721 
 294   0.0000       3.071163        83.5706 
 295   0.0000       3.080244        83.8177 
 296   0.0000       3.110970        84.6538 
 297   0.0000       3.111477        84.6676 
 298   0.0000       3.131075        85.2009 
 299   0.0000       3.135278        85.3153 
 300   0.0000       3.169406        86.2439 
 301   0.0000       3.175735        86.4161 
 302   0.0000       3.211153        87.3799 
 303   0.0000       3.229065        87.8673 
 304   0.0000       3.239127        88.1411 
 305   0.0000       3.239709        88.1570 
 306   0.0000       3.252800        88.5132 
 307   0.0000       3.263649        88.8084 
 308   0.0000       3.265696        88.8641 
 309   0.0000       3.266941        88.8980 
 310   0.0000       3.283644        89.3525 
 311   0.0000       3.283905        89.3596 
 312   0.0000       3.307347        89.9975 
 313   0.0000       3.325259        90.4849 
 314   0.0000       3.329336        90.5958 
 315   0.0000       3.329388        90.5972 
 316   0.0000       3.334647        90.7404 
 317   0.0000       3.346865        91.0728 
 318   0.0000       3.347801        91.0983 
 319   0.0000       3.381895        92.0260 
 320   0.0000       3.398481        92.4774 
 321   0.0000       3.415248        92.9336 
 322   0.0000       3.428954        93.3066 
 323   0.0000       3.429533        93.3223 
 324   0.0000       3.432223        93.3955 
 325   0.0000       3.440957        93.6332 
 326   0.0000       3.452324        93.9425 
 327   0.0000       3.455650        94.0330 
 328   0.0000       3.472187        94.4830 
 329   0.0000       3.473729        94.5250 
 330   0.0000       3.507755        95.4509 
 331   0.0000       3.516512        95.6892 
 332   0.0000       3.522903        95.8631 
 333   0.0000       3.539120        96.3044 
 334   0.0000       3.560615        96.8893 
 335   0.0000       3.571641        97.1893 
 336   0.0000       3.590712        97.7082 
 337   0.0000       3.626956        98.6945 
 338   0.0000       3.646567        99.2281 
 339   0.0000       3.647156        99.2442 
 340   0.0000       3.649695        99.3133 
 341   0.0000       3.651258        99.3558 
 342   0.0000       3.660432        99.6054 
 343   0.0000       3.671175        99.8977 
 344   0.0000       3.678588       100.0995 
 345   0.0000       3.684447       100.2589 
 346   0.0000       3.719266       101.2064 
 347   0.0000       3.732679       101.5714 
 348   0.0000       3.740875       101.7944 
 349   0.0000       3.759264       102.2948 
 350   0.0000       3.762953       102.3952 
 351   0.0000       3.795646       103.2848 
 352   0.0000       3.805250       103.5461 
 353   0.0000       3.815006       103.8116 
 354   0.0000       3.853588       104.8615 
 355   0.0000       3.865107       105.1749 
 356   0.0000       3.919641       106.6588 
 357   0.0000       3.951865       107.5357 
 358   0.0000       4.000497       108.8591 
 359   0.0000       4.000721       108.8652 
 360   0.0000       4.009207       109.0961 
 361   0.0000       4.052885       110.2846 
 362   0.0000       4.089054       111.2688 
 363   0.0000       4.092090       111.3514 
 364   0.0000       4.107425       111.7687 
 365   0.0000       4.121443       112.1502 
 366   0.0000       4.135515       112.5331 
 367   0.0000       4.142672       112.7278 
 368   0.0000       4.144082       112.7662 
 369   0.0000       4.161707       113.2458 
 370   0.0000       4.172841       113.5488 
 371   0.0000       4.174449       113.5925 
 372   0.0000       4.208447       114.5177 
 373   0.0000       4.251171       115.6802 
 374   0.0000       4.312194       117.3408 
 375   0.0000       4.330522       117.8395 
 376   0.0000       4.396289       119.6291 
 377   0.0000       4.399854       119.7261 
 378   0.0000       4.422022       120.3293 
 379   0.0000       4.440300       120.8267 
 380   0.0000       4.462124       121.4206 
 381   0.0000       4.466127       121.5295 
 382   0.0000       4.470953       121.6608 
 383   0.0000       4.475580       121.7867 
 384   0.0000       4.495997       122.3423 
 385   0.0000       4.497335       122.3787 
 386   0.0000       4.526080       123.1609 
 387   0.0000       4.527774       123.2070 
 388   0.0000       4.548596       123.7736 
 389   0.0000       4.554004       123.9208 
 390   0.0000       4.653438       126.6265 
 391   0.0000       4.659414       126.7891 
 392   0.0000       4.676874       127.2642 
 393   0.0000       4.760203       129.5317 
 394   0.0000       4.800003       130.6147 
 395   0.0000       4.814036       130.9966 
 396   0.0000       4.867127       132.4413 
 397   0.0000       4.883875       132.8970 
 398   0.0000       4.924617       134.0056 
 399   0.0000       4.933748       134.2541 
 400   0.0000       4.952337       134.7599 
 401   0.0000       5.011915       136.3811 
 402   0.0000       5.044134       137.2579 
 403   0.0000       5.049421       137.4017 
 404   0.0000       5.099222       138.7569 
 405   0.0000       5.153560       140.2355 
 406   0.0000       5.204288       141.6159 
 407   0.0000       5.218521       142.0032 
 408   0.0000       5.256894       143.0474 
 409   0.0000       5.295713       144.1037 
 410   0.0000       5.351433       145.6199 
 411   0.0000       5.358536       145.8132 
 412   0.0000       5.463122       148.6591 
 413   0.0000       5.467396       148.7754 
 414   0.0000       5.489579       149.3790 
 415   0.0000       5.496430       149.5655 
 416   0.0000       5.608312       152.6099 
 417   0.0000       5.648360       153.6997 
 418   0.0000       5.722382       155.7139 
 419   0.0000       5.840284       158.9222 
 420   0.0000       5.880545       160.0178 
 421   0.0000       5.902600       160.6179 
 422   0.0000       6.053762       164.7312 
 423   0.0000       6.097359       165.9176 
 424   0.0000       6.097496       165.9213 
 425   0.0000       6.274800       170.7460 
 426   0.0000      22.399321       609.5165 
 427   0.0000      22.411196       609.8396 
 428   0.0000      22.416256       609.9773 
 429   0.0000      22.443663       610.7231 
 430   0.0000      22.456508       611.0727 
 431   0.0000      22.689535       617.4136 
 432   0.0000      22.762717       619.4050 
 433   0.0000      22.817652       620.8999 
 434   0.0000      22.975704       625.2007 
 435   0.0000      32.969465       897.1447 
 436   0.0000      33.188065       903.0932 

                    ********************************
                    * MULLIKEN POPULATION ANALYSIS *
                    ********************************

-----------------------
MULLIKEN ATOMIC CHARGES
-----------------------
   0 C :   -0.030413
   1 C :   -0.030427
   2 N :    0.001721
   3 N :    0.001758
   4 C :   -0.182645
   5 C :   -0.182684
   6 C :   -0.343343
   7 C :   -0.385981
   8 C :   -0.385987
   9 C :   -0.385985
  10 C :   -0.385995
  11 H :    0.220632
  12 H :    0.220627
  13 H :    0.121021
  14 H :    0.121021
  15 H :    0.130800
  16 H :    0.130795
  17 H :    0.130803
  18 H :    0.130803
  19 H :    0.140735
  20 H :    0.140742
  21 H :    0.140737
  22 H :    0.140740
  23 H :    0.135129
  24 H :    0.135134
  25 H :    0.135130
  26 H :    0.135131
Sum of atomic charges:    0.0000000

--------------------------------
MULLIKEN REDUCED ORBITAL CHARGES
--------------------------------
  0 C s       :     3.179347  s :     3.179347
      pz      :     1.005548  p :     2.687734
      px      :     0.935912
      py      :     0.746274
      dz2     :     0.031983  d :     0.153135
      dxz     :     0.018960
      dyz     :     0.018188
      dx2y2   :     0.041153
      dxy     :     0.042851
      f0      :     0.001088  f :     0.010197
      f+1     :     0.000846
      f-1     :     0.001037
      f+2     :     0.001320
      f-2     :     0.001110
      f+3     :     0.003231
      f-3     :     0.001564
  1 C s       :     3.179347  s :     3.179347
      pz      :     1.005545  p :     2.687747
      px      :     0.935913
      py      :     0.746289
      dz2     :     0.031986  d :     0.153137
      dxz     :     0.018960
      dyz     :     0.018187
      dx2y2   :     0.041153
      dxy     :     0.042850
      f0      :     0.001088  f :     0.010197
      f+1     :     0.000846
      f-1     :     0.001037
      f+2     :     0.001321
      f-2     :     0.001110
      f+3     :     0.003231
      f-3     :     0.001564
  2 N s       :     3.449698  s :     3.449698
      pz      :     1.020772  p :     3.440760
      px      :     1.430040
      py      :     0.989948
      dz2     :     0.027839  d :     0.102300
      dxz     :     0.017149
      dyz     :     0.027892
      dx2y2   :     0.016012
      dxy     :     0.013408
      f0      :     0.000718  f :     0.005521
      f+1     :     0.000642
      f-1     :     0.001309
      f+2     :     0.000762
      f-2     :     0.000505
      f+3     :     0.000792
      f-3     :     0.000792
  3 N s       :     3.449686  s :     3.449686
      pz      :     1.020785  p :     3.440740
      px      :     1.430038
      py      :     0.989917
      dz2     :     0.027836  d :     0.102296
      dxz     :     0.017149
      dyz     :     0.027890
      dx2y2   :     0.016012
      dxy     :     0.013409
      f0      :     0.000718  f :     0.005521
      f+1     :     0.000642
      f-1     :     0.001309
      f+2     :     0.000762
      f-2     :     0.000505
      f+3     :     0.000792
      f-3     :     0.000792
  4 C s       :     3.177870  s :     3.177870
      pz      :     0.827332  p :     2.893572
      px      :     1.060484
      py      :     1.005756
      dz2     :     0.017528  d :     0.099897
      dxz     :     0.020600
      dyz     :     0.032730
      dx2y2   :     0.008940
      dxy     :     0.020099
      f0      :     0.002377  f :     0.011306
      f+1     :     0.002244
      f-1     :     0.001955
      f+2     :     0.001666
      f-2     :     0.000364
      f+3     :     0.002063
      f-3     :     0.000637
  5 C s       :     3.177918  s :     3.177918
      pz      :     0.827340  p :     2.893564
      px      :     1.060483
      py      :     1.005741
      dz2     :     0.017529  d :     0.099896
      dxz     :     0.020600
      dyz     :     0.032726
      dx2y2   :     0.008942
      dxy     :     0.020098
      f0      :     0.002377  f :     0.011306
      f+1     :     0.002244
      f-1     :     0.001954
      f+2     :     0.001666
      f-2     :     0.000364
      f+3     :     0.002063
      f-3     :     0.000637
  6 C s       :     3.678132  s :     3.678132
      pz      :     1.158511  p :     2.542905
      px      :     0.729333
      py      :     0.655061
      dz2     :     0.015443  d :     0.108761
      dxz     :     0.019744
      dyz     :     0.030847
      dx2y2   :     0.010423
      dxy     :     0.032304
      f0      :     0.001381  f :     0.013544
      f+1     :     0.000424
      f-1     :     0.003513
      f+2     :     0.001909
      f-2     :     0.003613
      f+3     :     0.001765
      f-3     :     0.000938
  7 C s       :     3.295984  s :     3.295984
      pz      :     1.042490  p :     3.039197
      px      :     0.958054
      py      :     1.038653
      dz2     :     0.013619  d :     0.047957
      dxz     :     0.007181
      dyz     :     0.004874
      dx2y2   :     0.013504
      dxy     :     0.008780
      f0      :     0.000782  f :     0.002843
      f+1     :     0.000341
      f-1     :     0.000141
      f+2     :     0.000004
      f-2     :     0.000209
      f+3     :     0.000642
      f-3     :     0.000723
  8 C s       :     3.296007  s :     3.296007
      pz      :     1.042486  p :     3.039178
      px      :     0.958047
      py      :     1.038646
      dz2     :     0.013620  d :     0.047958
      dxz     :     0.007181
      dyz     :     0.004875
      dx2y2   :     0.013503
      dxy     :     0.008780
      f0      :     0.000782  f :     0.002843
      f+1     :     0.000341
      f-1     :     0.000141
      f+2     :     0.000004
      f-2     :     0.000209
      f+3     :     0.000642
      f-3     :     0.000723
  9 C s       :     3.295985  s :     3.295985
      pz      :     1.042487  p :     3.039199
      px      :     0.958057
      py      :     1.038655
      dz2     :     0.013620  d :     0.047958
      dxz     :     0.007181
      dyz     :     0.004874
      dx2y2   :     0.013503
      dxy     :     0.008781
      f0      :     0.000782  f :     0.002843
      f+1     :     0.000341
      f-1     :     0.000141
      f+2     :     0.000004
      f-2     :     0.000209
      f+3     :     0.000642
      f-3     :     0.000723
 10 C s       :     3.296023  s :     3.296023
      pz      :     1.042482  p :     3.039172
      px      :     0.958047
      py      :     1.038644
      dz2     :     0.013620  d :     0.047958
      dxz     :     0.007181
      dyz     :     0.004873
      dx2y2   :     0.013503
      dxy     :     0.008781
      f0      :     0.000782  f :     0.002843
      f+1     :     0.000341
      f-1     :     0.000141
      f+2     :     0.000004
      f-2     :     0.000209
      f+3     :     0.000642
      f-3     :     0.000723
 11 H s       :     0.756843  s :     0.756843
      pz      :     0.009816  p :     0.022525
      px      :     0.004703
      py      :     0.008006
 12 H s       :     0.756849  s :     0.756849
      pz      :     0.009816  p :     0.022524
      px      :     0.004703
      py      :     0.008006
 13 H s       :     0.856122  s :     0.856122
      pz      :     0.015654  p :     0.022858
      px      :     0.003881
      py      :     0.003322
 14 H s       :     0.856122  s :     0.856122
      pz      :     0.015654  p :     0.022858
      px      :     0.003881
      py      :     0.003322
[...]
     68      -0.066398   0.033451  -0.031783   0.144302  -0.145887   0.153836
     69       0.217618  -0.243022  -0.245787  -0.260076  -0.257273   0.217231
     70      -0.132833   0.145538   0.147161   0.151003   0.149374  -0.125957
     71       0.079269  -0.090784  -0.091918  -0.105383  -0.104240   0.088833
     72       0.217611   0.243007   0.245776  -0.260088  -0.257288  -0.217235
     73       0.132828   0.145529   0.147154  -0.151010  -0.149383  -0.125959
     74      -0.079269  -0.090780  -0.091915   0.105390   0.104248   0.088837
     75      -0.216440  -0.243062   0.245742  -0.257256   0.260084   0.216598
     76       0.132112   0.145560  -0.147132   0.149364  -0.151005  -0.125589
     77       0.078841   0.090799  -0.091901   0.104241  -0.105380  -0.088575
     78      -0.216441   0.243048  -0.245727  -0.257277   0.260099  -0.216588
     79      -0.132115   0.145554  -0.147125  -0.149378   0.151016  -0.125585
     80      -0.078844   0.090797  -0.091899  -0.104253   0.105389  -0.088573
                 78         79         80    
      0       0.000000  -0.000000   0.000000
      1       0.001018   0.000297   0.000182
      2       0.005492  -0.000191  -0.000525
      3      -0.000000   0.000000   0.000000
      4      -0.001021   0.000297  -0.000182
      5       0.005507   0.000191  -0.000525
      6      -0.000000   0.000000   0.000000
      7      -0.000420   0.000120   0.000709
      8       0.000014   0.000415   0.002468
      9       0.000000   0.000000  -0.000000
     10       0.000421   0.000120  -0.000709
     11       0.000014  -0.000415   0.002468
     12       0.000000  -0.000000  -0.000000
     13      -0.000087   0.038909   0.048852
     14      -0.000275  -0.047559  -0.047633
     15      -0.000000  -0.000000   0.000000
     16       0.000087   0.038908  -0.048852
     17      -0.000276   0.047559  -0.047633
     18      -0.000000  -0.000000   0.000000
     19       0.000001  -0.001766  -0.000000
     20       0.000169  -0.000000   0.001061
     21      -0.017088  -0.000092  -0.000074
     22       0.040897   0.000088   0.000045
     23       0.012841  -0.000587  -0.000512
     24       0.017089   0.000092   0.000074
     25       0.040898   0.000088   0.000045
     26       0.012840  -0.000587  -0.000512
     27       0.017141  -0.000092   0.000074
     28      -0.041022   0.000088  -0.000045
     29       0.012878   0.000587  -0.000512
     30      -0.017140   0.000092  -0.000074
     31      -0.041020   0.000088  -0.000045
     32       0.012877   0.000587  -0.000512
     33       0.000000   0.000001   0.000001
     34      -0.000927  -0.457701  -0.462180
     35       0.000996   0.535375   0.530705
     36       0.000000   0.000001  -0.000001
     37       0.000928  -0.457699   0.462182
     38       0.000998  -0.535373   0.530707
     39      -0.000000  -0.000000   0.000000
     40       0.002335  -0.001017  -0.001824
     41      -0.059878  -0.001656   0.001287
     42       0.000000  -0.000000   0.000000
     43      -0.002341  -0.001017   0.001824
     44      -0.060042   0.001656   0.001287
     45       0.000111  -0.000319  -0.000220
     46       0.012845  -0.000410  -0.000274
     47      -0.088443   0.006858   0.005721
     48      -0.000111   0.000319   0.000220
     49       0.012845  -0.000410  -0.000274
     50      -0.088438   0.006857   0.005721
     51      -0.000110  -0.000319   0.000220
     52      -0.012883  -0.000410   0.000274
     53      -0.088694  -0.006857   0.005721
     54       0.000111   0.000319  -0.000220
     55      -0.012882  -0.000410   0.000274
     56      -0.088689  -0.006857   0.005721
     57      -0.007881  -0.000192  -0.000164
     58      -0.380600   0.000455   0.000603
     59      -0.154257   0.000596   0.000543
     60       0.007879   0.000192   0.000164
     61      -0.380603   0.000455   0.000603
     62      -0.154259   0.000596   0.000543
     63       0.007903  -0.000192   0.000164
     64       0.381755   0.000456  -0.000603
     65      -0.154725  -0.000596   0.000543
     66      -0.007903   0.000192  -0.000164
     67       0.381731   0.000455  -0.000603
     68      -0.154714  -0.000596   0.000543
     69       0.213608   0.001643   0.001242
     70      -0.123800  -0.000889  -0.000687
     71       0.087444   0.000597   0.000450
     72      -0.213618  -0.001643  -0.001242
     73      -0.123805  -0.000889  -0.000687
     74       0.087450   0.000597   0.000450
     75      -0.214277   0.001643  -0.001242
     76       0.124186  -0.000889   0.000687
     77       0.087718  -0.000597   0.000450
     78       0.214263  -0.001643   0.001242
     79       0.124180  -0.000889   0.000687
     80       0.087715  -0.000597   0.000450


-----------
IR SPECTRUM
-----------

 Mode   freq       eps      Int      T**2         TX        TY        TZ
       cm**-1   L/(mol*cm) km/mol    a.u.
----------------------------------------------------------------------------
  6:     25.26   0.000003    0.02  0.000042  (-0.006467  0.000000 -0.000000)
  7:     29.13   0.000000    0.00  0.000000  ( 0.000001  0.000000  0.000000)
  8:    115.80   0.004277   21.61  0.011526  ( 0.107357  0.000001  0.000001)
  9:    145.17   0.000000    0.00  0.000000  (-0.000000  0.000000  0.000000)
 10:    161.70   0.000575    2.91  0.001110  (-0.000001  0.000000  0.033324)
 11:    225.48   0.000177    0.90  0.000245  ( 0.015667 -0.000000 -0.000001)
 12:    225.53   0.000000    0.00  0.000000  ( 0.000133  0.000001  0.000000)
 13:    246.50   0.000059    0.30  0.000075  ( 0.000000  0.008669 -0.000001)
 14:    255.44   0.000015    0.08  0.000019  (-0.000000 -0.000001 -0.004343)
 15:    269.66   0.000004    0.02  0.000004  ( 0.000000  0.000000  0.002046)
 16:    300.30   0.001144    5.78  0.001188  (-0.000000  0.034474  0.000000)
 17:    355.94   0.000744    3.76  0.000653  (-0.000000  0.025548 -0.000000)
 18:    404.50   0.004681   23.65  0.003611  (-0.060092 -0.000000 -0.000000)
 19:    445.25   0.000000    0.00  0.000000  (-0.000000 -0.000000 -0.000000)
 20:    458.12   0.000005    0.02  0.000003  ( 0.000000 -0.000000  0.001831)
 21:    572.67   0.003353   16.95  0.001827  ( 0.000000 -0.042747 -0.000000)
 22:    634.32   0.000073    0.37  0.000036  (-0.000000  0.000000  0.005981)
 23:    671.54   0.001593    8.05  0.000740  ( 0.027210 -0.000000  0.000000)
 24:    682.02   0.000000    0.00  0.000000  ( 0.000000  0.000006 -0.000000)
 25:    687.26   0.002703   13.66  0.001227  (-0.000001 -0.035031 -0.000000)
 26:    759.33   0.019640   99.25  0.008071  ( 0.089841 -0.000000 -0.000000)
 27:    887.38   0.000000    0.00  0.000000  ( 0.000000  0.000000  0.000000)
 28:    905.11   0.002701   13.65  0.000931  ( 0.000000  0.030519 -0.000000)
 29:    908.55   0.000439    2.22  0.000151  ( 0.000000 -0.000001 -0.012281)
 30:    941.75   0.000000    0.00  0.000000  (-0.000067 -0.000000 -0.000000)
 31:    941.85   0.000503    2.54  0.000167  ( 0.012913  0.000000 -0.000000)
 32:    962.08   0.000041    0.21  0.000013  ( 0.003629  0.000000  0.000000)
 33:    962.12   0.000000    0.00  0.000000  ( 0.000028 -0.000000 -0.000000)
 34:   1021.39   0.002126   10.74  0.000650  (-0.000000 -0.025486 -0.000000)
 35:   1027.52   0.000030    0.15  0.000009  (-0.000000 -0.000001  0.003017)
 36:   1077.63   0.000298    1.50  0.000086  (-0.000000 -0.009286 -0.000000)
 37:   1100.40   0.000004    0.02  0.000001  ( 0.000000  0.000000  0.000998)
 38:   1114.71   0.003767   19.03  0.001054  (-0.000000  0.000000 -0.032472)
 39:   1166.77   0.000000    0.00  0.000000  ( 0.000004 -0.000000  0.000000)
 40:   1167.40   0.005019   25.36  0.001342  (-0.036628 -0.000000 -0.000000)
 41:   1196.61   0.000065    0.33  0.000017  ( 0.000000  0.000000  0.004122)
 42:   1202.75   0.000079    0.40  0.000021  (-0.000000  0.004537 -0.000000)
 43:   1251.98   0.040556  204.95  0.010109  ( 0.000000  0.100542 -0.000000)
 44:   1312.28   0.001635    8.26  0.000389  (-0.000000  0.019715  0.000000)
 45:   1326.11   0.000974    4.92  0.000229  ( 0.000000 -0.000000  0.015139)
 46:   1364.62   0.000000    0.00  0.000000  ( 0.000006 -0.000000  0.000000)
 47:   1365.13   0.000441    2.23  0.000101  (-0.010045 -0.000000  0.000000)
 48:   1395.02   0.001621    8.19  0.000363  ( 0.000000 -0.000000 -0.019043)
 49:   1407.16   0.000000    0.00  0.000000  ( 0.000081  0.000001 -0.000000)
 50:   1407.32   0.008990   45.43  0.001993  (-0.044648  0.000001 -0.000000)
 51:   1408.69   0.003501   17.69  0.000776  (-0.000001 -0.027848  0.000000)
 52:   1416.04   0.000437    2.21  0.000096  (-0.000001 -0.000001  0.009818)
 53:   1423.20   0.015416   77.90  0.003380  (-0.000000  0.058139 -0.000000)
 54:   1441.22   0.004218   21.31  0.000913  (-0.000000  0.000000  0.030220)
 55:   1471.45   0.000000    0.00  0.000000  ( 0.000065 -0.000002  0.000000)
 56:   1471.46   0.000008    0.04  0.000002  (-0.001268 -0.000020  0.000000)
 57:   1471.66   0.017216   87.01  0.003651  (-0.000000 -0.060421 -0.000001)
 58:   1480.63   0.000953    4.82  0.000201  (-0.014173  0.000001  0.000000)
 59:   1480.66   0.000000    0.00  0.000000  (-0.000022  0.000000  0.000001)
 60:   1485.65   0.007948   40.17  0.001670  (-0.000000 -0.000012  0.040860)
 61:   1486.02   0.002196   11.10  0.000461  ( 0.000000 -0.021476 -0.000022)
 62:   1493.43   0.000005    0.03  0.000001  (-0.000000  0.001037  0.000000)
 63:   1495.61   0.001162    5.87  0.000242  ( 0.000000 -0.000000  0.015568)
 64:   1637.69   0.000101    0.51  0.000019  ( 0.000000  0.000000 -0.004384)
 65:   3062.70   0.000000    0.00  0.000000  ( 0.000070  0.000000  0.000000)
 66:   3062.71   0.012157   61.44  0.001239  ( 0.035195 -0.000001 -0.000000)
 67:   3065.52   0.003836   19.38  0.000390  ( 0.000001  0.019760 -0.000002)
 68:   3065.66   0.002753   13.91  0.000280  (-0.000000 -0.000002 -0.016741)
 69:   3114.20   0.000423    2.14  0.000042  (-0.000000 -0.000001  0.006510)
 70:   3114.44   0.000133    0.67  0.000013  ( 0.000000  0.003645  0.000001)
 71:   3139.96   0.005128   25.92  0.000510  (-0.022576  0.000001 -0.000001)
 72:   3139.98   0.000000    0.00  0.000000  (-0.000061  0.000000  0.000000)
 73:   3147.16   0.000010    0.05  0.000001  ( 0.000001 -0.001010 -0.000005)
 74:   3147.27   0.025938  131.08  0.002572  (-0.000000 -0.000001  0.050714)
 75:   3152.42   0.006437   32.53  0.000637  ( 0.025243  0.000001 -0.000001)
 76:   3152.43   0.000000    0.00  0.000000  (-0.000137 -0.000001 -0.000001)
 77:   3155.06   0.021843  110.38  0.002160  ( 0.000000  0.046480  0.000024)
 78:   3155.14   0.002390   12.08  0.000236  ( 0.000001 -0.000070  0.015376)
 79:   3284.22   0.001090    5.51  0.000104  (-0.000000 -0.010175 -0.000000)
 80:   3304.20   0.000075    0.38  0.000007  ( 0.000000  0.000000  0.002653)

* The epsilon (eps) is given for a Dirac delta lineshape.
** The dipole moment derivative (T) already includes vibrational overlap.

The first frequency considered to be a vibration is 6
The total number of vibrations considered is 75


--------------------------
THERMOCHEMISTRY AT 298.15K
--------------------------

Temperature         ... 298.15 K
Pressure            ... 1.00 atm
Total Mass          ... 152.24 AMU

Throughout the following assumptions are being made:
  (1) The electronic state is orbitally nondegenerate
  (2) There are no thermally accessible electronically excited states
  (3) Hindered rotations indicated by low frequency modes are not
      treated as such but are treated as vibrations and this may
      cause some error
  (4) All equations used are the standard statistical mechanics
      equations for an ideal gas
  (5) All vibrations are strictly harmonic

freq.      25.26  E(vib)   ...       0.56 
freq.      29.13  E(vib)   ...       0.55 
freq.     115.80  E(vib)   ...       0.44 
freq.     145.17  E(vib)   ...       0.41 
freq.     161.70  E(vib)   ...       0.39 
freq.     225.48  E(vib)   ...       0.33 
freq.     225.53  E(vib)   ...       0.33 
freq.     246.50  E(vib)   ...       0.31 
freq.     255.44  E(vib)   ...       0.30 
freq.     269.66  E(vib)   ...       0.29 
freq.     300.30  E(vib)   ...       0.26 
freq.     355.94  E(vib)   ...       0.22 
freq.     404.50  E(vib)   ...       0.19 
freq.     445.25  E(vib)   ...       0.17 
freq.     458.12  E(vib)   ...       0.16 
freq.     572.67  E(vib)   ...       0.11 
freq.     634.32  E(vib)   ...       0.09 
freq.     671.54  E(vib)   ...       0.08 
freq.     682.02  E(vib)   ...       0.08 
freq.     687.26  E(vib)   ...       0.07 
freq.     759.33  E(vib)   ...       0.06 
freq.     887.38  E(vib)   ...       0.04 
freq.     905.11  E(vib)   ...       0.03 
freq.     908.55  E(vib)   ...       0.03 
freq.     941.75  E(vib)   ...       0.03 
freq.     941.85  E(vib)   ...       0.03 
freq.     962.08  E(vib)   ...       0.03 
freq.     962.12  E(vib)   ...       0.03 
freq.    1021.39  E(vib)   ...       0.02 
freq.    1027.52  E(vib)   ...       0.02 
freq.    1077.63  E(vib)   ...       0.02 
freq.    1100.40  E(vib)   ...       0.02 
freq.    1114.71  E(vib)   ...       0.01 
freq.    1166.77  E(vib)   ...       0.01 
freq.    1167.40  E(vib)   ...       0.01 
freq.    1196.61  E(vib)   ...       0.01 
freq.    1202.75  E(vib)   ...       0.01 
freq.    1251.98  E(vib)   ...       0.01 
freq.    1312.28  E(vib)   ...       0.01 
freq.    1326.11  E(vib)   ...       0.01 
freq.    1364.62  E(vib)   ...       0.01 
freq.    1365.13  E(vib)   ...       0.01 
freq.    1395.02  E(vib)   ...       0.00 
freq.    1407.16  E(vib)   ...       0.00 
freq.    1407.32  E(vib)   ...       0.00 
freq.    1408.69  E(vib)   ...       0.00 
freq.    1416.04  E(vib)   ...       0.00 
freq.    1423.20  E(vib)   ...       0.00 
freq.    1441.22  E(vib)   ...       0.00 
freq.    1471.45  E(vib)   ...       0.00 
freq.    1471.46  E(vib)   ...       0.00 
freq.    1471.66  E(vib)   ...       0.00 
freq.    1480.63  E(vib)   ...       0.00 
freq.    1480.66  E(vib)   ...       0.00 
freq.    1485.65  E(vib)   ...       0.00 
freq.    1486.02  E(vib)   ...       0.00 
freq.    1493.43  E(vib)   ...       0.00 
freq.    1495.61  E(vib)   ...       0.00 
freq.    1637.69  E(vib)   ...       0.00 
freq.    3062.70  E(vib)   ...       0.00 
freq.    3062.71  E(vib)   ...       0.00 
freq.    3065.52  E(vib)   ...       0.00 
freq.    3065.66  E(vib)   ...       0.00 
freq.    3114.20  E(vib)   ...       0.00 
freq.    3114.44  E(vib)   ...       0.00 
freq.    3139.96  E(vib)   ...       0.00 
freq.    3139.98  E(vib)   ...       0.00 
freq.    3147.16  E(vib)   ...       0.00 
freq.    3147.27  E(vib)   ...       0.00 
freq.    3152.42  E(vib)   ...       0.00 
freq.    3152.43  E(vib)   ...       0.00 
freq.    3155.06  E(vib)   ...       0.00 
freq.    3155.14  E(vib)   ...       0.00 
freq.    3284.22  E(vib)   ...       0.00 
freq.    3304.20  E(vib)   ...       0.00 

------------
INNER ENERGY
------------

The inner energy is: U= E(el) + E(ZPE) + E(vib) + E(rot) + E(trans)
    E(el)   - is the total energy from the electronic structure calculation
              = E(kin-el) + E(nuc-el) + E(el-el) + E(nuc-nuc)
    E(ZPE)  - the the zero temperature vibrational energy from the frequency calculation
    E(vib)  - the the finite temperature correction to E(ZPE) due to population
              of excited vibrational states
    E(rot)  - is the rotational thermal energy
    E(trans)- is the translational thermal energy

Summary of contributions to the inner energy U:
Electronic energy                ...   -462.12739621 Eh
Zero point energy                ...      0.24151098 Eh     151.55 kcal/mol
Thermal vibrational correction   ...      0.00930150 Eh       5.84 kcal/mol
Thermal rotational correction    ...      0.00141627 Eh       0.89 kcal/mol
Thermal translational correction ...      0.00141627 Eh       0.89 kcal/mol
-----------------------------------------------------------------------
Total thermal energy                   -461.87375119 Eh


Summary of corrections to the electronic energy:
(perhaps to be used in another calculation)
Total thermal correction                  0.01213405 Eh       7.61 kcal/mol
Non-thermal (ZPE) correction              0.24151098 Eh     151.55 kcal/mol
-----------------------------------------------------------------------
Total correction                          0.25364502 Eh     159.16 kcal/mol


--------
ENTHALPY
--------

The enthalpy is H = U + kB*T
                kB is Boltzmann's constant
Total free energy                 ...   -461.87375119 Eh 
Thermal Enthalpy correction       ...      0.00094421 Eh       0.59 kcal/mol
-----------------------------------------------------------------------
Total Enthalpy                    ...   -461.87280698 Eh


Note: Rotational entropy computed according to Herzberg 
Infrared and Raman Spectra, Chapter V,1, Van Nostrand Reinhold, 1945 
Point Group:  C2v, Symmetry Number:   2  
Rotational constants in cm-1:     0.091995     0.018715     0.018027 

Vibrational entropy computed according to the QRRHO of S. Grimme
Chem.Eur.J. 2012 18 9955


-------
ENTROPY
-------

The entropy contributions are T*S = T*(S(el)+S(vib)+S(rot)+S(trans))
     S(el)   - electronic entropy
     S(vib)  - vibrational entropy
     S(rot)  - rotational entropy
     S(trans)- translational entropy
The entropies will be listed as multiplied by the temperature to get
units of energy

Electronic entropy                ...      0.00000000 Eh      0.00 kcal/mol
Vibrational entropy               ...      0.01635860 Eh     10.27 kcal/mol
Rotational entropy                ...      0.01375681 Eh      8.63 kcal/mol
Translational entropy             ...      0.01946649 Eh     12.22 kcal/mol
-----------------------------------------------------------------------
Final entropy term                ...      0.04958190 Eh     31.11 kcal/mol

In case the symmetry of your molecule has not been determined correctly
or in case you have a reason to use a different symmetry number we print 
out the resulting rotational entropy values for sn=1,12 :
 --------------------------------------------------------
|  sn= 1 | S(rot)=       0.01441127 Eh      9.04 kcal/mol|
|  sn= 2 | S(rot)=       0.01375681 Eh      8.63 kcal/mol|
|  sn= 3 | S(rot)=       0.01337398 Eh      8.39 kcal/mol|
|  sn= 4 | S(rot)=       0.01310236 Eh      8.22 kcal/mol|
|  sn= 5 | S(rot)=       0.01289167 Eh      8.09 kcal/mol|
|  sn= 6 | S(rot)=       0.01271952 Eh      7.98 kcal/mol|
|  sn= 7 | S(rot)=       0.01257398 Eh      7.89 kcal/mol|
|  sn= 8 | S(rot)=       0.01244790 Eh      7.81 kcal/mol|
|  sn= 9 | S(rot)=       0.01233669 Eh      7.74 kcal/mol|
|  sn=10 | S(rot)=       0.01223721 Eh      7.68 kcal/mol|
|  sn=11 | S(rot)=       0.01214722 Eh      7.62 kcal/mol|
|  sn=12 | S(rot)=       0.01206507 Eh      7.57 kcal/mol|
 --------------------------------------------------------


-------------------
GIBBS FREE ENERGY
-------------------

The Gibbs free energy is G = H - T*S

Total enthalpy                    ...   -461.87280698 Eh 
Total entropy correction          ...     -0.04958190 Eh    -31.11 kcal/mol
-----------------------------------------------------------------------
Final Gibbs free energy         ...   -461.92238888 Eh

For completeness - the Gibbs free energy minus the electronic energy
G-E(el)                           ...      0.20500733 Eh    128.64 kcal/mol


Timings for individual modules:

Sum of individual times         ...     3011.212 sec (=  50.187 min)
GTO integral calculation        ...        4.297 sec (=   0.072 min)   0.1 %
SCF iterations                  ...      885.789 sec (=  14.763 min)  29.4 %
SCF Gradient evaluation         ...      218.957 sec (=   3.649 min)   7.3 %
Geometry relaxation             ...        0.276 sec (=   0.005 min)   0.0 %
Analytical frequency calculation...     1901.892 sec (=  31.698 min)  63.2 %
                             ****ORCA TERMINATED NORMALLY****
TOTAL RUN TIME: 0 days 0 hours 50 minutes 13 seconds 348 msec
