
                                 *****************
                                 * O   R   C   A *
                                 *****************

                                            #,                                       
                                            ###                                      
                                            ####                                     
                                            #####                                    
                                            ######                                   
                                           ########,                                 
                                     ,,################,,,,,                         
                               ,,#################################,,                 
                          ,,##########################################,,             
                       ,#########################################, ''#####,          
                    ,#############################################,,   '####,        
                  ,##################################################,,,,####,       
                ,###########''''           ''''###############################       
              ,#####''   ,,,,##########,,,,          '''####'''          '####       
            ,##' ,,,,###########################,,,                        '##       
           ' ,,###''''                  '''############,,,                           
         ,,##''                                '''############,,,,        ,,,,,,###''
      ,#''                                            '''#######################'''  
     '                                                          ''''####''''         
             ,#######,   #######,   ,#######,      ##                                
            ,#'     '#,  ##    ##  ,#'     '#,    #''#        ######   ,####,        
            ##       ##  ##   ,#'  ##            #'  '#       #        #'  '#        
            ##       ##  #######   ##           ,######,      #####,   #    #        
            '#,     ,#'  ##    ##  '#,     ,#' ,#      #,         ##   #,  ,#        
             '#######'   ##     ##  '#######'  #'      '#     #####' # '####'        



                  #######################################################
                  #                        -***-                        #
                  #          Department of theory and spectroscopy      #
                  #    Directorship and core code : Frank Neese         #
                  #        Max Planck Institute fuer Kohlenforschung    #
                  #                Kaiser Wilhelm Platz 1               #
                  #                 D-45470 Muelheim/Ruhr               #
                  #                      Germany                        #
                  #                                                     #
                  #                  All rights reserved                #
                  #                        -***-                        #
                  #######################################################


                         Program Version 5.0.4 -  RELEASE  -


 With contributions from (in alphabetic order):
   Daniel Aravena         : Magnetic Suceptibility
   Michael Atanasov       : Ab Initio Ligand Field Theory (pilot matlab implementation)
   Alexander A. Auer      : GIAO ZORA, VPT2 properties, NMR spectrum
   Ute Becker             : Parallelization
   Giovanni Bistoni       : ED, misc. LED, open-shell LED, HFLD
   Martin Brehm           : Molecular dynamics
   Dmytro Bykov           : SCF Hessian
   Vijay G. Chilkuri      : MRCI spin determinant printing, contributions to CSF-ICE
   Dipayan Datta          : RHF DLPNO-CCSD density
   Achintya Kumar Dutta   : EOM-CC, STEOM-CC
   Dmitry Ganyushin       : Spin-Orbit,Spin-Spin,Magnetic field MRCI
   Miquel Garcia          : C-PCM and meta-GGA Hessian, CC/C-PCM, Gaussian charge scheme
   Yang Guo               : DLPNO-NEVPT2, F12-NEVPT2, CIM, IAO-localization
   Andreas Hansen         : Spin unrestricted coupled pair/coupled cluster methods
   Benjamin Helmich-Paris : MC-RPA, TRAH-SCF, COSX integrals
   Lee Huntington         : MR-EOM, pCC
   Robert Izsak           : Overlap fitted RIJCOSX, COSX-SCS-MP3, EOM
   Marcus Kettner         : VPT2
   Christian Kollmar      : KDIIS, OOCD, Brueckner-CCSD(T), CCSD density, CASPT2, CASPT2-K
   Simone Kossmann        : Meta GGA functionals, TD-DFT gradient, OOMP2, MP2 Hessian
   Martin Krupicka        : Initial AUTO-CI
   Lucas Lang             : DCDCAS
   Marvin Lechner         : AUTO-CI (C++ implementation), FIC-MRCC
   Dagmar Lenk            : GEPOL surface, SMD
   Dimitrios Liakos       : Extrapolation schemes; Compound Job, initial MDCI parallelization
   Dimitrios Manganas     : Further ROCIS development; embedding schemes
   Dimitrios Pantazis     : SARC Basis sets
   Anastasios Papadopoulos: AUTO-CI, single reference methods and gradients
   Taras Petrenko         : DFT Hessian,TD-DFT gradient, ASA, ECA, R-Raman, ABS, FL, XAS/XES, NRVS
   Peter Pinski           : DLPNO-MP2, DLPNO-MP2 Gradient
   Christoph Reimann      : Effective Core Potentials
   Marius Retegan         : Local ZFS, SOC
   Christoph Riplinger    : Optimizer, TS searches, QM/MM, DLPNO-CCSD(T), (RO)-DLPNO pert. Triples
   Tobias Risthaus        : Range-separated hybrids, TD-DFT gradient, RPA, STAB
   Michael Roemelt        : Original ROCIS implementation
   Masaaki Saitow         : Open-shell DLPNO-CCSD energy and density
   Barbara Sandhoefer     : DKH picture change effects
   Avijit Sen             : IP-ROCIS
   Kantharuban Sivalingam : CASSCF convergence, NEVPT2, FIC-MRCI
   Bernardo de Souza      : ESD, SOC TD-DFT
   Georgi Stoychev        : AutoAux, RI-MP2 NMR, DLPNO-MP2 response
   Willem Van den Heuvel  : Paramagnetic NMR
   Boris Wezisla          : Elementary symmetry handling
   Frank Wennmohs         : Technical directorship


 We gratefully acknowledge several colleagues who have allowed us to
 interface, adapt or use parts of their codes:
   Stefan Grimme, W. Hujo, H. Kruse, P. Pracht,  : VdW corrections, initial TS optimization,
                  C. Bannwarth, S. Ehlert          DFT functionals, gCP, sTDA/sTD-DF
   Ed Valeev, F. Pavosevic, A. Kumar             : LibInt (2-el integral package), F12 methods
   Garnet Chan, S. Sharma, J. Yang, R. Olivares  : DMRG
   Ulf Ekstrom                                   : XCFun DFT Library
   Mihaly Kallay                                 : mrcc  (arbitrary order and MRCC methods)
   Jiri Pittner, Ondrej Demel                    : Mk-CCSD
   Frank Weinhold                                : gennbo (NPA and NBO analysis)
   Christopher J. Cramer and Donald G. Truhlar   : smd solvation model
   Lars Goerigk                                  : TD-DFT with DH, B97 family of functionals
   V. Asgeirsson, H. Jonsson                     : NEB implementation
   FAccTs GmbH                                   : IRC, NEB, NEB-TS, DLPNO-Multilevel, CI-OPT
                                                   MM, QMMM, 2- and 3-layer-ONIOM, Crystal-QMMM,
                                                   LR-CPCM, SF, NACMEs, symmetry and pop. for TD-DFT,
                                                   nearIR, NL-DFT gradient (VV10), updates on ESD,
                                                   ML-optimized integration grids
   S Lehtola, MJT Oliveira, MAL Marques          : LibXC Library
   Liviu Ungur et al                             : ANISO software


 Your calculation uses the libint2 library for the computation of 2-el integrals
 For citations please refer to: http://libint.valeyev.net

 Your ORCA version has been built with support for libXC version: 5.1.0
 For citations please refer to: https://tddft.org/programs/libxc/

 This ORCA versions uses:
   CBLAS   interface :  Fast vector & matrix operations
   LAPACKE interface :  Fast linear algebra routines
   SCALAPACK package :  Parallel linear algebra routines
   Shared memory     :  Shared parallel matrices
   BLAS/LAPACK       :  OpenBLAS 0.3.15  USE64BITINT DYNAMIC_ARCH NO_AFFINITY SkylakeX SINGLE_THREADED
        Core in use  :  SkylakeX
   Copyright (c) 2011-2014, The OpenBLAS Project




***************************************
The coordinates will be read from file: 5_deprot.xyz
***************************************


Your calculation utilizes the atom-pairwise dispersion correction
based on tight binding partial charges (D4)
Cite in your paper:
E.Caldeweyher, C.Bannwarth, S.Grimme, J.Chem.Phys., (2017), 147, 034112.
E.Caldeweyher, S.Ehlert, A.Hansen, H.Neugebauer, S.Grimme, J.Chem.Phys., (2018), in progress.
   

XCFun DFT library Copyright 2009-2010 Ulf Ekstrom and contributors.
See http://admol.org/xcfun for more information.
This is free software; see the source code for copying conditions.
There is ABSOLUTELY NO WARRANTY; not even for MERCHANTABILITY or FITNESS FOR A PARTICULAR PURPOSE.
For details see the documentation.
Scientific users of this library should cite U. Ekstrom, L. Visscher, R. Bast, A. J. Thorvaldsen and K. Ruud;
J.Chem.Theor.Comp. 2010, DOI: 10.1021/ct100117s
XCFun Version 0.99 

================================================================================

----- Orbital basis set information -----
Your calculation utilizes the basis: def2-TZVP
   F. Weigend and R. Ahlrichs, Phys. Chem. Chem. Phys. 7, 3297 (2005).

----- AuxJ basis set information -----
Your calculation utilizes the auxiliary basis: def2/J
   F. Weigend, Phys. Chem. Chem. Phys. 8, 1057 (2006).

================================================================================
                                        WARNINGS
                       Please study these warnings very carefully!
================================================================================


WARNING: Geometry Optimization
  ===> : Switching off AutoStart
         For restart on a previous wavefunction, please use MOREAD

INFO   : the flag for use of the SHARK integral package has been found!

================================================================================
                                       INPUT FILE
================================================================================
NAME = 5_deprot.inp
|  1> # ORCA 5.0.4 - /users/bwb16179/postgrad/2024_06/pKa_Reviewer_Comments/Aq_Z=0/5_deprot.inp # write input file
|  2> # Basic Mode
|  3> #
|  4> ! Opt Freq wB97X Def2-TZVP D4 SlowConv TightSCF Defgrid2 Def2/J RIJCOSX CPCM(Water)
|  5> 
|  6> %PAL NPROCS 4 END
|  7> 
|  8> %maxcore 4500
|  9> 
| 10> %geom
| 11> Maxiter 150
| 12> END
| 13> 
| 14> * xyzfile 0 1 5_deprot.xyz
| 15> 
| 16>                          ****END OF INPUT****
================================================================================

                       *****************************
                       * Geometry Optimization Run *
                       *****************************

Geometry optimization settings:
Update method            Update   .... BFGS
Choice of coordinates    CoordSys .... Z-matrix Internals
Initial Hessian          InHess   .... Almoef's Model

Convergence Tolerances:
Energy Change            TolE     ....  5.0000e-06 Eh
Max. Gradient            TolMAXG  ....  3.0000e-04 Eh/bohr
RMS Gradient             TolRMSG  ....  1.0000e-04 Eh/bohr
Max. Displacement        TolMAXD  ....  4.0000e-03 bohr
RMS Displacement         TolRMSD  ....  2.0000e-03 bohr
Strict Convergence                ....  False
------------------------------------------------------------------------------
                        ORCA OPTIMIZATION COORDINATE SETUP
------------------------------------------------------------------------------

The optimization will be done in new redundant internal coordinates
Making redundant internal coordinates   ...  (new redundants) done
Evaluating the initial hessian          ...  (Almloef) done
Evaluating the coordinates              ...  done
Calculating the B-matrix                .... done
Calculating the G-matrix                .... done
Diagonalizing the G-matrix              .... done
Small eigenvalue found = 1.011e-02
Small eigenvalue found = 2.359e-02
The first mode is                       ....   83
The number of degrees of freedom        ....   93

    -----------------------------------------------------------------
                    Redundant Internal Coordinates


    -----------------------------------------------------------------
         Definition                    Initial Value    Approx d2E/dq
    -----------------------------------------------------------------
      1. B(C   1,C   0)                  1.3532         0.715203   
      2. B(N   2,C   0)                  1.3879         0.563848   
      3. B(N   3,C   1)                  1.3879         0.563995   
      4. B(C   4,N   2)                  1.3599         0.625004   
      5. B(C   4,N   3)                  1.3600         0.624717   
      6. B(H   5,C   0)                  1.0885         0.362024   
      7. B(H   6,C   1)                  1.0885         0.362061   
      8. B(C   7,N   2)                  1.4830         0.397590   
      9. B(C   8,N   3)                  1.4828         0.397978   
     10. B(C   9,C   7)                  1.5260         0.379080   
     11. B(C  10,C   8)                  1.5325         0.370171   
     12. B(C  11,C   8)                  1.5326         0.369978   
     13. B(C  12,C   7)                  1.5322         0.370516   
     14. B(H  13,C   9)                  1.0995         0.347758   
     15. B(H  14,C  10)                  1.1010         0.345797   
     16. B(H  15,C  11)                  1.1008         0.346103   
     17. B(H  16,C  12)                  1.1014         0.345366   
     18. B(H  17,C   9)                  1.0987         0.348757   
     19. B(H  18,C  10)                  1.1013         0.345413   
     20. B(H  19,C  11)                  1.1013         0.345424   
     21. B(H  20,C  12)                  1.1007         0.346226   
     22. B(H  21,C   9)                  1.1006         0.346370   
     23. B(H  22,C  10)                  1.1007         0.346213   
     24. B(H  23,C  11)                  1.1005         0.346453   
     25. B(H  24,C  12)                  1.1005         0.346461   
     26. B(C  25,C   7)                  1.5327         0.369878   
     27. B(C  26,C   8)                  1.5258         0.379317   
     28. B(H  27,C  25)                  1.1007         0.346247   
     29. B(H  28,C  26)                  1.1006         0.346304   
     30. B(H  29,C  25)                  1.1014         0.345369   
     31. B(H  30,C  26)                  1.0990         0.348431   
     32. B(H  31,C  26)                  1.0993         0.348016   
     33. B(H  32,C  25)                  1.1010         0.345853   
     34. A(C   1,C   0,N   2)          106.3102         0.434958   
     35. A(N   2,C   0,H   5)          123.6132         0.345482   
     36. A(C   1,C   0,H   5)          130.0764         0.361910   
     37. A(C   0,C   1,H   6)          130.0699         0.361916   
     38. A(C   0,C   1,N   3)          106.3249         0.434978   
     39. A(N   3,C   1,H   6)          123.6051         0.345503   
     40. A(C   4,N   2,C   7)          125.7355         0.396498   
     41. A(C   0,N   2,C   4)          112.0361         0.421800   
     42. A(C   0,N   2,C   7)          122.2196         0.389414   
     43. A(C   4,N   3,C   8)          125.6597         0.396534   
     44. A(C   1,N   3,C   8)          122.3137         0.389498   
     45. A(C   1,N   3,C   4)          112.0263         0.421785   
     46. A(N   2,C   4,N   3)          103.3023         0.429613   
     47. A(C  12,C   7,C  25)          110.5216         0.362226   
     48. A(C   9,C   7,C  25)          109.5521         0.363642   
     49. A(N   2,C   7,C   9)          110.2300         0.365873   
     50. A(N   2,C   7,C  25)          108.5382         0.364338   
     51. A(C   9,C   7,C  12)          109.2969         0.363750   
     52. A(N   2,C   7,C  12)          108.6897         0.364445   
     53. A(N   3,C   8,C  10)          108.6179         0.364448   
     54. A(N   3,C   8,C  26)          110.1742         0.365974   
     55. A(C  11,C   8,C  26)          109.3746         0.363698   
     56. A(C  10,C   8,C  26)          109.5041         0.363731   
     57. A(C  10,C   8,C  11)          110.5132         0.362185   
     58. A(N   3,C   8,C  11)          108.6437         0.364415   
     59. A(H  13,C   9,H  17)          108.0207         0.287807   
     60. A(C   7,C   9,H  17)          111.4397         0.323395   
     61. A(C   7,C   9,H  13)          111.2908         0.323243   
     62. A(H  17,C   9,H  21)          108.7914         0.287627   
     63. A(H  13,C   9,H  21)          108.7063         0.287498   
     64. A(C   7,C   9,H  21)          108.5273         0.323031   
     65. A(H  14,C  10,H  18)          108.3921         0.287120   
     66. A(C   8,C  10,H  18)          110.4085         0.321629   
     67. A(C   8,C  10,H  14)          111.5460         0.321688   
     68. A(H  18,C  10,H  22)          108.4513         0.287174   
     69. A(H  14,C  10,H  22)          107.9120         0.287224   
     70. A(C   8,C  10,H  22)          110.0372         0.321751   
     71. A(H  15,C  11,H  19)          108.4549         0.287161   
     72. A(C   8,C  11,H  19)          110.4547         0.321603   
     73. A(C   8,C  11,H  15)          111.6953         0.321707   
     74. A(H  19,C  11,H  23)          108.4176         0.287207   
     75. A(H  15,C  11,H  23)          107.7941         0.287295   
     76. A(C   8,C  11,H  23)          109.9243         0.321760   
     77. A(H  16,C  12,H  20)          108.3941         0.287170   
     78. A(C   7,C  12,H  20)          111.8090         0.321802   
     79. A(C   7,C  12,H  16)          110.3907         0.321671   
     80. A(H  20,C  12,H  24)          107.7728         0.287312   
     81. A(H  16,C  12,H  24)          108.4504         0.287200   
     82. A(C   7,C  12,H  24)          109.9227         0.321838   
     83. A(H  29,C  25,H  32)          108.4137         0.287122   
     84. A(H  27,C  25,H  32)          107.8854         0.287236   
     85. A(C   7,C  25,H  32)          111.4518         0.321654   
     86. A(H  27,C  25,H  29)          108.4511         0.287173   
     87. A(C   7,C  25,H  29)          110.4064         0.321581   
     88. A(C   7,C  25,H  27)          110.1392         0.321714   
     89. A(H  30,C  26,H  31)          107.9673         0.287798   
     90. A(H  28,C  26,H  31)          108.7517         0.287523   
     91. A(C   8,C  26,H  31)          111.3500         0.323315   
     92. A(H  28,C  26,H  30)          108.7814         0.287577   
     93. A(C   8,C  26,H  30)          111.3395         0.323379   
     94. A(C   8,C  26,H  28)          108.5880         0.323054   
     95. D(H   6,C   1,C   0,N   2)    179.9163         0.036160   
     96. D(N   3,C   1,C   0,N   2)     -0.1873         0.036160   
     97. D(N   3,C   1,C   0,H   5)    179.6464         0.036160   
     98. D(H   6,C   1,C   0,H   5)     -0.2499         0.036160   
     99. D(C   7,N   2,C   0,H   5)     -0.6854         0.025411   
    100. D(C   4,N   2,C   0,H   5)   -179.6579         0.025411   
    101. D(C   4,N   2,C   0,C   1)      0.1893         0.025411   
    102. D(C   7,N   2,C   0,C   1)    179.1618         0.025411   
    103. D(C   8,N   3,C   1,H   6)     -0.1530         0.025425   
    104. D(C   4,N   3,C   1,H   6)   -179.9612         0.025425   
    105. D(C   4,N   3,C   1,C   0)      0.1341         0.025425   
    106. D(C   8,N   3,C   1,C   0)    179.9423         0.025425   
    107. D(N   2,C   4,N   3,C   1)     -0.0188         0.028665   
    108. D(N   2,C   4,N   3,C   8)   -179.8193         0.028665   
    109. D(N   3,C   4,N   2,C   7)   -179.0334         0.028693   
    110. D(N   3,C   4,N   2,C   0)     -0.1043         0.028693   
    111. D(C  12,C   7,N   2,C   0)     58.0616         0.013500   
    112. D(C  25,C   7,N   2,C   4)    116.6387         0.013500   
    113. D(C  12,C   7,N   2,C   4)   -123.1117         0.013500   
    114. D(C  25,C   7,N   2,C   0)    -62.1879         0.013500   
    115. D(C   9,C   7,N   2,C   0)    177.8276         0.013500   
    116. D(C   9,C   7,N   2,C   4)     -3.3457         0.013500   
    117. D(C  26,C   8,N   3,C   4)     -2.3314         0.013526   
    118. D(C  11,C   8,N   3,C   4)   -122.1306         0.013526   
    119. D(C  11,C   8,N   3,C   1)     58.0882         0.013526   
    120. D(C  26,C   8,N   3,C   1)    177.8874         0.013526   
    121. D(C  10,C   8,N   3,C   4)    117.6102         0.013526   
    122. D(C  10,C   8,N   3,C   1)    -62.1710         0.013526   
    123. D(H  13,C   9,C   7,C  12)     58.7792         0.011456   
    124. D(H  13,C   9,C   7,N   2)    -60.6186         0.011456   
    125. D(H  13,C   9,C   7,C  25)   -179.9888         0.011456   
    126. D(H  21,C   9,C   7,C  25)     60.4322         0.011456   
    127. D(H  21,C   9,C   7,C  12)    -60.7998         0.011456   
    128. D(H  21,C   9,C   7,N   2)    179.8024         0.011456   
    129. D(H  17,C   9,C   7,C  25)    -59.3425         0.011456   
    130. D(H  17,C   9,C   7,C  12)    179.4256         0.011456   
    131. D(H  17,C   9,C   7,N   2)     60.0277         0.011456   
    132. D(H  22,C  10,C   8,C  26)    -59.3963         0.010953   
    133. D(H  22,C  10,C   8,C  11)     61.1536         0.010953   
    134. D(H  22,C  10,C   8,N   3)   -179.7541         0.010953   
    135. D(H  18,C  10,C   8,C  26)     60.2831         0.010953   
    136. D(H  18,C  10,C   8,C  11)   -179.1670         0.010953   
    137. D(H  18,C  10,C   8,N   3)    -60.0747         0.010953   
    138. D(H  14,C  10,C   8,C  26)   -179.1297         0.010953   
    139. D(H  14,C  10,C   8,C  11)    -58.5799         0.010953   
    140. D(H  14,C  10,C   8,N   3)     60.5124         0.010953   
    141. D(H  23,C  11,C   8,C  10)    -62.4954         0.010943   
    142. D(H  23,C  11,C   8,N   3)    178.4279         0.010943   
    143. D(H  19,C  11,C   8,C  26)    -61.4634         0.010943   
    144. D(H  19,C  11,C   8,C  10)    177.9094         0.010943   
    145. D(H  19,C  11,C   8,N   3)     58.8328         0.010943   
    146. D(H  15,C  11,C   8,C  26)    177.7388         0.010943   
    147. D(H  15,C  11,C   8,C  10)     57.1116         0.010943   
    148. D(H  23,C  11,C   8,C  26)     58.1318         0.010943   
    149. D(H  15,C  11,C   8,N   3)    -61.9651         0.010943   
    150. D(H  24,C  12,C   7,N   2)    178.6240         0.010973   
    151. D(H  20,C  12,C   7,C  25)     57.2890         0.010973   
    152. D(H  20,C  12,C   7,C   9)    177.9310         0.010973   
    153. D(H  20,C  12,C   7,N   2)    -61.7236         0.010973   
    154. D(H  16,C  12,C   7,C  25)    178.0421         0.010973   
    155. D(H  16,C  12,C   7,C   9)    -61.3158         0.010973   
    156. D(H  24,C  12,C   7,C   9)     58.2787         0.010973   
    157. D(H  16,C  12,C   7,N   2)     59.0296         0.010973   
    158. D(H  24,C  12,C   7,C  25)    -62.3634         0.010973   
    159. D(H  32,C  25,C   7,C  12)    -58.4716         0.010937   
    160. D(H  32,C  25,C   7,C   9)   -178.9612         0.010937   
    161. D(H  32,C  25,C   7,N   2)     60.6329         0.010937   
    162. D(H  29,C  25,C   7,C  12)   -179.0218         0.010937   
    163. D(H  29,C  25,C   7,C   9)     60.4886         0.010937   
    164. D(H  29,C  25,C   7,N   2)    -59.9174         0.010937   
    165. D(H  27,C  25,C   7,C  12)     61.2353         0.010937   
    166. D(H  27,C  25,C   7,C   9)    -59.2544         0.010937   
    167. D(H  27,C  25,C   7,N   2)   -179.6603         0.010937   
    168. D(H  31,C  26,C   8,C  11)     59.1302         0.011470   
    169. D(H  31,C  26,C   8,C  10)   -179.6294         0.011470   
    170. D(H  31,C  26,C   8,N   3)    -60.2252         0.011470   
    171. D(H  30,C  26,C   8,C  11)    179.6805         0.011470   
    172. D(H  30,C  26,C   8,C  10)    -59.0792         0.011470   
    173. D(H  30,C  26,C   8,N   3)     60.3250         0.011470   
    174. D(H  28,C  26,C   8,C  11)    -60.5795         0.011470   
    175. D(H  28,C  26,C   8,C  10)     60.6608         0.011470   
    176. D(H  28,C  26,C   8,N   3)   -179.9350         0.011470   
    -----------------------------------------------------------------

Number of atoms                         .... 33
Number of degrees of freedom            .... 176

         *************************************************************
         *                GEOMETRY OPTIMIZATION CYCLE   1            *
         *************************************************************
---------------------------------
CARTESIAN COORDINATES (ANGSTROEM)
---------------------------------
  C      1.579734   -0.070019    0.405687
  C      0.817554   -1.086765    0.870978
  N      0.731124    0.751120   -0.323675
  N     -0.471048   -0.849375    0.413450
  C     -0.546956    0.286558   -0.330585
  H      2.641884    0.127496    0.538973
  H      1.091088   -1.944234    1.483192
  C      1.204689    1.993548   -0.980575
  C     -1.601417   -1.758356    0.721089
  C      0.062591    2.652647   -1.748645
  C     -1.303282   -3.133040    0.112904
  C     -1.744730   -1.864182    2.243333
  C      2.330322    1.634721   -1.956252
  H     -0.326727    1.988037   -2.533254
  H     -0.382153   -3.568621    0.530113
  H     -0.844692   -2.295397    2.707798
  H      1.969749    0.918871   -2.711611
  H     -0.770246    2.916001   -1.082165
  H     -1.185935   -3.052559   -0.979200
  H     -1.921927   -0.870205    2.683255
  H      3.193220    1.188437   -1.438789
  H      0.442918    3.571188   -2.220784
  H     -2.131533   -3.826539    0.324117
  H     -2.597092   -2.513021    2.495572
  H      2.680725    2.540414   -2.473999
  C      1.716031    2.952000    0.100670
  C     -2.895259   -1.208577    0.127855
  H      2.069278    3.887784   -0.358698
  H     -3.715203   -1.900998    0.372066
  H      0.910053    3.194888    0.810895
  H     -2.825668   -1.113946   -0.964816
  H     -3.134967   -0.217834    0.539449
  H      2.554895    2.513766    0.663194

----------------------------
CARTESIAN COORDINATES (A.U.)
----------------------------
  NO LB      ZA    FRAG     MASS         X           Y           Z
   0 C     6.0000    0    12.011    2.985265   -0.132317    0.766637
   1 C     6.0000    0    12.011    1.544953   -2.053688    1.645910
   2 N     7.0000    0    14.007    1.381624    1.419411   -0.611657
   3 N     7.0000    0    14.007   -0.890152   -1.605086    0.781307
   4 C     6.0000    0    12.011   -1.033597    0.541516   -0.624715
   5 H     1.0000    0     1.008    4.992437    0.240933    1.018511
   6 H     1.0000    0     1.008    2.061858   -3.674070    2.802827
   7 C     6.0000    0    12.011    2.276532    3.767260   -1.853018
   8 C     6.0000    0    12.011   -3.026240   -3.322811    1.362661
   9 C     6.0000    0    12.011    0.118280    5.012776   -3.304460
  10 C     6.0000    0    12.011   -2.462846   -5.920588    0.213358
  11 C     6.0000    0    12.011   -3.297062   -3.522793    4.239285
  12 C     6.0000    0    12.011    4.403670    3.089175   -3.696781
  13 H     1.0000    0     1.008   -0.617425    3.756845   -4.787156
  14 H     1.0000    0     1.008   -0.722165   -6.743716    1.001768
  15 H     1.0000    0     1.008   -1.596237   -4.337672    5.116997
  16 H     1.0000    0     1.008    3.722286    1.736415   -5.124202
  17 H     1.0000    0     1.008   -1.455554    5.510443   -2.044995
  18 H     1.0000    0     1.008   -2.241092   -5.768501   -1.850420
  19 H     1.0000    0     1.008   -3.631916   -1.644449    5.070617
  20 H     1.0000    0     1.008    6.034311    2.245820   -2.718917
  21 H     1.0000    0     1.008    0.836994    6.748567   -4.196674
  22 H     1.0000    0     1.008   -4.028014   -7.231111    0.612492
  23 H     1.0000    0     1.008   -4.907793   -4.748921    4.715948
  24 H     1.0000    0     1.008    5.065836    4.800687   -4.675181
  25 C     6.0000    0    12.011    3.242829    5.578472    0.190239
  26 C     6.0000    0    12.011   -5.471247   -2.283880    0.241611
  27 H     1.0000    0     1.008    3.910369    7.346847   -0.677841
  28 H     1.0000    0     1.008   -7.020716   -3.592366    0.703103
  29 H     1.0000    0     1.008    1.719751    6.037463    1.532369
  30 H     1.0000    0     1.008   -5.339739   -2.105053   -1.823238
  31 H     1.0000    0     1.008   -5.924229   -0.411647    1.019411
  32 H     1.0000    0     1.008    4.828052    4.750329    1.253255

--------------------------------
INTERNAL COORDINATES (ANGSTROEM)
--------------------------------
 C      0   0   0     0.000000000000     0.00000000     0.00000000
 C      1   0   0     1.353213396179     0.00000000     0.00000000
 N      1   2   0     1.387939882151   106.31015587     0.00000000
 N      2   1   3     1.387869229174   106.32486517   359.81265217
 C      3   1   2     1.359909587562   112.03607227     0.18929892
 H      1   2   3     1.088549473162   130.07638931   179.83371448
 H      2   1   3     1.088521895468   130.06990452   179.91634325
 C      3   1   2     1.483040375178   122.21957387   179.16183922
 C      4   2   1     1.482775198350   122.31372428   179.94228629
 C      8   3   1     1.526017974437   110.22995349   177.82762901
 C      9   4   2     1.532491295997   108.61792209   297.82901093
 C      9   4   2     1.532633209147   108.64365545    58.08821039
 C      8   3   1     1.532237603946   108.68973817    58.06160590
 H     10   8   3     1.099493628952   111.29084297   299.38137353
 H     11   9   4     1.101032602552   111.54602394    60.51239589
 H     12   9   4     1.100791766818   111.69532934   298.03489001
 H     13   8   3     1.101372475464   110.39065793    59.02955338
 H     10   8   3     1.098712149876   111.43972694    60.02770218
 H     11   9   4     1.101334942961   110.40852906   299.92527937
 H     12   9   4     1.101326663357   110.45467731    58.83278675
 H     13   8   3     1.100695381761   111.80902461   298.27640724
 H     10   8   3     1.100582314473   108.52729593   179.80236893
 H     11   9   4     1.100705007425   110.03716611   180.24585570
 H     12   9   4     1.100516942208   109.92433370   178.42792109
 H     13   8   3     1.100510803521   109.92272874   178.62404430
 C      8   3   1     1.532707286892   108.53819320   297.81207701
 C      9   4   2     1.525847518123   110.17423196   177.88738192
 H     26   8   3     1.100678925522   110.13922345   180.33970838
 H     27   9   4     1.100633461647   108.58795218   180.06502839
 H     26   8   3     1.101369451026   110.40640495   300.08264748
 H     27   9   4     1.098966718187   111.33946958    60.32499974
 H     27   9   4     1.099291243551   111.34996797   299.77476536
 H     26   8   3     1.100988237825   111.45177453    60.63289952

---------------------------
INTERNAL COORDINATES (A.U.)
---------------------------
 C      0   0   0     0.000000000000     0.00000000     0.00000000
 C      1   0   0     2.557202719531     0.00000000     0.00000000
 N      1   2   0     2.622826267612   106.31015587     0.00000000
 N      2   1   3     2.622692752835   106.32486517   359.81265217
 C      3   1   2     2.569856687387   112.03607227     0.18929892
 H      1   2   3     2.057060387500   130.07638931   179.83371448
 H      2   1   3     2.057008273211   130.06990452   179.91634325
 C      3   1   2     2.802540154635   122.21957387   179.16183922
 C      4   2   1     2.802039043053   122.31372428   179.94228629
 C      8   3   1     2.883756047127   110.22995349   177.82762901
 C      9   4   2     2.895988852052   108.61792209   297.82901093
 C      9   4   2     2.896257029041   108.64365545    58.08821039
 C      8   3   1     2.895509443554   108.68973817    58.06160590
 H     10   8   3     2.077741844710   111.29084297   299.38137353
 H     11   9   4     2.080650083342   111.54602394    60.51239589
 H     12   9   4     2.080194969761   111.69532934   298.03489001
 H     13   8   3     2.081292350066   110.39065793    59.02955338
 H     10   8   3     2.076265063277   111.43972694    60.02770218
 H     11   9   4     2.081221423913   110.40852906   299.92527937
 H     12   9   4     2.081205777731   110.45467731    58.83278675
 H     13   8   3     2.080012828399   111.80902461   298.27640724
 H     10   8   3     2.079799162191   108.52729593   179.80236893
 H     11   9   4     2.080031018269   110.03716611   180.24585570
 H     12   9   4     2.079675626513   109.92433370   178.42792109
 H     13   8   3     2.079664026077   109.92272874   178.62404430
 C      8   3   1     2.896397015692   108.53819320   297.81207701
 C      9   4   2     2.883433931375   110.17423196   177.88738192
 H     26   8   3     2.079981730616   110.13922345   180.33970838
 H     27   9   4     2.079895816343   108.58795218   180.06502839
 H     26   8   3     2.081286634706   110.40640495   300.08264748
 H     27   9   4     2.076746127668   111.33946958    60.32499974
 H     27   9   4     2.077359391730   111.34996797   299.77476536
 H     26   8   3     2.080566246157   111.45177453    60.63289952

---------------------
BASIS SET INFORMATION
---------------------
There are 3 groups of distinct atoms

 Group   1 Type C   : 11s6p2d1f contracted to 5s3p2d1f pattern {62111/411/11/1}
 Group   2 Type N   : 11s6p2d1f contracted to 5s3p2d1f pattern {62111/411/11/1}
 Group   3 Type H   : 5s1p contracted to 3s1p pattern {311/1}

Atom   0C    basis set group =>   1
Atom   1C    basis set group =>   1
Atom   2N    basis set group =>   2
Atom   3N    basis set group =>   2
Atom   4C    basis set group =>   1
Atom   5H    basis set group =>   3
Atom   6H    basis set group =>   3
Atom   7C    basis set group =>   1
Atom   8C    basis set group =>   1
Atom   9C    basis set group =>   1
Atom  10C    basis set group =>   1
Atom  11C    basis set group =>   1
Atom  12C    basis set group =>   1
Atom  13H    basis set group =>   3
Atom  14H    basis set group =>   3
Atom  15H    basis set group =>   3
Atom  16H    basis set group =>   3
Atom  17H    basis set group =>   3
Atom  18H    basis set group =>   3
Atom  19H    basis set group =>   3
Atom  20H    basis set group =>   3
Atom  21H    basis set group =>   3
Atom  22H    basis set group =>   3
Atom  23H    basis set group =>   3
Atom  24H    basis set group =>   3
Atom  25C    basis set group =>   1
Atom  26C    basis set group =>   1
Atom  27H    basis set group =>   3
Atom  28H    basis set group =>   3
Atom  29H    basis set group =>   3
Atom  30H    basis set group =>   3
Atom  31H    basis set group =>   3
Atom  32H    basis set group =>   3
---------------------------------
AUXILIARY/J BASIS SET INFORMATION
---------------------------------
There are 3 groups of distinct atoms

 Group   1 Type C   : 12s5p4d2f1g contracted to 6s4p3d1f1g pattern {711111/2111/211/2/1}
 Group   2 Type N   : 12s5p4d2f1g contracted to 6s4p3d1f1g pattern {711111/2111/211/2/1}
 Group   3 Type H   : 5s2p1d contracted to 3s1p1d pattern {311/2/1}

Atom   0C    basis set group =>   1
Atom   1C    basis set group =>   1
Atom   2N    basis set group =>   2
Atom   3N    basis set group =>   2
Atom   4C    basis set group =>   1
Atom   5H    basis set group =>   3
Atom   6H    basis set group =>   3
Atom   7C    basis set group =>   1
Atom   8C    basis set group =>   1
Atom   9C    basis set group =>   1
Atom  10C    basis set group =>   1
Atom  11C    basis set group =>   1
Atom  12C    basis set group =>   1
Atom  13H    basis set group =>   3
Atom  14H    basis set group =>   3
Atom  15H    basis set group =>   3
Atom  16H    basis set group =>   3
Atom  17H    basis set group =>   3
Atom  18H    basis set group =>   3
Atom  19H    basis set group =>   3
Atom  20H    basis set group =>   3
Atom  21H    basis set group =>   3
Atom  22H    basis set group =>   3
Atom  23H    basis set group =>   3
Atom  24H    basis set group =>   3
Atom  25C    basis set group =>   1
Atom  26C    basis set group =>   1
Atom  27H    basis set group =>   3
Atom  28H    basis set group =>   3
Atom  29H    basis set group =>   3
Atom  30H    basis set group =>   3
Atom  31H    basis set group =>   3
Atom  32H    basis set group =>   3


           ************************************************************
           *        Program running with 4 parallel MPI-processes     *
           *              working on a common directory               *
           ************************************************************
------------------------------------------------------------------------------
                           ORCA GTO INTEGRAL CALCULATION
                           -- RI-GTO INTEGRALS CHOSEN --
------------------------------------------------------------------------------
------------------------------------------------------------------------------
                   ___                                                        
                  /   \      - P O W E R E D   B Y -                         
                 /     \                                                     
                 |  |  |   _    _      __       _____    __    __             
                 |  |  |  | |  | |    /  \     |  _  \  |  |  /  |          
                  \  \/   | |  | |   /    \    | | | |  |  | /  /          
                 / \  \   | |__| |  /  /\  \   | |_| |  |  |/  /          
                |  |  |   |  __  | /  /__\  \  |    /   |      \           
                |  |  |   | |  | | |   __   |  |    \   |  |\   \          
                \     /   | |  | | |  |  |  |  | |\  \  |  | \   \       
                 \___/    |_|  |_| |__|  |__|  |_| \__\ |__|  \__/        
                                                                              
                      - O R C A' S   B I G   F R I E N D -                    
                                      &                                       
                       - I N T E G R A L  F E E D E R -                       
                                                                              
 v1 FN, 2020, v2 2021                                                         
------------------------------------------------------------------------------


Reading SHARK input file 5_deprot.SHARKINP.tmp ... ok
----------------------
SHARK INTEGRAL PACKAGE
----------------------

Number of atoms                             ...     33
Number of basis functions                   ...    523
Number of shells                            ...    223
Maximum angular momentum                    ...      3
Integral batch strategy                     ... SHARK/LIBINT Hybrid
RI-J (if used) integral strategy            ... SPLIT-RIJ (Revised 2003 algorithm where possible)
Printlevel                                  ...      1
Contraction scheme used                     ... SEGMENTED contraction
Coulomb Range Separation                    ... NOT USED
Exchange Range Separation                   ... Long Range
   Mu parameter                             ...  0.300000
   Scaling (regular/separated)              ...  0.157706  0.842294
Finite Nucleus Model                        ... NOT USED
Auxiliary Coulomb fitting basis             ... AVAILABLE
   # of basis functions in Aux-J            ...    857
   # of shells in Aux-J                     ...    295
   Maximum angular momentum in Aux-J        ...      4
Auxiliary J/K fitting basis                 ... NOT available
Auxiliary Correlation fitting basis         ... NOT available
Auxiliary 'external' fitting basis          ... NOT available
Integral threshold                          ...     2.500000e-11
Primitive cut-off                           ...     2.500000e-12
Primitive pair pre-selection threshold      ...     2.500000e-12

Calculating pre-screening integrals         ... done (  0.1 sec) Dimension = 223
Organizing shell pair data                  ... done (  0.2 sec)
Shell pair information
Total number of shell pairs                 ...     24976
Shell pairs after pre-screening             ...     20416
Total number of primitive shell pairs       ...     72736
Primitive shell pairs kept                  ...     42391
          la=0 lb=0:   6269 shell pairs
          la=1 lb=0:   6052 shell pairs
          la=1 lb=1:   1487 shell pairs
          la=2 lb=0:   2694 shell pairs
          la=2 lb=1:   1297 shell pairs
          la=2 lb=2:    307 shell pairs
          la=3 lb=0:   1303 shell pairs
          la=3 lb=1:    637 shell pairs
          la=3 lb=2:    294 shell pairs
          la=3 lb=3:     76 shell pairs

Calculating one electron integrals          ... done (  0.1 sec)
Calculating RI/J V-Matrix + Cholesky decomp.... done (  0.0 sec)
Calculating Nuclear repulsion               ... done (  0.0 sec) ENN=    853.823509432873 Eh

SHARK setup successfully completed in   0.7 seconds

Maximum memory used throughout the entire GTOINT-calculation: 32.0 MB


           ************************************************************
           *        Program running with 4 parallel MPI-processes     *
           *              working on a common directory               *
           ************************************************************
-------------------------------------------------------------------------------
                                 ORCA SCF
-------------------------------------------------------------------------------

------------
SCF SETTINGS
------------
Hamiltonian:
 Density Functional     Method          .... DFT(GTOs)
 Exchange Functional    Exchange        .... WB97X
 Correlation Functional Correlation     .... WB97X
 Gradients option       PostSCFGGA      .... off
 Hybrid DFT is turned on
   Fraction HF Exchange ScalHFX         ....  0.157706
   Scaling of DF-GGA-X  ScalDFX         ....  0.000000
   Scaling of DF-GGA-C  ScalDFC         ....  1.000000
   Scaling of DF-LDA-C  ScalLDAC        ....  1.000000
   Perturbative correction              ....  0.000000
   Density functional embedding theory  .... OFF
 Long-range corrected/Screened/Range-Separated Hybrid DFT is turned on
   Amount of maximum screened exact exchange              ....  0.842294
   Range separation parameter mu (erf(mu*r12)/r12)        ....  0.300000
 RI-approximation to the Coulomb term is turned on
   Number of AuxJ basis functions       .... 857
   RIJ-COSX (HFX calculated with COS-X)).... on


General Settings:
 Integral files         IntName         .... 5_deprot
 Hartree-Fock type      HFTyp           .... RHF
 Total Charge           Charge          ....    0
 Multiplicity           Mult            ....    1
 Number of Electrons    NEL             ....  100
 Basis Dimension        Dim             ....  523
 Nuclear Repulsion      ENuc            ....    853.8235094329 Eh

Convergence Acceleration:
 DIIS                   CNVDIIS         .... on
   Start iteration      DIISMaxIt       ....     0
   Startup error        DIISStart       ....  0.200000
   # of expansion vecs  DIISMaxEq       ....     5
   Bias factor          DIISBfac        ....   1.050
   Max. coefficient     DIISMaxC        ....  10.000
 Trust-Rad. Augm. Hess. CNVTRAH         .... auto
   Auto Start mean grad. ratio tolernc. ....  1.125000
   Auto Start start iteration           ....    20
   Auto Start num. interpolation iter.  ....    10
   Max. Number of Micro iterations      ....    16
   Max. Number of Macro iterations      .... Maxiter - #DIIS iter
   Number of Davidson start vectors     ....     2
   Converg. threshold I  (grad. norm)   ....   1.000e-05
   Converg. threshold II (energy diff.) ....   1.000e-08
   Grad. Scal. Fac. for Micro threshold ....   0.100
   Minimum threshold for Micro iter.    ....   0.010
   NR start threshold (gradient norm)   ....   0.001
   Initial trust radius                 ....   0.400
   Minimum AH scaling param. (alpha)    ....   1.000
   Maximum AH scaling param. (alpha)    .... 1000.000
   Orbital update algorithm             .... Taylor
   White noise on init. David. guess    .... on
   Maximum white noise                  ....   0.010
   Quad. conv. algorithm                .... NR
 SOSCF                  CNVSOSCF        .... on
   Start iteration      SOSCFMaxIt      ....   150
   Startup grad/error   SOSCFStart      ....  0.001000
 Level Shifting         CNVShift        .... on
   Level shift para.    LevelShift      ....    0.2500
   Turn off err/grad.   ShiftErr        ....    0.0000
 Zerner damping         CNVZerner       .... off
 Static damping         CNVDamp         .... on
   Fraction old density DampFac         ....    0.8500
   Max. Damping (<1)    DampMax         ....    0.9800
   Min. Damping (>=0)   DampMin         ....    0.0000
   Turn off err/grad.   DampErr         ....    0.0300
 Fernandez-Rico         CNVRico         .... off

SCF Procedure:
 Maximum # iterations   MaxIter         ....   125
 SCF integral mode      SCFMode         .... Direct
   Integral package                     .... SHARK and LIBINT hybrid scheme
 Reset frequency        DirectResetFreq ....    20
 Integral Threshold     Thresh          ....  2.500e-11 Eh
 Primitive CutOff       TCut            ....  2.500e-12 Eh

Convergence Tolerance:
 Convergence Check Mode ConvCheckMode   .... Total+1el-Energy
 Convergence forced     ConvForced      .... 0
 Energy Change          TolE            ....  1.000e-08 Eh
 1-El. energy change                    ....  1.000e-05 Eh
 Orbital Gradient       TolG            ....  1.000e-05
 Orbital Rotation angle TolX            ....  1.000e-05
 DIIS Error             TolErr          ....  5.000e-07


Diagonalization of the overlap matrix:
Smallest eigenvalue                        ... 5.501e-05
Time for diagonalization                   ...    0.050 sec
Threshold for overlap eigenvalues          ... 1.000e-08
Number of eigenvalues below threshold      ... 0
Time for construction of square roots      ...    0.025 sec
Total time needed                          ...    0.078 sec

Time for model grid setup =    0.427 sec

------------------------------
INITIAL GUESS: MODEL POTENTIAL
------------------------------
Loading Hartree-Fock densities                     ... done
Calculating cut-offs                               ... done
Initializing the effective Hamiltonian             ... done
Setting up the integral package (SHARK)            ... done
Starting the Coulomb interaction                   ... done (   0.9 sec)
Reading the grid                                   ... done
Mapping shells                                     ... done
Starting the XC term evaluation                    ... done (   0.4 sec)
  promolecular density results
     # of electrons  =     99.992888130
     EX              =    -75.258799432
     EC              =     -3.311998642
     EX+EC           =    -78.570798073
Transforming the Hamiltonian                       ... done (   0.0 sec)
Diagonalizing the Hamiltonian                      ... done (   0.1 sec)
Back transforming the eigenvectors                 ... done (   0.0 sec)
Now organizing SCF variables                       ... done
                      ------------------
                      INITIAL GUESS DONE (   1.8 sec)
                      ------------------
-------------------
DFT GRID GENERATION
-------------------

General Integration Accuracy     IntAcc      ... 4.388
Radial Grid Type                 RadialGrid  ... OptM3 with GC (2021)
Angular Grid (max. ang.)         AngularGrid ... 4 (Lebedev-302)
Angular grid pruning method      GridPruning ... 4 (adaptive)
Weight generation scheme         WeightScheme... Becke
Basis function cutoff            BFCut       ... 1.0000e-11
Integration weight cutoff        WCut        ... 1.0000e-14
Angular grids for H and He will be reduced by one unit
Partially contracted basis set               ... off
Rotationally invariant grid construction     ... off

Total number of grid points                  ...   141255
Total number of batches                      ...     2225
Average number of points per batch           ...       63
Average number of grid points per atom       ...     4280
Time for grid setup =    1.245 sec

--------------------
COSX GRID GENERATION
--------------------

GRIDX 1
-------
General Integration Accuracy     IntAcc      ... 3.816
Radial Grid Type                 RadialGrid  ... OptM3 with GC (2021)
Angular Grid (max. ang.)         AngularGrid ... 1 (Lebedev-50)
Angular grid pruning method      GridPruning ... 4 (adaptive)
Weight generation scheme         WeightScheme... Becke
Basis function cutoff            BFCut       ... 1.0000e-11
Integration weight cutoff        WCut        ... 1.0000e-14
Angular grids for H and He will be reduced by one unit
Partially contracted basis set               ... on
Rotationally invariant grid construction     ... off

Total number of grid points                  ...    18062
Total number of batches                      ...      300
Average number of points per batch           ...       60
Average number of grid points per atom       ...      547
UseSFitting                                  ... on

GRIDX 2
-------
General Integration Accuracy     IntAcc      ... 4.020
Radial Grid Type                 RadialGrid  ... OptM3 with GC (2021)
Angular Grid (max. ang.)         AngularGrid ... 2 (Lebedev-110)
Angular grid pruning method      GridPruning ... 4 (adaptive)
Weight generation scheme         WeightScheme... Becke
Basis function cutoff            BFCut       ... 1.0000e-11
Integration weight cutoff        WCut        ... 1.0000e-14
Angular grids for H and He will be reduced by one unit
Partially contracted basis set               ... on
Rotationally invariant grid construction     ... off

Total number of grid points                  ...    37565
Total number of batches                      ...      606
Average number of points per batch           ...       61
Average number of grid points per atom       ...     1138
UseSFitting                                  ... on

GRIDX 3
-------
General Integration Accuracy     IntAcc      ... 4.338
Radial Grid Type                 RadialGrid  ... OptM3 with GC (2021)
Angular Grid (max. ang.)         AngularGrid ... 3 (Lebedev-194)
Angular grid pruning method      GridPruning ... 4 (adaptive)
Weight generation scheme         WeightScheme... Becke
Basis function cutoff            BFCut       ... 1.0000e-11
Integration weight cutoff        WCut        ... 1.0000e-14
Angular grids for H and He will be reduced by one unit
Partially contracted basis set               ... on
Rotationally invariant grid construction     ... off

Total number of grid points                  ...    81672
Total number of batches                      ...     1293
Average number of points per batch           ...       63
Average number of grid points per atom       ...     2475
UseSFitting                                  ... on

Time for X-Grid setup             =    1.740 sec


--------------------
CPCM SOLVATION MODEL
--------------------
CPCM parameters:
  Epsilon                                         ...      80.4000
  Refrac                                          ...       1.3300
  Rsolv                                           ...       1.3000
  Surface type                                    ... GAUSSIAN VDW
  Epsilon function type                           ...         CPCM
Radii:
 Radius for C  used is    3.8550 Bohr (=   2.0400 Ang.)
 Radius for N  used is    3.5149 Bohr (=   1.8600 Ang.)
 Radius for H  used is    2.4944 Bohr (=   1.3200 Ang.)
Calculating surface                               ...        done! (  0.0s)
GEPOL surface points                              ...         1726
GEPOL Volume                                      ...    1705.1427
GEPOL Surface-area                                ...     919.6912
Calculating surface distance matrix               ...        done! (  0.0s)
Performing Cholesky decomposition & store         ...        done! (  0.1s)
Overall time for CPCM initialization              ...                 0.2s
--------------
SCF ITERATIONS
--------------
ITER       Energy         Delta-E        Max-DP      RMS-DP      [F,P]     Damp
               ***  Starting incremental Fock matrix formation  ***
  0   -540.3783354158   0.000000000000 0.02845003  0.00030979  0.1717940 0.8500
  1   -540.4578817072  -0.079546291371 0.03629385  0.00031265  0.1379549 0.8500
                               ***Turning on DIIS***
  2   -540.5180475674  -0.060165860220 0.03439416  0.00026426  0.1054891 0.8500
  3   -540.5623527876  -0.044305220195 0.02912919  0.00020296  0.0795857 0.8500
  4   -540.5962739268  -0.033921139180 0.02479062  0.00016492  0.0632405 0.8500
  5   -540.6228516765  -0.026577749697 0.02153060  0.00014017  0.0522351 0.8500
  6   -540.6443733258  -0.021521649303 0.01891241  0.00012134  0.0439109 0.8500
  7   -540.6621342630  -0.017760937189 0.01686818  0.00010653  0.0371857 0.8500
  8   -540.6769588109  -0.014824547953 0.01502235  0.00009333  0.0314615 0.8500
  9   -540.6893727282  -0.012413917321 0.08837254  0.00054099  0.0265686 0.0000
 10   -540.7565163273  -0.067143599051 0.00276926  0.00002199  0.0012482 0.0000
                      *** Initiating the SOSCF procedure ***
                           *** Shutting down DIIS ***
                      *** Re-Reading the Fockian *** 
                      *** Removing any level shift *** 
ITER      Energy       Delta-E        Grad      Rot      Max-DP    RMS-DP
 11   -540.75654177  -0.0000254386  0.000207  0.000207  0.002550  0.000016
               *** Restarting incremental Fock matrix formation ***
 12   -540.75652503   0.0000167314  0.000112  0.000247  0.001812  0.000014
 13   -540.75652575  -0.0000007124  0.000035  0.000158  0.001301  0.000009
 14   -540.75652586  -0.0000001107  0.000028  0.000026  0.000252  0.000003
 15   -540.75652589  -0.0000000374  0.000004  0.000005  0.000087  0.000001
                  ***Gradient check signals convergence***
              ***Rediagonalizing the Fockian in SOSCF/NRSCF***

               *****************************************************
               *                     SUCCESS                       *
               *           SCF CONVERGED AFTER  16 CYCLES          *
               *****************************************************

Old exchange energy                            =    -25.325324208 Eh
New exchange energy                            =    -25.325325180 Eh
Exchange energy change after final integration =     -0.000000972 Eh
Total energy after final integration           =   -540.756526869 Eh
Final COS-X integration done in                =    60.653 sec

----------------
TOTAL SCF ENERGY
----------------

Total Energy       :         -540.75652687 Eh          -14714.73318 eV

Components:
Nuclear Repulsion  :          853.82350943 Eh           23233.71887 eV
Electronic Energy  :        -1394.58003630 Eh          -37948.45205 eV
One Electron Energy:        -2424.15083974 Eh          -65964.49792 eV
Two Electron Energy:         1029.57080344 Eh           28016.04587 eV
Max COSX asymmetry :            0.00000146 Eh               0.00004 eV
CPCM Dielectric    :           -0.01635562 Eh              -0.44506 eV

Virial components:
Potential Energy   :        -1078.65246851 Eh          -29351.62588 eV
Kinetic Energy     :          537.89594164 Eh           14636.89270 eV
Virial Ratio       :            2.00531810


DFT components:
N(Alpha)           :       49.999757868067 electrons
N(Beta)            :       49.999757868067 electrons
N(Total)           :       99.999515736134 electrons
E(XC)              :      -55.628355968925 Eh       
DFET-embed. en.    :        0.000000000000 Eh       
CPCM Solvation Model Properties:
Surface-charge          :           -0.03674615
Charge-correction       :           -0.00042005 Eh              -0.01143 eV
Free-energy (cav+disp)  :  This term is not implemented in the current solvation scheme

---------------
SCF CONVERGENCE
---------------

  Last Energy change         ...   -2.3646e-09  Tolerance :   1.0000e-08
  Last MAX-Density change    ...    2.2204e-15  Tolerance :   1.0000e-07
  Last RMS-Density change    ...    1.4516e-17  Tolerance :   5.0000e-09
  Last Orbital Gradient      ...    2.1430e-06  Tolerance :   1.0000e-05
  Last Orbital Rotation      ...    5.2284e-06  Tolerance :   1.0000e-05

             **** THE GBW FILE WAS UPDATED (5_deprot.gbw) ****
             **** DENSITY 5_deprot.scfp WAS UPDATED ****
             **** ENERGY FILE WAS UPDATED (5_deprot.en.tmp) ****
             **** THE GBW FILE WAS UPDATED (5_deprot.gbw) ****
             **** DENSITY 5_deprot.scfp WAS UPDATED ****
----------------
ORBITAL ENERGIES
----------------

  NO   OCC          E(Eh)            E(eV) 
   0   2.0000     -14.434144      -392.7730 
   1   2.0000     -14.434121      -392.7724 
   2   2.0000     -10.306644      -280.4580 
   3   2.0000     -10.306607      -280.4570 
   4   2.0000     -10.278261      -279.6857 
   5   2.0000     -10.277527      -279.6657 
   6   2.0000     -10.262503      -279.2569 
   7   2.0000     -10.244185      -278.7584 
   8   2.0000     -10.244164      -278.7579 
   9   2.0000     -10.244076      -278.7555 
  10   2.0000     -10.244065      -278.7552 
  11   2.0000     -10.240540      -278.6593 
  12   2.0000     -10.240510      -278.6584 
  13   2.0000      -1.151579       -31.3361 
  14   2.0000      -1.049642       -28.5622 
  15   2.0000      -0.956607       -26.0306 
  16   2.0000      -0.906918       -24.6785 
  17   2.0000      -0.871914       -23.7260 
  18   2.0000      -0.816099       -22.2072 
  19   2.0000      -0.815803       -22.1991 
  20   2.0000      -0.815530       -22.1917 
  21   2.0000      -0.810154       -22.0454 
  22   2.0000      -0.759380       -20.6638 
  23   2.0000      -0.721752       -19.6399 
  24   2.0000      -0.661021       -17.9873 
  25   2.0000      -0.651077       -17.7167 
  26   2.0000      -0.618334       -16.8257 
  27   2.0000      -0.581142       -15.8137 
  28   2.0000      -0.578722       -15.7478 
  29   2.0000      -0.557307       -15.1651 
  30   2.0000      -0.556209       -15.1352 
  31   2.0000      -0.550330       -14.9752 
  32   2.0000      -0.534448       -14.5431 
  33   2.0000      -0.529718       -14.4144 
  34   2.0000      -0.525975       -14.3125 
  35   2.0000      -0.503107       -13.6902 
  36   2.0000      -0.490156       -13.3378 
  37   2.0000      -0.481895       -13.1130 
  38   2.0000      -0.481052       -13.0901 
  39   2.0000      -0.473750       -12.8914 
  40   2.0000      -0.466107       -12.6834 
  41   2.0000      -0.465936       -12.6788 
  42   2.0000      -0.460673       -12.5355 
  43   2.0000      -0.446815       -12.1584 
  44   2.0000      -0.437369       -11.9014 
  45   2.0000      -0.434429       -11.8214 
  46   2.0000      -0.429348       -11.6831 
  47   2.0000      -0.366316        -9.9680 
  48   2.0000      -0.325140        -8.8475 
  49   2.0000      -0.321929        -8.7601 
  50   0.0000       0.111879         3.0444 
  51   0.0000       0.112382         3.0581 
  52   0.0000       0.114958         3.1282 
  53   0.0000       0.125978         3.4280 
  54   0.0000       0.155635         4.2350 
  55   0.0000       0.159613         4.3433 
  56   0.0000       0.160417         4.3652 
  57   0.0000       0.165810         4.5119 
  58   0.0000       0.169549         4.6137 
  59   0.0000       0.181195         4.9306 
  60   0.0000       0.181531         4.9397 
  61   0.0000       0.189675         5.1613 
  62   0.0000       0.191461         5.2099 
  63   0.0000       0.197637         5.3780 
  64   0.0000       0.203738         5.5440 
  65   0.0000       0.211776         5.7627 
  66   0.0000       0.215152         5.8546 
  67   0.0000       0.222444         6.0530 
  68   0.0000       0.241073         6.5599 
  69   0.0000       0.241871         6.5816 
  70   0.0000       0.243125         6.6158 
  71   0.0000       0.245763         6.6876 
  72   0.0000       0.248950         6.7743 
  73   0.0000       0.251689         6.8488 
  74   0.0000       0.254013         6.9120 
  75   0.0000       0.257995         7.0204 
  76   0.0000       0.258866         7.0441 
  77   0.0000       0.260609         7.0915 
  78   0.0000       0.268941         7.3182 
  79   0.0000       0.270496         7.3606 
  80   0.0000       0.273315         7.4373 
  81   0.0000       0.276973         7.5368 
  82   0.0000       0.287365         7.8196 
  83   0.0000       0.314054         8.5458 
  84   0.0000       0.320041         8.7088 
  85   0.0000       0.326096         8.8735 
  86   0.0000       0.329044         8.9537 
  87   0.0000       0.330315         8.9883 
  88   0.0000       0.344122         9.3640 
  89   0.0000       0.347826         9.4648 
  90   0.0000       0.370520        10.0824 
  91   0.0000       0.374637        10.1944 
  92   0.0000       0.381015        10.3679 
  93   0.0000       0.400628        10.9016 
  94   0.0000       0.404438        11.0053 
  95   0.0000       0.414023        11.2661 
  96   0.0000       0.425730        11.5847 
  97   0.0000       0.427323        11.6281 
  98   0.0000       0.430434        11.7127 
  99   0.0000       0.445950        12.1349 
 100   0.0000       0.453049        12.3281 
 101   0.0000       0.456520        12.4225 
 102   0.0000       0.458369        12.4729 
 103   0.0000       0.469202        12.7676 
 104   0.0000       0.472930        12.8691 
 105   0.0000       0.482733        13.1358 
 106   0.0000       0.487593        13.2681 
 107   0.0000       0.492112        13.3911 
 108   0.0000       0.497148        13.5281 
 109   0.0000       0.508034        13.8243 
 110   0.0000       0.511103        13.9078 
 111   0.0000       0.521763        14.1979 
 112   0.0000       0.523026        14.2323 
 113   0.0000       0.526069        14.3151 
 114   0.0000       0.530757        14.4426 
 115   0.0000       0.537262        14.6196 
 116   0.0000       0.538853        14.6629 
 117   0.0000       0.542403        14.7595 
 118   0.0000       0.543364        14.7857 
 119   0.0000       0.545392        14.8409 
 120   0.0000       0.555090        15.1048 
 121   0.0000       0.560608        15.2549 
 122   0.0000       0.561655        15.2834 
 123   0.0000       0.565874        15.3982 
 124   0.0000       0.566535        15.4162 
 125   0.0000       0.575364        15.6565 
 126   0.0000       0.580677        15.8010 
 127   0.0000       0.584036        15.8924 
 128   0.0000       0.595510        16.2047 
 129   0.0000       0.598494        16.2859 
 130   0.0000       0.606796        16.5118 
 131   0.0000       0.613035        16.6815 
 132   0.0000       0.614263        16.7149 
 133   0.0000       0.632831        17.2202 
 134   0.0000       0.636663        17.3245 
 135   0.0000       0.646180        17.5834 
 136   0.0000       0.652762        17.7626 
 137   0.0000       0.664735        18.0884 
 138   0.0000       0.665996        18.1227 
 139   0.0000       0.673127        18.3167 
 140   0.0000       0.691624        18.8201 
 141   0.0000       0.698773        19.0146 
 142   0.0000       0.701039        19.0762 
 143   0.0000       0.724944        19.7267 
 144   0.0000       0.726139        19.7593 
 145   0.0000       0.741669        20.1818 
 146   0.0000       0.777322        21.1520 
 147   0.0000       0.795788        21.6545 
 148   0.0000       0.798094        21.7172 
 149   0.0000       0.805137        21.9089 
 150   0.0000       0.812208        22.1013 
 151   0.0000       0.816801        22.2263 
 152   0.0000       0.826781        22.4979 
 153   0.0000       0.859931        23.3999 
 154   0.0000       0.875553        23.8250 
 155   0.0000       0.878576        23.9073 
 156   0.0000       0.884030        24.0557 
 157   0.0000       0.896202        24.3869 
 158   0.0000       0.902390        24.5553 
 159   0.0000       0.925611        25.1871 
 160   0.0000       0.932367        25.3710 
 161   0.0000       0.951626        25.8951 
 162   0.0000       0.953412        25.9437 
 163   0.0000       0.963899        26.2290 
 164   0.0000       0.966293        26.2942 
 165   0.0000       0.969492        26.3812 
 166   0.0000       0.980228        26.6734 
 167   0.0000       0.997967        27.1561 
 168   0.0000       1.001657        27.2565 
 169   0.0000       1.009942        27.4819 
 170   0.0000       1.022324        27.8189 
 171   0.0000       1.043514        28.3955 
 172   0.0000       1.053743        28.6738 
 173   0.0000       1.069641        29.1064 
 174   0.0000       1.078585        29.3498 
 175   0.0000       1.092618        29.7316 
 176   0.0000       1.098773        29.8991 
 177   0.0000       1.100734        29.9525 
 178   0.0000       1.113011        30.2866 
 179   0.0000       1.125723        30.6325 
 180   0.0000       1.128388        30.7050 
 181   0.0000       1.157004        31.4837 
 182   0.0000       1.161586        31.6084 
 183   0.0000       1.169694        31.8290 
 184   0.0000       1.190801        32.4033 
 185   0.0000       1.203672        32.7536 
 186   0.0000       1.213036        33.0084 
 187   0.0000       1.220083        33.2001 
 188   0.0000       1.227583        33.4042 
 189   0.0000       1.232107        33.5273 
 190   0.0000       1.241220        33.7753 
 191   0.0000       1.246937        33.9309 
 192   0.0000       1.258571        34.2475 
 193   0.0000       1.293815        35.2065 
 194   0.0000       1.302036        35.4302 
 195   0.0000       1.315763        35.8037 
 196   0.0000       1.338793        36.4304 
 197   0.0000       1.341381        36.5008 
 198   0.0000       1.342531        36.5321 
 199   0.0000       1.356195        36.9039 
 200   0.0000       1.363274        37.0966 
 201   0.0000       1.365477        37.1565 
 202   0.0000       1.381056        37.5804 
 203   0.0000       1.399679        38.0872 
 204   0.0000       1.402645        38.1679 
 205   0.0000       1.420647        38.6578 
 206   0.0000       1.427827        38.8532 
 207   0.0000       1.455775        39.6136 
 208   0.0000       1.464777        39.8586 
 209   0.0000       1.512316        41.1522 
 210   0.0000       1.523734        41.4629 
 211   0.0000       1.545357        42.0513 
 212   0.0000       1.561042        42.4781 
 213   0.0000       1.567381        42.6506 
 214   0.0000       1.581151        43.0253 
 215   0.0000       1.584493        43.1162 
 216   0.0000       1.608696        43.7748 
 217   0.0000       1.626111        44.2487 
 218   0.0000       1.642458        44.6936 
 219   0.0000       1.645998        44.7899 
 220   0.0000       1.656634        45.0793 
 221   0.0000       1.668523        45.4028 
 222   0.0000       1.673579        45.5404 
 223   0.0000       1.682170        45.7742 
 224   0.0000       1.685949        45.8770 
 225   0.0000       1.695586        46.1393 
 226   0.0000       1.701814        46.3087 
 227   0.0000       1.703005        46.3411 
 228   0.0000       1.707769        46.4707 
 229   0.0000       1.711111        46.5617 
 230   0.0000       1.716901        46.7193 
 231   0.0000       1.720802        46.8254 
 232   0.0000       1.722483        46.8711 
 233   0.0000       1.726700        46.9859 
 234   0.0000       1.737441        47.2782 
 235   0.0000       1.755175        47.7607 
 236   0.0000       1.757137        47.8141 
 237   0.0000       1.758678        47.8561 
 238   0.0000       1.762709        47.9657 
 239   0.0000       1.768514        48.1237 
 240   0.0000       1.778420        48.3933 
 241   0.0000       1.781546        48.4783 
 242   0.0000       1.803950        49.0880 
 243   0.0000       1.814119        49.3647 
 244   0.0000       1.817635        49.4604 
 245   0.0000       1.821102        49.5547 
 246   0.0000       1.840078        50.0711 
 247   0.0000       1.848042        50.2878 
 248   0.0000       1.873682        50.9855 
 249   0.0000       1.898246        51.6539 
 250   0.0000       1.899120        51.6777 
 251   0.0000       1.909314        51.9551 
 252   0.0000       1.910519        51.9879 
 253   0.0000       1.929876        52.5146 
 254   0.0000       1.940751        52.8105 
 255   0.0000       1.950325        53.0710 
 256   0.0000       2.001676        54.4684 
 257   0.0000       2.002909        54.5019 
 258   0.0000       2.004606        54.5481 
 259   0.0000       2.041378        55.5487 
 260   0.0000       2.045841        55.6702 
 261   0.0000       2.058669        56.0192 
 262   0.0000       2.079409        56.5836 
 263   0.0000       2.085289        56.7436 
 264   0.0000       2.093622        56.9704 
 265   0.0000       2.130705        57.9794 
 266   0.0000       2.131718        58.0070 
 267   0.0000       2.147458        58.4353 
 268   0.0000       2.153603        58.6025 
 269   0.0000       2.157925        58.7201 
 270   0.0000       2.178518        59.2805 
 271   0.0000       2.221659        60.4544 
 272   0.0000       2.224953        60.5441 
 273   0.0000       2.250179        61.2305 
 274   0.0000       2.251695        61.2717 
 275   0.0000       2.266780        61.6822 
 276   0.0000       2.274345        61.8881 
 277   0.0000       2.292417        62.3798 
 278   0.0000       2.302174        62.6453 
 279   0.0000       2.330383        63.4130 
 280   0.0000       2.358399        64.1753 
 281   0.0000       2.364645        64.3453 
 282   0.0000       2.382317        64.8261 
 283   0.0000       2.387111        64.9566 
 284   0.0000       2.390631        65.0524 
 285   0.0000       2.392095        65.0922 
 286   0.0000       2.398740        65.2730 
 287   0.0000       2.419481        65.8374 
 288   0.0000       2.420430        65.8632 
 289   0.0000       2.424504        65.9741 
 290   0.0000       2.425896        66.0120 
 291   0.0000       2.432575        66.1937 
 292   0.0000       2.443726        66.4972 
 293   0.0000       2.447887        66.6104 
 294   0.0000       2.457506        66.8721 
 295   0.0000       2.472236        67.2730 
 296   0.0000       2.480940        67.5098 
 297   0.0000       2.488208        67.7076 
 298   0.0000       2.492420        67.8222 
 299   0.0000       2.497778        67.9680 
 300   0.0000       2.506462        68.2043 
 301   0.0000       2.507798        68.2406 
 302   0.0000       2.517180        68.4960 
 303   0.0000       2.521958        68.6260 
 304   0.0000       2.529648        68.8352 
 305   0.0000       2.532036        68.9002 
 306   0.0000       2.555724        69.5448 
 307   0.0000       2.588166        70.4276 
 308   0.0000       2.596358        70.6505 
 309   0.0000       2.601367        70.7868 
 310   0.0000       2.616706        71.2042 
 311   0.0000       2.623330        71.3845 
 312   0.0000       2.631153        71.5973 
 313   0.0000       2.638151        71.7877 
 314   0.0000       2.653502        72.2055 
 315   0.0000       2.668564        72.6153 
 316   0.0000       2.670698        72.6734 
 317   0.0000       2.685713        73.0820 
 318   0.0000       2.696410        73.3731 
 319   0.0000       2.711998        73.7972 
 320   0.0000       2.715404        73.8899 
 321   0.0000       2.721115        74.0453 
 322   0.0000       2.721927        74.0674 
 323   0.0000       2.731103        74.3171 
 324   0.0000       2.741580        74.6022 
 325   0.0000       2.752225        74.8918 
 326   0.0000       2.761314        75.1392 
 327   0.0000       2.767358        75.3037 
 328   0.0000       2.772016        75.4304 
 329   0.0000       2.778524        75.6075 
 330   0.0000       2.788426        75.8769 
 331   0.0000       2.797116        76.1134 
 332   0.0000       2.815199        76.6055 
 333   0.0000       2.818175        76.6864 
 334   0.0000       2.830676        77.0266 
 335   0.0000       2.838374        77.2361 
 336   0.0000       2.853421        77.6455 
 337   0.0000       2.874278        78.2131 
 338   0.0000       2.892751        78.7158 
 339   0.0000       2.906285        79.0840 
 340   0.0000       2.909624        79.1749 
 341   0.0000       2.921930        79.5097 
 342   0.0000       2.936286        79.9004 
 343   0.0000       2.944590        80.1264 
 344   0.0000       2.946758        80.1854 
 345   0.0000       2.961812        80.5950 
 346   0.0000       2.977262        81.0154 
 347   0.0000       2.984026        81.1995 
 348   0.0000       2.997440        81.5645 
 349   0.0000       3.008129        81.8554 
 350   0.0000       3.019547        82.1660 
 351   0.0000       3.033917        82.5571 
 352   0.0000       3.061035        83.2950 
 353   0.0000       3.070529        83.5533 
 354   0.0000       3.092787        84.1590 
 355   0.0000       3.095888        84.2434 
 356   0.0000       3.109037        84.6012 
 357   0.0000       3.125691        85.0544 
 358   0.0000       3.128609        85.1338 
 359   0.0000       3.143354        85.5350 
 360   0.0000       3.178419        86.4892 
 361   0.0000       3.185298        86.6764 
 362   0.0000       3.203318        87.1667 
 363   0.0000       3.204158        87.1896 
 364   0.0000       3.224690        87.7483 
 365   0.0000       3.261534        88.7509 
 366   0.0000       3.262183        88.7685 
 367   0.0000       3.279021        89.2267 
 368   0.0000       3.288587        89.4870 
 369   0.0000       3.302330        89.8610 
 370   0.0000       3.306686        89.9795 
 371   0.0000       3.313455        90.1637 
 372   0.0000       3.319784        90.3359 
 373   0.0000       3.321988        90.3959 
 374   0.0000       3.327416        90.5436 
 375   0.0000       3.343738        90.9877 
 376   0.0000       3.345292        91.0300 
 377   0.0000       3.357979        91.3753 
 378   0.0000       3.364206        91.5447 
 379   0.0000       3.365079        91.5684 
 380   0.0000       3.377232        91.8992 
 381   0.0000       3.391260        92.2809 
 382   0.0000       3.402612        92.5898 
 383   0.0000       3.411123        92.8214 
 384   0.0000       3.420507        93.0767 
 385   0.0000       3.431215        93.3681 
 386   0.0000       3.432187        93.3946 
 387   0.0000       3.432763        93.4102 
 388   0.0000       3.445543        93.7580 
 389   0.0000       3.447048        93.7989 
 390   0.0000       3.469916        94.4212 
 391   0.0000       3.475328        94.5685 
 392   0.0000       3.476349        94.5963 
 393   0.0000       3.477915        94.6389 
 394   0.0000       3.487951        94.9120 
 395   0.0000       3.490291        94.9756 
 396   0.0000       3.490920        94.9928 
 397   0.0000       3.495332        95.1128 
 398   0.0000       3.520596        95.8003 
 399   0.0000       3.523292        95.8737 
 400   0.0000       3.529905        96.0536 
 401   0.0000       3.548933        96.5714 
 402   0.0000       3.564258        96.9884 
 403   0.0000       3.576354        97.3175 
 404   0.0000       3.590070        97.6908 
 405   0.0000       3.598121        97.9099 
 406   0.0000       3.608543        98.1935 
 407   0.0000       3.611612        98.2770 
 408   0.0000       3.652207        99.3816 
 409   0.0000       3.659421        99.5779 
 410   0.0000       3.681964       100.1913 
 411   0.0000       3.696854       100.5965 
 412   0.0000       3.718397       101.1827 
 413   0.0000       3.744063       101.8811 
 414   0.0000       3.754110       102.1545 
 415   0.0000       3.756439       102.2179 
 416   0.0000       3.761184       102.3470 
 417   0.0000       3.778478       102.8176 
 418   0.0000       3.783211       102.9464 
 419   0.0000       3.785651       103.0128 
 420   0.0000       3.815577       103.8271 
 421   0.0000       3.822470       104.0147 
 422   0.0000       3.841136       104.5226 
 423   0.0000       3.842991       104.5731 
 424   0.0000       3.852758       104.8389 
 425   0.0000       3.879575       105.5686 
 426   0.0000       3.889801       105.8469 
 427   0.0000       3.938266       107.1657 
 428   0.0000       3.946714       107.3955 
 429   0.0000       3.977650       108.2374 
 430   0.0000       3.993729       108.6749 
 431   0.0000       4.059507       110.4648 
 432   0.0000       4.060791       110.4997 
 433   0.0000       4.093365       111.3861 
 434   0.0000       4.113508       111.9342 
 435   0.0000       4.128531       112.3430 
 436   0.0000       4.130386       112.3935 
 437   0.0000       4.165269       113.3427 
 438   0.0000       4.169152       113.4484 
 439   0.0000       4.185790       113.9011 
 440   0.0000       4.206652       114.4688 
 441   0.0000       4.210195       114.5652 
 442   0.0000       4.216810       114.7452 
 443   0.0000       4.219567       114.8203 
 444   0.0000       4.224873       114.9646 
 445   0.0000       4.239562       115.3643 
 446   0.0000       4.249308       115.6296 
 447   0.0000       4.250768       115.6693 
 448   0.0000       4.265195       116.0619 
 449   0.0000       4.293815       116.8406 
 450   0.0000       4.309138       117.2576 
 451   0.0000       4.393279       119.5472 
 452   0.0000       4.395114       119.5971 
 453   0.0000       4.403003       119.8118 
 454   0.0000       4.421031       120.3024 
 455   0.0000       4.424317       120.3918 
 456   0.0000       4.450598       121.1069 
 457   0.0000       4.462428       121.4289 
 458   0.0000       4.480421       121.9185 
 459   0.0000       4.497397       122.3804 
 460   0.0000       4.502781       122.5269 
 461   0.0000       4.508603       122.6853 
 462   0.0000       4.510553       122.7384 
 463   0.0000       4.524352       123.1139 
 464   0.0000       4.550539       123.8265 
 465   0.0000       4.550871       123.8355 
 466   0.0000       4.576738       124.5394 
 467   0.0000       4.587304       124.8269 
 468   0.0000       4.594820       125.0314 
 469   0.0000       4.596433       125.0753 
 470   0.0000       4.599955       125.1711 
 471   0.0000       4.606351       125.3452 
 472   0.0000       4.650159       126.5373 
 473   0.0000       4.751778       129.3025 
 474   0.0000       4.813212       130.9742 
 475   0.0000       4.821593       131.2022 
 476   0.0000       4.837986       131.6483 
 477   0.0000       4.900646       133.3534 
 478   0.0000       4.915997       133.7711 
 479   0.0000       4.941441       134.4635 
 480   0.0000       4.971218       135.2737 
 481   0.0000       4.973951       135.3481 
 482   0.0000       5.008016       136.2751 
 483   0.0000       5.042545       137.2146 
 484   0.0000       5.047548       137.3508 
 485   0.0000       5.067070       137.8820 
 486   0.0000       5.081110       138.2640 
 487   0.0000       5.108337       139.0049 
 488   0.0000       5.132836       139.6716 
 489   0.0000       5.192013       141.2819 
 490   0.0000       5.200365       141.5091 
 491   0.0000       5.231559       142.3580 
 492   0.0000       5.266514       143.3091 
 493   0.0000       5.320559       144.7798 
 494   0.0000       5.358535       145.8131 
 495   0.0000       5.372791       146.2011 
 496   0.0000       5.489095       149.3659 
 497   0.0000       5.498842       149.6311 
 498   0.0000       5.506223       149.8320 
 499   0.0000       5.514140       150.0474 
 500   0.0000       5.688554       154.7934 
 501   0.0000       5.721885       155.7004 
 502   0.0000       5.735705       156.0765 
 503   0.0000       5.848995       159.1592 
 504   0.0000       5.992694       163.0695 
[...]
     46       0.001257  -0.007273  -0.006335
     47      -0.001271   0.006970   0.005927
     48      -0.002948  -0.001083   0.000772
     49      -0.009385  -0.002798   0.002091
     50      -0.009270  -0.002702   0.001964
     51       0.638132   0.000137   0.000217
     52      -0.204771  -0.000012  -0.000145
     53      -0.483944  -0.000211  -0.000064
     54      -0.000388  -0.000206  -0.000153
     55      -0.000278  -0.000157  -0.000135
     56       0.004538   0.002423   0.001912
     57      -0.000107   0.000452   0.000332
     58       0.001021  -0.003428  -0.002812
     59       0.000601  -0.001731  -0.001434
     60      -0.026616  -0.016012   0.012687
     61       0.013697   0.009324  -0.007561
     62      -0.016957  -0.011843   0.009744
     63       0.072429  -0.000351   0.000164
     64       0.180182  -0.001602   0.001228
     65      -0.080199   0.000949  -0.000782
     66      -0.004247   0.000806   0.000680
     67      -0.003578   0.000140   0.000115
     68       0.001028  -0.000132  -0.000157
     69      -0.001678   0.001797   0.001413
     70      -0.001440   0.001191   0.000958
     71       0.000596  -0.000132  -0.000056
     72       0.006418   0.000391  -0.000277
     73       0.013076   0.001955  -0.001429
     74      -0.007205  -0.000912   0.000614
     75      -0.004649   0.000723  -0.000568
     76      -0.003012  -0.000346   0.000283
     77       0.004140   0.000318  -0.000266
     78       0.001954   0.000069  -0.000007
     79      -0.002059  -0.000003  -0.000051
     80      -0.007347   0.000029   0.000015
     81       0.017281  -0.000056  -0.000000
     82       0.047310   0.000503  -0.000365
     83      -0.023466  -0.000570   0.000455
     84      -0.011388  -0.001526  -0.001380
     85      -0.010563  -0.000925  -0.000716
     86       0.002716   0.000252   0.000169
     87       0.037112  -0.001754   0.001238
     88      -0.012481   0.000585  -0.000405
     89      -0.032600   0.001564  -0.001103
     90      -0.002966   0.000109   0.000124
     91      -0.007178   0.000004  -0.000022
     92       0.068271  -0.000224   0.000242
     93      -0.009404   0.000090   0.000153
     94       0.042137   0.000021  -0.000112
     95       0.017419   0.000065  -0.000032
     96       0.001855  -0.007729   0.006120
     97      -0.001252   0.004256  -0.003491
     98       0.001541  -0.005422   0.004262


-----------
IR SPECTRUM
-----------

 Mode   freq       eps      Int      T**2         TX        TY        TZ
       cm**-1   L/(mol*cm) km/mol    a.u.
----------------------------------------------------------------------------
  6:     31.86   0.000002    0.01  0.000020  ( 0.001670  0.002632  0.003252)
  7:     41.92   0.000002    0.01  0.000015  (-0.001214 -0.000284  0.003652)
  8:    126.08   0.004428   22.38  0.010960  ( 0.020679 -0.056061 -0.085964)
  9:    155.31   0.000229    1.16  0.000460  (-0.017450  0.011403 -0.005020)
 10:    156.53   0.000404    2.04  0.000806  (-0.021362  0.007736 -0.017024)
 11:    218.13   0.000262    1.32  0.000375  (-0.003033  0.012053  0.014848)
 12:    233.25   0.000070    0.36  0.000094  (-0.001824 -0.006115 -0.007302)
 13:    260.95   0.000024    0.12  0.000029  ( 0.002037  0.004037 -0.002859)
 14:    272.33   0.000086    0.43  0.000098  (-0.007329 -0.005102  0.004276)
 15:    277.64   0.000226    1.14  0.000254  ( 0.008282  0.010528 -0.008623)
 16:    287.22   0.000205    1.03  0.000222  (-0.009832 -0.009086  0.006561)
 17:    293.82   0.000032    0.16  0.000034  ( 0.002354 -0.001316 -0.005195)
 18:    304.22   0.000014    0.07  0.000014  ( 0.000663 -0.003713 -0.000173)
 19:    348.79   0.001177    5.95  0.001053  ( 0.009688 -0.016324 -0.026315)
 20:    352.60   0.000151    0.76  0.000133  (-0.005800 -0.000209 -0.009976)
 21:    368.57   0.000007    0.03  0.000006  (-0.000620 -0.001992  0.001101)
 22:    376.72   0.001046    5.29  0.000867  (-0.015491 -0.023972  0.007203)
 23:    408.18   0.000121    0.61  0.000093  ( 0.006221  0.004759 -0.005599)
 24:    453.31   0.001996   10.09  0.001374  ( 0.008126 -0.018300 -0.031198)
 25:    474.46   0.000002    0.01  0.000001  (-0.000342 -0.000507 -0.000844)
 26:    476.50   0.000141    0.71  0.000092  ( 0.007796 -0.003959  0.003985)
 27:    531.49   0.001359    6.87  0.000798  (-0.015823 -0.021484  0.009261)
 28:    577.74   0.000385    1.94  0.000208  ( 0.011453 -0.006009  0.006369)
 29:    654.60   0.004822   24.37  0.002299  ( 0.028055  0.033272 -0.020117)
 30:    666.80   0.001539    7.78  0.000720  (-0.001947  0.018004  0.019803)
 31:    686.78   0.000037    0.19  0.000017  (-0.000618  0.002155  0.003456)
 32:    766.14   0.019395   98.02  0.007900  (-0.016750  0.047876  0.072989)
 33:    843.83   0.000072    0.37  0.000027  ( 0.004334 -0.002004  0.001987)
 34:    854.11   0.001776    8.97  0.000649  ( 0.014103  0.019221 -0.008971)
 35:    895.16   0.000155    0.78  0.000054  (-0.000770  0.003693  0.006300)
 36:    944.32   0.000160    0.81  0.000053  (-0.003535  0.002875  0.005672)
 37:    945.37   0.000120    0.60  0.000039  (-0.001310  0.001533  0.005949)
 38:    956.33   0.000592    2.99  0.000193  (-0.009503  0.007150 -0.007186)
 39:    957.35   0.000195    0.99  0.000064  ( 0.007635  0.001556  0.001700)
 40:    976.05   0.000044    0.22  0.000014  (-0.001209  0.001996  0.002937)
 41:    976.52   0.000037    0.19  0.000012  ( 0.000294 -0.002209 -0.002647)
 42:   1004.89   0.002580   13.04  0.000801  ( 0.016080  0.020815 -0.010457)
 43:   1023.02   0.000382    1.93  0.000117  (-0.007645  0.005200 -0.005575)
 44:   1051.90   0.000018    0.09  0.000005  ( 0.001200 -0.000704  0.001827)
 45:   1053.09   0.000026    0.13  0.000008  ( 0.002409 -0.001283  0.000403)
 46:   1059.57   0.000242    1.22  0.000071  ( 0.000659 -0.003366 -0.007712)
 47:   1061.75   0.000231    1.17  0.000068  (-0.003285  0.004335  0.006190)
 48:   1129.35   0.003285   16.60  0.000908  (-0.022947  0.013539 -0.014065)
 49:   1172.75   0.002211   11.17  0.000588  (-0.015402 -0.016063  0.009645)
 50:   1222.22   0.000629    3.18  0.000161  (-0.009684  0.005824 -0.005740)
 51:   1254.76   0.021397  108.13  0.005322  (-0.041440 -0.055826  0.022086)
 52:   1257.14   0.000660    3.33  0.000164  (-0.005425  0.009340 -0.006863)
 53:   1272.26   0.000107    0.54  0.000026  ( 0.000332 -0.001623 -0.004846)
 54:   1273.41   0.007144   36.10  0.001751  ( 0.005191 -0.026211 -0.032197)
 55:   1282.89   0.039038  197.28  0.009496  (-0.055960 -0.070261  0.037788)
 56:   1351.81   0.003516   17.77  0.000812  (-0.016460 -0.021155  0.009653)
 57:   1367.75   0.003484   17.61  0.000795  (-0.022809  0.010969 -0.012423)
 58:   1386.35   0.000209    1.06  0.000047  ( 0.005665 -0.002175  0.003208)
 59:   1405.05   0.004969   25.11  0.001104  ( 0.008654 -0.022720 -0.022638)
 60:   1405.27   0.004584   23.16  0.001018  (-0.001392 -0.016322 -0.027378)
 61:   1410.75   0.000848    4.28  0.000188  (-0.002923  0.001910 -0.013242)
 62:   1413.68   0.013696   69.22  0.003023  ( 0.044751 -0.022462  0.022720)
 63:   1424.58   0.001810    9.15  0.000397  ( 0.015528  0.010321 -0.006994)
 64:   1425.67   0.001001    5.06  0.000219  ( 0.001578  0.010946 -0.009837)
 65:   1454.90   0.018991   95.97  0.004073  ( 0.035942  0.047149 -0.023634)
 66:   1465.94   0.000068    0.34  0.000014  ( 0.000230  0.000381 -0.003774)
 67:   1466.08   0.000688    3.48  0.000146  (-0.004873  0.002388  0.010813)
 68:   1471.01   0.000003    0.02  0.000001  (-0.000372  0.000543  0.000499)
 69:   1472.92   0.000076    0.38  0.000016  ( 0.002593  0.003048  0.000062)
 70:   1474.14   0.000004    0.02  0.000001  (-0.000512 -0.000720 -0.000298)
 71:   1475.62   0.000047    0.24  0.000010  (-0.001806 -0.002528  0.000574)
 72:   1487.11   0.001291    6.52  0.000271  (-0.001677  0.008456  0.014017)
 73:   1487.74   0.001071    5.41  0.000225  (-0.006135  0.008929  0.010360)
 74:   1493.43   0.003145   15.89  0.000657  ( 0.011156 -0.019718  0.011997)
 75:   1494.40   0.003004   15.18  0.000627  (-0.023149 -0.007606 -0.005800)
 76:   1501.01   0.001853    9.36  0.000385  (-0.009308 -0.015886  0.006795)
 77:   1503.68   0.000690    3.49  0.000143  (-0.011440 -0.003440 -0.000663)
 78:   1647.85   0.000048    0.24  0.000009  ( 0.002372 -0.001277  0.001364)
 79:   3063.41   0.010936   55.27  0.001114  (-0.006157  0.021361  0.024897)
 80:   3063.43   0.003843   19.42  0.000392  (-0.000829 -0.009984 -0.017063)
 81:   3067.25   0.003294   16.65  0.000335  ( 0.001530  0.008389 -0.016199)
 82:   3067.40   0.004879   24.66  0.000496  (-0.021015  0.006302 -0.003879)
 83:   3076.59   0.003325   16.80  0.000337  ( 0.018315  0.001331  0.000137)
 84:   3076.85   0.003650   18.45  0.000370  ( 0.007000 -0.011980  0.013329)
 85:   3145.17   0.005475   27.67  0.000543  ( 0.017911 -0.009369 -0.011602)
 86:   3145.23   0.004490   22.69  0.000445  (-0.007005  0.002101 -0.019799)
 87:   3147.36   0.005120   25.88  0.000508  ( 0.013961  0.014845  0.009614)
 88:   3147.38   0.006685   33.78  0.000663  ( 0.015595 -0.018639  0.008498)
 89:   3148.84   0.002148   10.86  0.000213  ( 0.006967  0.007636 -0.010297)
 90:   3148.89   0.001020    5.15  0.000101  ( 0.009763 -0.000660 -0.002303)
 91:   3152.03   0.001130    5.71  0.000112  (-0.009621  0.002263  0.003765)
 92:   3152.17   0.013435   67.89  0.001330  (-0.028656  0.012341 -0.018883)
 93:   3156.72   0.026847  135.67  0.002654  (-0.021923 -0.045130  0.011693)
 94:   3157.35   0.008773   44.33  0.000867  (-0.022012 -0.019097  0.004225)
 95:   3164.71   0.008253   41.71  0.000814  ( 0.008163 -0.008615 -0.025942)
 96:   3166.03   0.005910   29.86  0.000582  (-0.011909  0.004968  0.020396)
 97:   3289.33   0.000870    4.39  0.000082  (-0.004806 -0.006883  0.003466)
 98:   3309.57   0.000007    0.03  0.000001  ( 0.000454 -0.000551  0.000330)

* The epsilon (eps) is given for a Dirac delta lineshape.
** The dipole moment derivative (T) already includes vibrational overlap.

The first frequency considered to be a vibration is 6
The total number of vibrations considered is 93


--------------------------
THERMOCHEMISTRY AT 298.15K
--------------------------

Temperature         ... 298.15 K
Pressure            ... 1.00 atm
Total Mass          ... 180.29 AMU

Throughout the following assumptions are being made:
  (1) The electronic state is orbitally nondegenerate
  (2) There are no thermally accessible electronically excited states
  (3) Hindered rotations indicated by low frequency modes are not
      treated as such but are treated as vibrations and this may
      cause some error
  (4) All equations used are the standard statistical mechanics
      equations for an ideal gas
  (5) All vibrations are strictly harmonic

freq.      31.86  E(vib)   ...       0.55 
freq.      41.92  E(vib)   ...       0.53 
freq.     126.08  E(vib)   ...       0.43 
freq.     155.31  E(vib)   ...       0.40 
freq.     156.53  E(vib)   ...       0.40 
freq.     218.13  E(vib)   ...       0.33 
freq.     233.25  E(vib)   ...       0.32 
freq.     260.95  E(vib)   ...       0.30 
freq.     272.33  E(vib)   ...       0.29 
freq.     277.64  E(vib)   ...       0.28 
freq.     287.22  E(vib)   ...       0.27 
freq.     293.82  E(vib)   ...       0.27 
freq.     304.22  E(vib)   ...       0.26 
freq.     348.79  E(vib)   ...       0.23 
freq.     352.60  E(vib)   ...       0.22 
freq.     368.57  E(vib)   ...       0.21 
freq.     376.72  E(vib)   ...       0.21 
freq.     408.18  E(vib)   ...       0.19 
freq.     453.31  E(vib)   ...       0.16 
freq.     474.46  E(vib)   ...       0.15 
freq.     476.50  E(vib)   ...       0.15 
freq.     531.49  E(vib)   ...       0.13 
freq.     577.74  E(vib)   ...       0.11 
freq.     654.60  E(vib)   ...       0.08 
freq.     666.80  E(vib)   ...       0.08 
freq.     686.78  E(vib)   ...       0.07 
freq.     766.14  E(vib)   ...       0.06 
freq.     843.83  E(vib)   ...       0.04 
freq.     854.11  E(vib)   ...       0.04 
freq.     895.16  E(vib)   ...       0.03 
freq.     944.32  E(vib)   ...       0.03 
freq.     945.37  E(vib)   ...       0.03 
freq.     956.33  E(vib)   ...       0.03 
freq.     957.35  E(vib)   ...       0.03 
freq.     976.05  E(vib)   ...       0.03 
freq.     976.52  E(vib)   ...       0.03 
freq.    1004.89  E(vib)   ...       0.02 
freq.    1023.02  E(vib)   ...       0.02 
freq.    1051.90  E(vib)   ...       0.02 
freq.    1053.09  E(vib)   ...       0.02 
freq.    1059.57  E(vib)   ...       0.02 
freq.    1061.75  E(vib)   ...       0.02 
freq.    1129.35  E(vib)   ...       0.01 
freq.    1172.75  E(vib)   ...       0.01 
freq.    1222.22  E(vib)   ...       0.01 
freq.    1254.76  E(vib)   ...       0.01 
freq.    1257.14  E(vib)   ...       0.01 
freq.    1272.26  E(vib)   ...       0.01 
freq.    1273.41  E(vib)   ...       0.01 
freq.    1282.89  E(vib)   ...       0.01 
freq.    1351.81  E(vib)   ...       0.01 
freq.    1367.75  E(vib)   ...       0.01 
freq.    1386.35  E(vib)   ...       0.00 
freq.    1405.05  E(vib)   ...       0.00 
freq.    1405.27  E(vib)   ...       0.00 
freq.    1410.75  E(vib)   ...       0.00 
freq.    1413.68  E(vib)   ...       0.00 
freq.    1424.58  E(vib)   ...       0.00 
freq.    1425.67  E(vib)   ...       0.00 
freq.    1454.90  E(vib)   ...       0.00 
freq.    1465.94  E(vib)   ...       0.00 
freq.    1466.08  E(vib)   ...       0.00 
freq.    1471.01  E(vib)   ...       0.00 
freq.    1472.92  E(vib)   ...       0.00 
freq.    1474.14  E(vib)   ...       0.00 
freq.    1475.62  E(vib)   ...       0.00 
freq.    1487.11  E(vib)   ...       0.00 
freq.    1487.74  E(vib)   ...       0.00 
freq.    1493.43  E(vib)   ...       0.00 
freq.    1494.40  E(vib)   ...       0.00 
freq.    1501.01  E(vib)   ...       0.00 
freq.    1503.68  E(vib)   ...       0.00 
freq.    1647.85  E(vib)   ...       0.00 
freq.    3063.41  E(vib)   ...       0.00 
freq.    3063.43  E(vib)   ...       0.00 
freq.    3067.25  E(vib)   ...       0.00 
freq.    3067.40  E(vib)   ...       0.00 
freq.    3076.59  E(vib)   ...       0.00 
freq.    3076.85  E(vib)   ...       0.00 
freq.    3145.17  E(vib)   ...       0.00 
freq.    3145.23  E(vib)   ...       0.00 
freq.    3147.36  E(vib)   ...       0.00 
freq.    3147.38  E(vib)   ...       0.00 
freq.    3148.84  E(vib)   ...       0.00 
freq.    3148.89  E(vib)   ...       0.00 
freq.    3152.03  E(vib)   ...       0.00 
freq.    3152.17  E(vib)   ...       0.00 
freq.    3156.72  E(vib)   ...       0.00 
freq.    3157.35  E(vib)   ...       0.00 
freq.    3164.71  E(vib)   ...       0.00 
freq.    3166.03  E(vib)   ...       0.00 
freq.    3289.33  E(vib)   ...       0.00 
freq.    3309.57  E(vib)   ...       0.00 

------------
INNER ENERGY
------------

The inner energy is: U= E(el) + E(ZPE) + E(vib) + E(rot) + E(trans)
    E(el)   - is the total energy from the electronic structure calculation
              = E(kin-el) + E(nuc-el) + E(el-el) + E(nuc-nuc)
    E(ZPE)  - the the zero temperature vibrational energy from the frequency calculation
    E(vib)  - the the finite temperature correction to E(ZPE) due to population
              of excited vibrational states
    E(rot)  - is the rotational thermal energy
    E(trans)- is the translational thermal energy

Summary of contributions to the inner energy U:
Electronic energy                ...   -540.76357759 Eh
Zero point energy                ...      0.29753430 Eh     186.71 kcal/mol
Thermal vibrational correction   ...      0.01155254 Eh       7.25 kcal/mol
Thermal rotational correction    ...      0.00141627 Eh       0.89 kcal/mol
Thermal translational correction ...      0.00141627 Eh       0.89 kcal/mol
-----------------------------------------------------------------------
Total thermal energy                   -540.45165821 Eh


Summary of corrections to the electronic energy:
(perhaps to be used in another calculation)
Total thermal correction                  0.01438508 Eh       9.03 kcal/mol
Non-thermal (ZPE) correction              0.29753430 Eh     186.71 kcal/mol
-----------------------------------------------------------------------
Total correction                          0.31191938 Eh     195.73 kcal/mol


--------
ENTHALPY
--------

The enthalpy is H = U + kB*T
                kB is Boltzmann's constant
Total free energy                 ...   -540.45165821 Eh 
Thermal Enthalpy correction       ...      0.00094421 Eh       0.59 kcal/mol
-----------------------------------------------------------------------
Total Enthalpy                    ...   -540.45071400 Eh


Note: Only C1 symmetry has been detected, increase convergence thresholds 
      if your molecule has a higher symmetry. Symmetry factor of 1.0 is   
      used for the rotational entropy correction. 
 

Note: Rotational entropy computed according to Herzberg 
Infrared and Raman Spectra, Chapter V,1, Van Nostrand Reinhold, 1945 
Point Group:  C1, Symmetry Number:   1  
Rotational constants in cm-1:     0.056716     0.014873     0.013942 

Vibrational entropy computed according to the QRRHO of S. Grimme
Chem.Eur.J. 2012 18 9955


-------
ENTROPY
-------

The entropy contributions are T*S = T*(S(el)+S(vib)+S(rot)+S(trans))
     S(el)   - electronic entropy
     S(vib)  - vibrational entropy
     S(rot)  - rotational entropy
     S(trans)- translational entropy
The entropies will be listed as multiplied by the temperature to get
units of energy

Electronic entropy                ...      0.00000000 Eh      0.00 kcal/mol
Vibrational entropy               ...      0.01950201 Eh     12.24 kcal/mol
Rotational entropy                ...      0.01486939 Eh      9.33 kcal/mol
Translational entropy             ...      0.01970603 Eh     12.37 kcal/mol
-----------------------------------------------------------------------
Final entropy term                ...      0.05407743 Eh     33.93 kcal/mol

In case the symmetry of your molecule has not been determined correctly
or in case you have a reason to use a different symmetry number we print 
out the resulting rotational entropy values for sn=1,12 :
 --------------------------------------------------------
|  sn= 1 | S(rot)=       0.01486939 Eh      9.33 kcal/mol|
|  sn= 2 | S(rot)=       0.01421493 Eh      8.92 kcal/mol|
|  sn= 3 | S(rot)=       0.01383210 Eh      8.68 kcal/mol|
|  sn= 4 | S(rot)=       0.01356048 Eh      8.51 kcal/mol|
|  sn= 5 | S(rot)=       0.01334979 Eh      8.38 kcal/mol|
|  sn= 6 | S(rot)=       0.01317765 Eh      8.27 kcal/mol|
|  sn= 7 | S(rot)=       0.01303210 Eh      8.18 kcal/mol|
|  sn= 8 | S(rot)=       0.01290602 Eh      8.10 kcal/mol|
|  sn= 9 | S(rot)=       0.01279481 Eh      8.03 kcal/mol|
|  sn=10 | S(rot)=       0.01269533 Eh      7.97 kcal/mol|
|  sn=11 | S(rot)=       0.01260534 Eh      7.91 kcal/mol|
|  sn=12 | S(rot)=       0.01252319 Eh      7.86 kcal/mol|
 --------------------------------------------------------


-------------------
GIBBS FREE ENERGY
-------------------

The Gibbs free energy is G = H - T*S

Total enthalpy                    ...   -540.45071400 Eh 
Total entropy correction          ...     -0.05407743 Eh    -33.93 kcal/mol
-----------------------------------------------------------------------
Final Gibbs free energy         ...   -540.50479142 Eh

For completeness - the Gibbs free energy minus the electronic energy
G-E(el)                           ...      0.25878616 Eh    162.39 kcal/mol


Timings for individual modules:

Sum of individual times         ...     5561.661 sec (=  92.694 min)
GTO integral calculation        ...        7.186 sec (=   0.120 min)   0.1 %
SCF iterations                  ...     1818.501 sec (=  30.308 min)  32.7 %
SCF Gradient evaluation         ...      519.906 sec (=   8.665 min)   9.3 %
Geometry relaxation             ...        0.511 sec (=   0.009 min)   0.0 %
Analytical frequency calculation...     3215.556 sec (=  53.593 min)  57.8 %
                             ****ORCA TERMINATED NORMALLY****
TOTAL RUN TIME: 0 days 1 hours 32 minutes 44 seconds 811 msec
