
                                 *****************
                                 * O   R   C   A *
                                 *****************

                                            #,                                       
                                            ###                                      
                                            ####                                     
                                            #####                                    
                                            ######                                   
                                           ########,                                 
                                     ,,################,,,,,                         
                               ,,#################################,,                 
                          ,,##########################################,,             
                       ,#########################################, ''#####,          
                    ,#############################################,,   '####,        
                  ,##################################################,,,,####,       
                ,###########''''           ''''###############################       
              ,#####''   ,,,,##########,,,,          '''####'''          '####       
            ,##' ,,,,###########################,,,                        '##       
           ' ,,###''''                  '''############,,,                           
         ,,##''                                '''############,,,,        ,,,,,,###''
      ,#''                                            '''#######################'''  
     '                                                          ''''####''''         
             ,#######,   #######,   ,#######,      ##                                
            ,#'     '#,  ##    ##  ,#'     '#,    #''#        ######   ,####,        
            ##       ##  ##   ,#'  ##            #'  '#       #        #'  '#        
            ##       ##  #######   ##           ,######,      #####,   #    #        
            '#,     ,#'  ##    ##  '#,     ,#' ,#      #,         ##   #,  ,#        
             '#######'   ##     ##  '#######'  #'      '#     #####' # '####'        



                  #######################################################
                  #                        -***-                        #
                  #          Department of theory and spectroscopy      #
                  #    Directorship and core code : Frank Neese         #
                  #        Max Planck Institute fuer Kohlenforschung    #
                  #                Kaiser Wilhelm Platz 1               #
                  #                 D-45470 Muelheim/Ruhr               #
                  #                      Germany                        #
                  #                                                     #
                  #                  All rights reserved                #
                  #                        -***-                        #
                  #######################################################


                         Program Version 5.0.4 -  RELEASE  -


 With contributions from (in alphabetic order):
   Daniel Aravena         : Magnetic Suceptibility
   Michael Atanasov       : Ab Initio Ligand Field Theory (pilot matlab implementation)
   Alexander A. Auer      : GIAO ZORA, VPT2 properties, NMR spectrum
   Ute Becker             : Parallelization
   Giovanni Bistoni       : ED, misc. LED, open-shell LED, HFLD
   Martin Brehm           : Molecular dynamics
   Dmytro Bykov           : SCF Hessian
   Vijay G. Chilkuri      : MRCI spin determinant printing, contributions to CSF-ICE
   Dipayan Datta          : RHF DLPNO-CCSD density
   Achintya Kumar Dutta   : EOM-CC, STEOM-CC
   Dmitry Ganyushin       : Spin-Orbit,Spin-Spin,Magnetic field MRCI
   Miquel Garcia          : C-PCM and meta-GGA Hessian, CC/C-PCM, Gaussian charge scheme
   Yang Guo               : DLPNO-NEVPT2, F12-NEVPT2, CIM, IAO-localization
   Andreas Hansen         : Spin unrestricted coupled pair/coupled cluster methods
   Benjamin Helmich-Paris : MC-RPA, TRAH-SCF, COSX integrals
   Lee Huntington         : MR-EOM, pCC
   Robert Izsak           : Overlap fitted RIJCOSX, COSX-SCS-MP3, EOM
   Marcus Kettner         : VPT2
   Christian Kollmar      : KDIIS, OOCD, Brueckner-CCSD(T), CCSD density, CASPT2, CASPT2-K
   Simone Kossmann        : Meta GGA functionals, TD-DFT gradient, OOMP2, MP2 Hessian
   Martin Krupicka        : Initial AUTO-CI
   Lucas Lang             : DCDCAS
   Marvin Lechner         : AUTO-CI (C++ implementation), FIC-MRCC
   Dagmar Lenk            : GEPOL surface, SMD
   Dimitrios Liakos       : Extrapolation schemes; Compound Job, initial MDCI parallelization
   Dimitrios Manganas     : Further ROCIS development; embedding schemes
   Dimitrios Pantazis     : SARC Basis sets
   Anastasios Papadopoulos: AUTO-CI, single reference methods and gradients
   Taras Petrenko         : DFT Hessian,TD-DFT gradient, ASA, ECA, R-Raman, ABS, FL, XAS/XES, NRVS
   Peter Pinski           : DLPNO-MP2, DLPNO-MP2 Gradient
   Christoph Reimann      : Effective Core Potentials
   Marius Retegan         : Local ZFS, SOC
   Christoph Riplinger    : Optimizer, TS searches, QM/MM, DLPNO-CCSD(T), (RO)-DLPNO pert. Triples
   Tobias Risthaus        : Range-separated hybrids, TD-DFT gradient, RPA, STAB
   Michael Roemelt        : Original ROCIS implementation
   Masaaki Saitow         : Open-shell DLPNO-CCSD energy and density
   Barbara Sandhoefer     : DKH picture change effects
   Avijit Sen             : IP-ROCIS
   Kantharuban Sivalingam : CASSCF convergence, NEVPT2, FIC-MRCI
   Bernardo de Souza      : ESD, SOC TD-DFT
   Georgi Stoychev        : AutoAux, RI-MP2 NMR, DLPNO-MP2 response
   Willem Van den Heuvel  : Paramagnetic NMR
   Boris Wezisla          : Elementary symmetry handling
   Frank Wennmohs         : Technical directorship


 We gratefully acknowledge several colleagues who have allowed us to
 interface, adapt or use parts of their codes:
   Stefan Grimme, W. Hujo, H. Kruse, P. Pracht,  : VdW corrections, initial TS optimization,
                  C. Bannwarth, S. Ehlert          DFT functionals, gCP, sTDA/sTD-DF
   Ed Valeev, F. Pavosevic, A. Kumar             : LibInt (2-el integral package), F12 methods
   Garnet Chan, S. Sharma, J. Yang, R. Olivares  : DMRG
   Ulf Ekstrom                                   : XCFun DFT Library
   Mihaly Kallay                                 : mrcc  (arbitrary order and MRCC methods)
   Jiri Pittner, Ondrej Demel                    : Mk-CCSD
   Frank Weinhold                                : gennbo (NPA and NBO analysis)
   Christopher J. Cramer and Donald G. Truhlar   : smd solvation model
   Lars Goerigk                                  : TD-DFT with DH, B97 family of functionals
   V. Asgeirsson, H. Jonsson                     : NEB implementation
   FAccTs GmbH                                   : IRC, NEB, NEB-TS, DLPNO-Multilevel, CI-OPT
                                                   MM, QMMM, 2- and 3-layer-ONIOM, Crystal-QMMM,
                                                   LR-CPCM, SF, NACMEs, symmetry and pop. for TD-DFT,
                                                   nearIR, NL-DFT gradient (VV10), updates on ESD,
                                                   ML-optimized integration grids
   S Lehtola, MJT Oliveira, MAL Marques          : LibXC Library
   Liviu Ungur et al                             : ANISO software


 Your calculation uses the libint2 library for the computation of 2-el integrals
 For citations please refer to: http://libint.valeyev.net

 Your ORCA version has been built with support for libXC version: 5.1.0
 For citations please refer to: https://tddft.org/programs/libxc/

 This ORCA versions uses:
   CBLAS   interface :  Fast vector & matrix operations
   LAPACKE interface :  Fast linear algebra routines
   SCALAPACK package :  Parallel linear algebra routines
   Shared memory     :  Shared parallel matrices
   BLAS/LAPACK       :  OpenBLAS 0.3.15  USE64BITINT DYNAMIC_ARCH NO_AFFINITY SkylakeX SINGLE_THREADED
        Core in use  :  SkylakeX
   Copyright (c) 2011-2014, The OpenBLAS Project




***************************************
The coordinates will be read from file: 6_deprot.xyz
***************************************


Your calculation utilizes the atom-pairwise dispersion correction
based on tight binding partial charges (D4)
Cite in your paper:
E.Caldeweyher, C.Bannwarth, S.Grimme, J.Chem.Phys., (2017), 147, 034112.
E.Caldeweyher, S.Ehlert, A.Hansen, H.Neugebauer, S.Grimme, J.Chem.Phys., (2018), in progress.
   

XCFun DFT library Copyright 2009-2010 Ulf Ekstrom and contributors.
See http://admol.org/xcfun for more information.
This is free software; see the source code for copying conditions.
There is ABSOLUTELY NO WARRANTY; not even for MERCHANTABILITY or FITNESS FOR A PARTICULAR PURPOSE.
For details see the documentation.
Scientific users of this library should cite U. Ekstrom, L. Visscher, R. Bast, A. J. Thorvaldsen and K. Ruud;
J.Chem.Theor.Comp. 2010, DOI: 10.1021/ct100117s
XCFun Version 0.99 

================================================================================

----- Orbital basis set information -----
Your calculation utilizes the basis: def2-TZVP
   F. Weigend and R. Ahlrichs, Phys. Chem. Chem. Phys. 7, 3297 (2005).

----- AuxJ basis set information -----
Your calculation utilizes the auxiliary basis: def2/J
   F. Weigend, Phys. Chem. Chem. Phys. 8, 1057 (2006).

================================================================================
                                        WARNINGS
                       Please study these warnings very carefully!
================================================================================


WARNING: Geometry Optimization
  ===> : Switching off AutoStart
         For restart on a previous wavefunction, please use MOREAD

INFO   : the flag for use of the SHARK integral package has been found!

================================================================================
                                       INPUT FILE
================================================================================
NAME = 6_deprot.inp
|  1> # ORCA 5.0.4 - /users/bwb16179/postgrad/2024_06/pKa_Reviewer_Comments/Aq_Z=0/6_deprot.inp # write input file
|  2> # Basic Mode
|  3> #
|  4> ! Opt Freq wB97X Def2-TZVP D4 SlowConv TightSCF Defgrid2 Def2/J RIJCOSX CPCM(Water)
|  5> 
|  6> %PAL NPROCS 4 END
|  7> 
|  8> %maxcore 4500
|  9> 
| 10> %geom
| 11> Maxiter 150
| 12> END
| 13> 
| 14> * xyzfile 0 1 6_deprot.xyz
| 15> 
| 16>                          ****END OF INPUT****
================================================================================

                       *****************************
                       * Geometry Optimization Run *
                       *****************************

Geometry optimization settings:
Update method            Update   .... BFGS
Choice of coordinates    CoordSys .... Z-matrix Internals
Initial Hessian          InHess   .... Almoef's Model

Convergence Tolerances:
Energy Change            TolE     ....  5.0000e-06 Eh
Max. Gradient            TolMAXG  ....  3.0000e-04 Eh/bohr
RMS Gradient             TolRMSG  ....  1.0000e-04 Eh/bohr
Max. Displacement        TolMAXD  ....  4.0000e-03 bohr
RMS Displacement         TolRMSD  ....  2.0000e-03 bohr
Strict Convergence                ....  False
------------------------------------------------------------------------------
                        ORCA OPTIMIZATION COORDINATE SETUP
------------------------------------------------------------------------------

The optimization will be done in new redundant internal coordinates
Making redundant internal coordinates   ...  (new redundants) done
Evaluating the initial hessian          ...  (Almloef) done
Evaluating the coordinates              ...  done
Calculating the B-matrix                .... done
Calculating the G-matrix                .... done
Diagonalizing the G-matrix              .... done
Small eigenvalue found = 1.172e-02
Small eigenvalue found = 2.064e-02
Small eigenvalue found = 2.248e-02
The first mode is                       ....   77
The number of degrees of freedom        ....   93

    -----------------------------------------------------------------
                    Redundant Internal Coordinates


    -----------------------------------------------------------------
         Definition                    Initial Value    Approx d2E/dq
    -----------------------------------------------------------------
      1. B(C   1,C   0)                  1.3621         0.692165   
      2. B(N   3,C   2)                  1.3551         0.636103   
      3. B(N   3,C   0)                  1.3961         0.547219   
      4. B(N   4,C   1)                  1.3961         0.547219   
      5. B(N   4,C   2)                  1.3551         0.636106   
      6. B(C   5,C   0)                  1.4933         0.427542   
      7. B(C   6,C   1)                  1.4933         0.427541   
      8. B(H   7,C   5)                  1.1019         0.344668   
      9. B(H   8,C   6)                  1.1019         0.344667   
     10. B(H   9,C   6)                  1.1019         0.344668   
     11. B(H  10,C   5)                  1.1019         0.344667   
     12. B(H  11,C   5)                  1.0985         0.348970   
     13. B(H  12,C   6)                  1.0985         0.348969   
     14. B(C  17,C  13)                  1.5241         0.381722   
     15. B(C  17,N   3)                  1.4684         0.419551   
     16. B(C  17,C  16)                  1.5241         0.381722   
     17. B(C  18,C  15)                  1.5241         0.381722   
     18. B(C  18,C  14)                  1.5241         0.381722   
     19. B(C  18,N   4)                  1.4684         0.419551   
     20. B(H  19,C  13)                  1.1010         0.345855   
     21. B(H  20,C  14)                  1.1010         0.345855   
     22. B(H  21,C  15)                  1.1010         0.345855   
     23. B(H  22,C  16)                  1.1010         0.345855   
     24. B(H  23,C  13)                  1.1009         0.345975   
     25. B(H  24,C  14)                  1.1009         0.345974   
     26. B(H  25,C  15)                  1.1009         0.345975   
     27. B(H  26,C  16)                  1.1009         0.345974   
     28. B(H  27,C  13)                  1.1007         0.346176   
     29. B(H  28,C  14)                  1.1007         0.346176   
     30. B(H  29,C  15)                  1.1007         0.346175   
     31. B(H  30,C  16)                  1.1007         0.346176   
     32. B(H  31,C  17)                  1.1001         0.346967   
     33. B(H  32,C  18)                  1.1001         0.346967   
     34. A(N   3,C   0,C   5)          123.9414         0.394848   
     35. A(C   1,C   0,C   5)          130.2366         0.414231   
     36. A(C   1,C   0,N   3)          105.8221         0.430085   
     37. A(C   0,C   1,N   4)          105.8221         0.430085   
     38. A(C   0,C   1,C   6)          130.2365         0.414230   
     39. A(N   4,C   1,C   6)          123.9414         0.394848   
     40. A(N   3,C   2,N   4)          103.1608         0.432374   
     41. A(C   2,N   3,C  17)          123.0366         0.401505   
     42. A(C   0,N   3,C  17)          124.3659         0.391039   
     43. A(C   0,N   3,C   2)          112.5975         0.420873   
     44. A(C   2,N   4,C  18)          123.0366         0.401506   
     45. A(C   1,N   4,C   2)          112.5975         0.420873   
     46. A(C   1,N   4,C  18)          124.3659         0.391039   
     47. A(C   0,C   5,H  10)          111.8397         0.329223   
     48. A(H  10,C   5,H  11)          107.7032         0.287433   
     49. A(H   7,C   5,H  10)          107.6683         0.286877   
     50. A(C   0,C   5,H   7)          111.8397         0.329223   
     51. A(H   7,C   5,H  11)          107.7033         0.287433   
     52. A(C   0,C   5,H  11)          109.9038         0.329899   
     53. A(H   8,C   6,H   9)          107.6683         0.286877   
     54. A(C   1,C   6,H   8)          111.8397         0.329223   
     55. A(H   9,C   6,H  12)          107.7033         0.287433   
     56. A(H   8,C   6,H  12)          107.7033         0.287433   
     57. A(C   1,C   6,H  12)          109.9038         0.329898   
     58. A(C   1,C   6,H   9)          111.8397         0.329223   
     59. A(H  19,C  13,H  27)          108.3562         0.287227   
     60. A(H  23,C  13,H  27)          108.5507         0.287242   
     61. A(C  17,C  13,H  27)          110.2602         0.323369   
     62. A(H  19,C  13,H  23)          108.3208         0.287201   
     63. A(C  17,C  13,H  23)          110.4351         0.323339   
     64. A(C  17,C  13,H  19)          110.8452         0.323320   
     65. A(H  20,C  14,H  28)          108.3562         0.287227   
     66. A(C  18,C  14,H  28)          110.2602         0.323369   
     67. A(H  24,C  14,H  28)          108.5506         0.287242   
     68. A(H  20,C  14,H  24)          108.3208         0.287201   
     69. A(C  18,C  14,H  24)          110.4351         0.323338   
     70. A(C  18,C  14,H  20)          110.8453         0.323320   
     71. A(H  25,C  15,H  29)          108.5505         0.287242   
     72. A(H  21,C  15,H  29)          108.3562         0.287227   
     73. A(C  18,C  15,H  29)          110.2602         0.323369   
     74. A(H  21,C  15,H  25)          108.3208         0.287201   
     75. A(C  18,C  15,H  25)          110.4351         0.323339   
     76. A(C  18,C  15,H  21)          110.8453         0.323320   
     77. A(H  22,C  16,H  30)          108.3562         0.287227   
     78. A(C  17,C  16,H  30)          110.2602         0.323369   
     79. A(H  26,C  16,H  30)          108.5506         0.287242   
     80. A(H  22,C  16,H  26)          108.3207         0.287201   
     81. A(C  17,C  16,H  26)          110.4351         0.323338   
     82. A(C  17,C  16,H  22)          110.8453         0.323320   
     83. A(C  16,C  17,H  31)          108.0897         0.323491   
     84. A(C  13,C  17,H  31)          108.0898         0.323491   
     85. A(N   3,C  17,H  31)          105.9925         0.326588   
     86. A(C  13,C  17,C  16)          112.5434         0.366044   
     87. A(N   3,C  17,C  16)          110.9134         0.369704   
     88. A(N   3,C  17,C  13)          110.9134         0.369704   
     89. A(C  14,C  18,C  15)          112.5434         0.366044   
     90. A(C  15,C  18,H  32)          108.0897         0.323491   
     91. A(C  14,C  18,H  32)          108.0897         0.323491   
     92. A(N   4,C  18,C  15)          110.9134         0.369704   
     93. A(N   4,C  18,H  32)          105.9925         0.326589   
     94. A(N   4,C  18,C  14)          110.9134         0.369704   
     95. D(N   4,C   1,C   0,N   3)     -0.0000         0.033679   
     96. D(N   4,C   1,C   0,C   5)    180.0000         0.033679   
     97. D(C   6,C   1,C   0,N   3)    180.0000         0.033679   
     98. D(C   6,C   1,C   0,C   5)     -0.0001         0.033679   
     99. D(C  17,N   3,C   0,C   1)   -179.9998         0.023854   
    100. D(C   2,N   3,C   0,C   1)      0.0000         0.023854   
    101. D(C  17,N   3,C   0,C   5)      0.0002         0.023854   
    102. D(C   2,N   3,C   0,C   5)   -179.9999         0.023854   
    103. D(C   0,N   3,C   2,N   4)     -0.0001         0.029801   
    104. D(C  17,N   3,C   2,N   4)    179.9998         0.029801   
    105. D(C  18,N   4,C   1,C   6)     -0.0001         0.023854   
    106. D(C  18,N   4,C   1,C   0)    179.9999         0.023854   
    107. D(C   2,N   4,C   1,C   6)    180.0000         0.023854   
    108. D(C   1,N   4,C   2,N   3)      0.0001         0.029801   
    109. D(C   2,N   4,C   1,C   0)     -0.0000         0.023854   
    110. D(C  18,N   4,C   2,N   3)   -179.9999         0.029801   
    111. D(H  10,C   5,C   0,N   3)     60.4278         0.013504   
    112. D(H  11,C   5,C   0,C   1)      0.0000         0.013504   
    113. D(H   7,C   5,C   0,C   1)    119.5723         0.013504   
    114. D(H  11,C   5,C   0,N   3)    180.0000         0.013504   
    115. D(H   7,C   5,C   0,N   3)    -60.4278         0.013504   
    116. D(H  10,C   5,C   0,C   1)   -119.5722         0.013504   
    117. D(H  12,C   6,C   1,N   4)   -180.0000         0.013503   
    118. D(H  12,C   6,C   1,C   0)      0.0000         0.013503   
    119. D(H   9,C   6,C   1,N   4)    -60.4278         0.013503   
    120. D(H   8,C   6,C   1,N   4)     60.4278         0.013503   
    121. D(H   8,C   6,C   1,C   0)   -119.5722         0.013503   
    122. D(H   9,C   6,C   1,C   0)    119.5723         0.013503   
    123. D(C  13,C  17,N   3,C   0)    117.0846         0.015010   
    124. D(C  13,C  17,N   3,C   2)    -62.9152         0.015010   
    125. D(H  31,C  17,C  16,H  30)     60.9005         0.011608   
    126. D(H  31,C  17,C  16,H  22)    -59.0833         0.011608   
    127. D(C  13,C  17,C  16,H  30)    -58.3921         0.011608   
    128. D(C  13,C  17,C  16,H  26)     61.5702         0.011608   
    129. D(C  16,C  17,N   3,C   0)   -117.0848         0.015010   
    130. D(N   3,C  17,C  16,H  30)    176.6923         0.011608   
    131. D(N   3,C  17,C  16,H  26)    -63.3454         0.011608   
    132. D(N   3,C  17,C  16,H  22)     56.7084         0.011608   
    133. D(H  31,C  17,C  13,H  27)    -60.9005         0.011608   
    134. D(H  31,C  17,C  13,H  23)    179.1371         0.011608   
    135. D(H  31,C  17,C  13,H  19)     59.0833         0.011608   
    136. D(C  16,C  17,C  13,H  27)     58.3921         0.011608   
    137. D(C  16,C  17,C  13,H  23)    -61.5703         0.011608   
    138. D(C  16,C  17,C  13,H  19)    178.3758         0.011608   
    139. D(N   3,C  17,C  13,H  23)     63.3453         0.011608   
    140. D(C  13,C  17,C  16,H  22)   -178.3760         0.011608   
    141. D(N   3,C  17,C  13,H  19)    -56.7085         0.011608   
    142. D(H  31,C  17,N   3,C   2)    180.0000         0.015010   
    143. D(H  31,C  17,N   3,C   0)     -0.0002         0.015010   
    144. D(H  31,C  17,C  16,H  26)   -179.1372         0.011608   
    145. D(C  16,C  17,N   3,C   2)     62.9154         0.015010   
    146. D(N   3,C  17,C  13,H  27)   -176.6923         0.011608   
    147. D(C  15,C  18,C  14,H  20)   -178.3759         0.011608   
    148. D(N   4,C  18,C  14,H  28)    176.6923         0.011608   
    149. D(N   4,C  18,C  14,H  24)    -63.3454         0.011608   
    150. D(N   4,C  18,C  14,H  20)     56.7085         0.011608   
    151. D(H  32,C  18,N   4,C   2)   -179.9999         0.015010   
    152. D(H  32,C  18,N   4,C   1)      0.0002         0.015010   
    153. D(C  15,C  18,N   4,C   2)    -62.9152         0.015010   
    154. D(C  15,C  18,N   4,C   1)    117.0849         0.015010   
    155. D(C  14,C  18,N   4,C   2)     62.9154         0.015010   
    156. D(C  15,C  18,C  14,H  24)     61.5703         0.011608   
    157. D(C  14,C  18,N   4,C   1)   -117.0845         0.015010   
    158. D(H  32,C  18,C  15,H  29)    -60.9004         0.011608   
    159. D(H  32,C  18,C  15,H  21)     59.0834         0.011608   
    160. D(C  14,C  18,C  15,H  29)     58.3921         0.011608   
    161. D(C  14,C  18,C  15,H  25)    -61.5702         0.011608   
    162. D(C  14,C  18,C  15,H  21)    178.3760         0.011608   
    163. D(N   4,C  18,C  15,H  29)   -176.6922         0.011608   
    164. D(N   4,C  18,C  15,H  25)     63.3455         0.011608   
    165. D(N   4,C  18,C  15,H  21)    -56.7084         0.011608   
    166. D(H  32,C  18,C  14,H  28)     60.9005         0.011608   
    167. D(H  32,C  18,C  14,H  24)   -179.1372         0.011608   
    168. D(H  32,C  18,C  15,H  25)    179.1373         0.011608   
    169. D(H  32,C  18,C  14,H  20)    -59.0833         0.011608   
    170. D(C  15,C  18,C  14,H  28)    -58.3921         0.011608   
    -----------------------------------------------------------------

Number of atoms                         .... 33
Number of degrees of freedom            .... 170

         *************************************************************
         *                GEOMETRY OPTIMIZATION CYCLE   1            *
         *************************************************************
---------------------------------
CARTESIAN COORDINATES (ANGSTROEM)
---------------------------------
  C      0.000001    0.681063   -1.284902
  C      0.000001   -0.681063   -1.284901
  C      0.000005    0.000000    0.900385
  N      0.000003    1.061709    0.058293
  N      0.000003   -1.061708    0.058294
  C      0.000000    1.645632   -2.424841
  C     -0.000001   -1.645633   -2.424840
  H     -0.889595    2.295772   -2.411706
  H     -0.889598   -2.295772   -2.411704
  H      0.889594   -2.295773   -2.411707
  H      0.889597    2.295771   -2.411708
  H     -0.000001    1.098690   -3.377552
  H     -0.000002   -1.098691   -3.377552
  C     -1.267586    2.763518    1.312888
  C     -1.267587   -2.763519    1.312885
  C      1.267586   -2.763522    1.312888
  C      1.267586    2.763524    1.312886
  C      0.000000    2.453876    0.525290
  C      0.000001   -2.453875    0.525290
  H     -2.164507    2.557273    0.708596
  H     -2.164507   -2.557274    0.708592
  H      2.164508   -2.557278    0.708598
  H      2.164508    2.557282    0.708595
  H     -1.314557    2.146766    2.223588
  H     -1.314560   -2.146768    2.223587
  H      1.314558   -2.146773    2.223590
  H      1.314560    2.146773    2.223588
  H     -1.284089    3.824111    1.606975
  H     -1.284090   -3.824112    1.606972
  H      1.284086   -3.824116    1.606974
  H      1.284085    3.824117    1.606973
  H     -0.000001    3.077561   -0.380947
  H      0.000001   -3.077560   -0.380947

----------------------------
CARTESIAN COORDINATES (A.U.)
----------------------------
  NO LB      ZA    FRAG     MASS         X           Y           Z
   0 C     6.0000    0    12.011    0.000002    1.287023   -2.428113
   1 C     6.0000    0    12.011    0.000002   -1.287023   -2.428111
   2 C     6.0000    0    12.011    0.000009    0.000000    1.701481
   3 N     7.0000    0    14.007    0.000006    2.006339    0.110158
   4 N     7.0000    0    14.007    0.000006   -2.006337    0.110160
   5 C     6.0000    0    12.011    0.000000    3.109794   -4.582285
   6 C     6.0000    0    12.011   -0.000002   -3.109796   -4.582284
   7 H     1.0000    0     1.008   -1.681091    4.338380   -4.557464
   8 H     1.0000    0     1.008   -1.681097   -4.338380   -4.557460
   9 H     1.0000    0     1.008    1.681089   -4.338382   -4.557466
  10 H     1.0000    0     1.008    1.681095    4.338378   -4.557468
  11 H     1.0000    0     1.008   -0.000002    2.076223   -6.382648
  12 H     1.0000    0     1.008   -0.000004   -2.076225   -6.382648
  13 C     6.0000    0    12.011   -2.395390    5.222292    2.480999
  14 C     6.0000    0    12.011   -2.395392   -5.222294    2.480993
  15 C     6.0000    0    12.011    2.395390   -5.222300    2.480999
  16 C     6.0000    0    12.011    2.395390    5.222304    2.480995
  17 C     6.0000    0    12.011    0.000000    4.637154    0.992654
  18 C     6.0000    0    12.011    0.000002   -4.637152    0.992654
  19 H     1.0000    0     1.008   -4.090325    4.832546    1.339052
  20 H     1.0000    0     1.008   -4.090325   -4.832548    1.339045
  21 H     1.0000    0     1.008    4.090327   -4.832555    1.339056
  22 H     1.0000    0     1.008    4.090327    4.832563    1.339050
  23 H     1.0000    0     1.008   -2.484153    4.056800    4.201972
  24 H     1.0000    0     1.008   -2.484158   -4.056804    4.201970
  25 H     1.0000    0     1.008    2.484155   -4.056813    4.201976
  26 H     1.0000    0     1.008    2.484158    4.056813    4.201972
  27 H     1.0000    0     1.008   -2.426577    7.226522    3.036743
  28 H     1.0000    0     1.008   -2.426578   -7.226524    3.036737
  29 H     1.0000    0     1.008    2.426571   -7.226532    3.036741
  30 H     1.0000    0     1.008    2.426569    7.226534    3.036739
  31 H     1.0000    0     1.008   -0.000002    5.815747   -0.719886
  32 H     1.0000    0     1.008    0.000002   -5.815746   -0.719886

--------------------------------
INTERNAL COORDINATES (ANGSTROEM)
--------------------------------
 C      0   0   0     0.000000000000     0.00000000     0.00000000
 C      1   0   0     1.362126000000     0.00000000     0.00000000
 C      2   1   0     2.288956467865    72.68995177     0.00000000
 N      3   2   1     1.355118052846    68.89048026     0.00000000
 N      3   2   1     1.355116647949    34.27030653   179.99996555
 C      1   2   3     1.493269660672   130.23655359   179.99994538
 C      2   1   3     1.493270306617   130.23649875   180.00000444
 H      6   1   2     1.101922779441   111.83971463   119.57226225
 H      7   2   1     1.101923815981   111.83966191   240.42783385
 H      7   2   1     1.101922755602   111.83971499   119.57226373
 H      6   1   2     1.101923780222   111.83967637   240.42784342
 H      6   1   2     1.098546221552   109.90377959     0.00000000
 H      7   2   1     1.098547088799   109.90377626     0.00000000
 C      4   3   2     2.465145910373   102.98029848   148.15055433
 C      5   3   2     2.465145769544   102.98040172   211.84946960
 C      5   3   2     2.465145767966   102.98032408   148.15079958
 C      4   3   2     2.465145949384   102.98035079   211.84918065
 C      4   3   2     1.468405650325   123.03656259   179.99984068
 C      5   3   2     1.468405332294   123.03660643   180.00009180
 H     14   4   3     1.100987330322    90.58679393   258.63541330
 H     15   5   3     1.100987064535    90.58680212   101.36462124
 H     16   5   3     1.100986859922    90.58678725   258.63557902
 H     17   4   3     1.100987034133    90.58684089   101.36453073
 H     14   4   3     1.100892271907    93.22143582     7.02200824
 H     15   5   3     1.100893451490    93.22147308   352.97801159
 H     16   5   3     1.100892288368    93.22153336     7.02216823
 H     17   4   3     1.100893494159    93.22147892   352.97796669
 H     14   4   3     1.100734765612   143.98423290   135.28938483
 H     15   5   3     1.100734765612   143.98427192   224.71073781
 H     16   5   3     1.100735416997   143.98424662   135.28949464
 H     17   4   3     1.100734705648   143.98425770   224.71068066
 H     18   4   3     1.100112939382   105.99246593   179.99999609
 H     19   5   3     1.100112939381   105.99250293   180.00007249

---------------------------
INTERNAL COORDINATES (A.U.)
---------------------------
 C      0   0   0     0.000000000000     0.00000000     0.00000000
 C      1   0   0     2.574045099894     0.00000000     0.00000000
 C      2   1   0     4.325500856733    72.68995177     0.00000000
 N      3   2   1     2.560801999011    68.89048026     0.00000000
 N      3   2   1     2.560799344141    34.27030653   179.99996555
 C      1   2   3     2.821870702763   130.23655359   179.99994538
 C      2   1   3     2.821871923423   130.23649875   180.00000444
 H      6   1   2     2.082332273872   111.83971463   119.57226225
 H      7   2   1     2.082334232649   111.83966191   240.42783385
 H      7   2   1     2.082332228824   111.83971499   119.57226373
 H      6   1   2     2.082334165075   111.83967637   240.42784342
 H      6   1   2     2.075951504187   109.90377959     0.00000000
 H      7   2   1     2.075953143047   109.90377626     0.00000000
 C      4   3   2     4.658450650760   102.98029848   148.15055433
 C      5   3   2     4.658450384633   102.98040172   211.84946960
 C      5   3   2     4.658450381651   102.98032408   148.15079958
 C      4   3   2     4.658450724481   102.98035079   211.84918065
 C      4   3   2     2.774884532617   123.03656259   179.99984068
 C      5   3   2     2.774883931625   123.03660643   180.00009180
 H     14   4   3     2.080564531226    90.58679393   258.63541330
 H     15   5   3     2.080564028962    90.58680212   101.36462124
 H     16   5   3     2.080563642298    90.58678725   258.63557902
 H     17   4   3     2.080563971510    90.58684089   101.36453073
 H     14   4   3     2.080384896855    93.22143582     7.02200824
 H     15   5   3     2.080387125944    93.22147308   352.97801159
 H     16   5   3     2.080384927962    93.22153336     7.02216823
 H     17   4   3     2.080387206576    93.22147892   352.97796669
 H     14   4   3     2.080087253093   143.98423290   135.28938483
 H     15   5   3     2.080087253093   143.98427192   224.71073781
 H     16   5   3     2.080088484032   143.98424662   135.28949464
 H     17   4   3     2.080087139778   143.98425770   224.71068066
 H     18   4   3     2.078912171814   105.99246593   179.99999609
 H     19   5   3     2.078912171814   105.99250293   180.00007249

---------------------
BASIS SET INFORMATION
---------------------
There are 3 groups of distinct atoms

 Group   1 Type C   : 11s6p2d1f contracted to 5s3p2d1f pattern {62111/411/11/1}
 Group   2 Type N   : 11s6p2d1f contracted to 5s3p2d1f pattern {62111/411/11/1}
 Group   3 Type H   : 5s1p contracted to 3s1p pattern {311/1}

Atom   0C    basis set group =>   1
Atom   1C    basis set group =>   1
Atom   2C    basis set group =>   1
Atom   3N    basis set group =>   2
Atom   4N    basis set group =>   2
Atom   5C    basis set group =>   1
Atom   6C    basis set group =>   1
Atom   7H    basis set group =>   3
Atom   8H    basis set group =>   3
Atom   9H    basis set group =>   3
Atom  10H    basis set group =>   3
Atom  11H    basis set group =>   3
Atom  12H    basis set group =>   3
Atom  13C    basis set group =>   1
Atom  14C    basis set group =>   1
Atom  15C    basis set group =>   1
Atom  16C    basis set group =>   1
Atom  17C    basis set group =>   1
Atom  18C    basis set group =>   1
Atom  19H    basis set group =>   3
Atom  20H    basis set group =>   3
Atom  21H    basis set group =>   3
Atom  22H    basis set group =>   3
Atom  23H    basis set group =>   3
Atom  24H    basis set group =>   3
Atom  25H    basis set group =>   3
Atom  26H    basis set group =>   3
Atom  27H    basis set group =>   3
Atom  28H    basis set group =>   3
Atom  29H    basis set group =>   3
Atom  30H    basis set group =>   3
Atom  31H    basis set group =>   3
Atom  32H    basis set group =>   3
---------------------------------
AUXILIARY/J BASIS SET INFORMATION
---------------------------------
There are 3 groups of distinct atoms

 Group   1 Type C   : 12s5p4d2f1g contracted to 6s4p3d1f1g pattern {711111/2111/211/2/1}
 Group   2 Type N   : 12s5p4d2f1g contracted to 6s4p3d1f1g pattern {711111/2111/211/2/1}
 Group   3 Type H   : 5s2p1d contracted to 3s1p1d pattern {311/2/1}

Atom   0C    basis set group =>   1
Atom   1C    basis set group =>   1
Atom   2C    basis set group =>   1
Atom   3N    basis set group =>   2
Atom   4N    basis set group =>   2
Atom   5C    basis set group =>   1
Atom   6C    basis set group =>   1
Atom   7H    basis set group =>   3
Atom   8H    basis set group =>   3
Atom   9H    basis set group =>   3
Atom  10H    basis set group =>   3
Atom  11H    basis set group =>   3
Atom  12H    basis set group =>   3
Atom  13C    basis set group =>   1
Atom  14C    basis set group =>   1
Atom  15C    basis set group =>   1
Atom  16C    basis set group =>   1
Atom  17C    basis set group =>   1
Atom  18C    basis set group =>   1
Atom  19H    basis set group =>   3
Atom  20H    basis set group =>   3
Atom  21H    basis set group =>   3
Atom  22H    basis set group =>   3
Atom  23H    basis set group =>   3
Atom  24H    basis set group =>   3
Atom  25H    basis set group =>   3
Atom  26H    basis set group =>   3
Atom  27H    basis set group =>   3
Atom  28H    basis set group =>   3
Atom  29H    basis set group =>   3
Atom  30H    basis set group =>   3
Atom  31H    basis set group =>   3
Atom  32H    basis set group =>   3


           ************************************************************
           *        Program running with 4 parallel MPI-processes     *
           *              working on a common directory               *
           ************************************************************
------------------------------------------------------------------------------
                           ORCA GTO INTEGRAL CALCULATION
                           -- RI-GTO INTEGRALS CHOSEN --
------------------------------------------------------------------------------
------------------------------------------------------------------------------
                   ___                                                        
                  /   \      - P O W E R E D   B Y -                         
                 /     \                                                     
                 |  |  |   _    _      __       _____    __    __             
                 |  |  |  | |  | |    /  \     |  _  \  |  |  /  |          
                  \  \/   | |  | |   /    \    | | | |  |  | /  /          
                 / \  \   | |__| |  /  /\  \   | |_| |  |  |/  /          
                |  |  |   |  __  | /  /__\  \  |    /   |      \           
                |  |  |   | |  | | |   __   |  |    \   |  |\   \          
                \     /   | |  | | |  |  |  |  | |\  \  |  | \   \       
                 \___/    |_|  |_| |__|  |__|  |_| \__\ |__|  \__/        
                                                                              
                      - O R C A' S   B I G   F R I E N D -                    
                                      &                                       
                       - I N T E G R A L  F E E D E R -                       
                                                                              
 v1 FN, 2020, v2 2021                                                         
------------------------------------------------------------------------------


Reading SHARK input file 6_deprot.SHARKINP.tmp ... ok
----------------------
SHARK INTEGRAL PACKAGE
----------------------

Number of atoms                             ...     33
Number of basis functions                   ...    523
Number of shells                            ...    223
Maximum angular momentum                    ...      3
Integral batch strategy                     ... SHARK/LIBINT Hybrid
RI-J (if used) integral strategy            ... SPLIT-RIJ (Revised 2003 algorithm where possible)
Printlevel                                  ...      1
Contraction scheme used                     ... SEGMENTED contraction
Coulomb Range Separation                    ... NOT USED
Exchange Range Separation                   ... Long Range
   Mu parameter                             ...  0.300000
   Scaling (regular/separated)              ...  0.157706  0.842294
Finite Nucleus Model                        ... NOT USED
Auxiliary Coulomb fitting basis             ... AVAILABLE
   # of basis functions in Aux-J            ...    857
   # of shells in Aux-J                     ...    295
   Maximum angular momentum in Aux-J        ...      4
Auxiliary J/K fitting basis                 ... NOT available
Auxiliary Correlation fitting basis         ... NOT available
Auxiliary 'external' fitting basis          ... NOT available
Integral threshold                          ...     2.500000e-11
Primitive cut-off                           ...     2.500000e-12
Primitive pair pre-selection threshold      ...     2.500000e-12

Calculating pre-screening integrals         ... done (  0.1 sec) Dimension = 223
Organizing shell pair data                  ... done (  0.2 sec)
Shell pair information
Total number of shell pairs                 ...     24976
Shell pairs after pre-screening             ...     20631
Total number of primitive shell pairs       ...     72736
Primitive shell pairs kept                  ...     42478
          la=0 lb=0:   6317 shell pairs
          la=1 lb=0:   6067 shell pairs
          la=1 lb=1:   1502 shell pairs
          la=2 lb=0:   2750 shell pairs
          la=2 lb=1:   1336 shell pairs
          la=2 lb=2:    324 shell pairs
          la=3 lb=0:   1301 shell pairs
          la=3 lb=1:    651 shell pairs
          la=3 lb=2:    304 shell pairs
          la=3 lb=3:     79 shell pairs

Calculating one electron integrals          ... done (  0.1 sec)
Calculating RI/J V-Matrix + Cholesky decomp.... done (  0.0 sec)
Calculating Nuclear repulsion               ... done (  0.0 sec) ENN=    851.704108383415 Eh

SHARK setup successfully completed in   0.7 seconds

Maximum memory used throughout the entire GTOINT-calculation: 32.1 MB


           ************************************************************
           *        Program running with 4 parallel MPI-processes     *
           *              working on a common directory               *
           ************************************************************
-------------------------------------------------------------------------------
                                 ORCA SCF
-------------------------------------------------------------------------------

------------
SCF SETTINGS
------------
Hamiltonian:
 Density Functional     Method          .... DFT(GTOs)
 Exchange Functional    Exchange        .... WB97X
 Correlation Functional Correlation     .... WB97X
 Gradients option       PostSCFGGA      .... off
 Hybrid DFT is turned on
   Fraction HF Exchange ScalHFX         ....  0.157706
   Scaling of DF-GGA-X  ScalDFX         ....  0.000000
   Scaling of DF-GGA-C  ScalDFC         ....  1.000000
   Scaling of DF-LDA-C  ScalLDAC        ....  1.000000
   Perturbative correction              ....  0.000000
   Density functional embedding theory  .... OFF
 Long-range corrected/Screened/Range-Separated Hybrid DFT is turned on
   Amount of maximum screened exact exchange              ....  0.842294
   Range separation parameter mu (erf(mu*r12)/r12)        ....  0.300000
 RI-approximation to the Coulomb term is turned on
   Number of AuxJ basis functions       .... 857
   RIJ-COSX (HFX calculated with COS-X)).... on


General Settings:
 Integral files         IntName         .... 6_deprot
 Hartree-Fock type      HFTyp           .... RHF
 Total Charge           Charge          ....    0
 Multiplicity           Mult            ....    1
 Number of Electrons    NEL             ....  100
 Basis Dimension        Dim             ....  523
 Nuclear Repulsion      ENuc            ....    851.7041083834 Eh

Convergence Acceleration:
 DIIS                   CNVDIIS         .... on
   Start iteration      DIISMaxIt       ....     0
   Startup error        DIISStart       ....  0.200000
   # of expansion vecs  DIISMaxEq       ....     5
   Bias factor          DIISBfac        ....   1.050
   Max. coefficient     DIISMaxC        ....  10.000
 Trust-Rad. Augm. Hess. CNVTRAH         .... auto
   Auto Start mean grad. ratio tolernc. ....  1.125000
   Auto Start start iteration           ....    20
   Auto Start num. interpolation iter.  ....    10
   Max. Number of Micro iterations      ....    16
   Max. Number of Macro iterations      .... Maxiter - #DIIS iter
   Number of Davidson start vectors     ....     2
   Converg. threshold I  (grad. norm)   ....   1.000e-05
   Converg. threshold II (energy diff.) ....   1.000e-08
   Grad. Scal. Fac. for Micro threshold ....   0.100
   Minimum threshold for Micro iter.    ....   0.010
   NR start threshold (gradient norm)   ....   0.001
   Initial trust radius                 ....   0.400
   Minimum AH scaling param. (alpha)    ....   1.000
   Maximum AH scaling param. (alpha)    .... 1000.000
   Orbital update algorithm             .... Taylor
   White noise on init. David. guess    .... on
   Maximum white noise                  ....   0.010
   Quad. conv. algorithm                .... NR
 SOSCF                  CNVSOSCF        .... on
   Start iteration      SOSCFMaxIt      ....   150
   Startup grad/error   SOSCFStart      ....  0.001000
 Level Shifting         CNVShift        .... on
   Level shift para.    LevelShift      ....    0.2500
   Turn off err/grad.   ShiftErr        ....    0.0000
 Zerner damping         CNVZerner       .... off
 Static damping         CNVDamp         .... on
   Fraction old density DampFac         ....    0.8500
   Max. Damping (<1)    DampMax         ....    0.9800
   Min. Damping (>=0)   DampMin         ....    0.0000
   Turn off err/grad.   DampErr         ....    0.0300
 Fernandez-Rico         CNVRico         .... off

SCF Procedure:
 Maximum # iterations   MaxIter         ....   125
 SCF integral mode      SCFMode         .... Direct
   Integral package                     .... SHARK and LIBINT hybrid scheme
 Reset frequency        DirectResetFreq ....    20
 Integral Threshold     Thresh          ....  2.500e-11 Eh
 Primitive CutOff       TCut            ....  2.500e-12 Eh

Convergence Tolerance:
 Convergence Check Mode ConvCheckMode   .... Total+1el-Energy
 Convergence forced     ConvForced      .... 0
 Energy Change          TolE            ....  1.000e-08 Eh
 1-El. energy change                    ....  1.000e-05 Eh
 Orbital Gradient       TolG            ....  1.000e-05
 Orbital Rotation angle TolX            ....  1.000e-05
 DIIS Error             TolErr          ....  5.000e-07


Diagonalization of the overlap matrix:
Smallest eigenvalue                        ... 3.237e-05
Time for diagonalization                   ...    0.048 sec
Threshold for overlap eigenvalues          ... 1.000e-08
Number of eigenvalues below threshold      ... 0
Time for construction of square roots      ...    0.026 sec
Total time needed                          ...    0.076 sec

Time for model grid setup =    0.299 sec

------------------------------
INITIAL GUESS: MODEL POTENTIAL
------------------------------
Loading Hartree-Fock densities                     ... done
Calculating cut-offs                               ... done
Initializing the effective Hamiltonian             ... done
Setting up the integral package (SHARK)            ... done
Starting the Coulomb interaction                   ... done (   0.6 sec)
Reading the grid                                   ... done
Mapping shells                                     ... done
Starting the XC term evaluation                    ... done (   0.4 sec)
  promolecular density results
     # of electrons  =     99.985264823
     EX              =    -75.264354547
     EC              =     -3.302133566
     EX+EC           =    -78.566488112
Transforming the Hamiltonian                       ... done (   0.0 sec)
Diagonalizing the Hamiltonian                      ... done (   0.1 sec)
Back transforming the eigenvectors                 ... done (   0.0 sec)
Now organizing SCF variables                       ... done
                      ------------------
                      INITIAL GUESS DONE (   1.5 sec)
                      ------------------
-------------------
DFT GRID GENERATION
-------------------

General Integration Accuracy     IntAcc      ... 4.388
Radial Grid Type                 RadialGrid  ... OptM3 with GC (2021)
Angular Grid (max. ang.)         AngularGrid ... 4 (Lebedev-302)
Angular grid pruning method      GridPruning ... 4 (adaptive)
Weight generation scheme         WeightScheme... Becke
Basis function cutoff            BFCut       ... 1.0000e-11
Integration weight cutoff        WCut        ... 1.0000e-14
Angular grids for H and He will be reduced by one unit
Partially contracted basis set               ... off
Rotationally invariant grid construction     ... off

Total number of grid points                  ...   141335
Total number of batches                      ...     2225
Average number of points per batch           ...       63
Average number of grid points per atom       ...     4283
Time for grid setup =    1.309 sec

--------------------
COSX GRID GENERATION
--------------------

GRIDX 1
-------
General Integration Accuracy     IntAcc      ... 3.816
Radial Grid Type                 RadialGrid  ... OptM3 with GC (2021)
Angular Grid (max. ang.)         AngularGrid ... 1 (Lebedev-50)
Angular grid pruning method      GridPruning ... 4 (adaptive)
Weight generation scheme         WeightScheme... Becke
Basis function cutoff            BFCut       ... 1.0000e-11
Integration weight cutoff        WCut        ... 1.0000e-14
Angular grids for H and He will be reduced by one unit
Partially contracted basis set               ... on
Rotationally invariant grid construction     ... off

Total number of grid points                  ...    18079
Total number of batches                      ...      302
Average number of points per batch           ...       59
Average number of grid points per atom       ...      548
UseSFitting                                  ... on

GRIDX 2
-------
General Integration Accuracy     IntAcc      ... 4.020
Radial Grid Type                 RadialGrid  ... OptM3 with GC (2021)
Angular Grid (max. ang.)         AngularGrid ... 2 (Lebedev-110)
Angular grid pruning method      GridPruning ... 4 (adaptive)
Weight generation scheme         WeightScheme... Becke
Basis function cutoff            BFCut       ... 1.0000e-11
Integration weight cutoff        WCut        ... 1.0000e-14
Angular grids for H and He will be reduced by one unit
Partially contracted basis set               ... on
Rotationally invariant grid construction     ... off

Total number of grid points                  ...    37631
Total number of batches                      ...      607
Average number of points per batch           ...       61
Average number of grid points per atom       ...     1140
UseSFitting                                  ... on

GRIDX 3
-------
General Integration Accuracy     IntAcc      ... 4.338
Radial Grid Type                 RadialGrid  ... OptM3 with GC (2021)
Angular Grid (max. ang.)         AngularGrid ... 3 (Lebedev-194)
Angular grid pruning method      GridPruning ... 4 (adaptive)
Weight generation scheme         WeightScheme... Becke
Basis function cutoff            BFCut       ... 1.0000e-11
Integration weight cutoff        WCut        ... 1.0000e-14
Angular grids for H and He will be reduced by one unit
Partially contracted basis set               ... on
Rotationally invariant grid construction     ... off

Total number of grid points                  ...    81789
Total number of batches                      ...     1295
Average number of points per batch           ...       63
Average number of grid points per atom       ...     2478
UseSFitting                                  ... on

Time for X-Grid setup             =    1.761 sec


--------------------
CPCM SOLVATION MODEL
--------------------
CPCM parameters:
  Epsilon                                         ...      80.4000
  Refrac                                          ...       1.3300
  Rsolv                                           ...       1.3000
  Surface type                                    ... GAUSSIAN VDW
  Epsilon function type                           ...         CPCM
Radii:
 Radius for C  used is    3.8550 Bohr (=   2.0400 Ang.)
 Radius for N  used is    3.5149 Bohr (=   1.8600 Ang.)
 Radius for H  used is    2.4944 Bohr (=   1.3200 Ang.)
Calculating surface                               ...        done! (  0.0s)
GEPOL surface points                              ...         1755
GEPOL Volume                                      ...    1719.3509
GEPOL Surface-area                                ...     938.7712
Calculating surface distance matrix               ...        done! (  0.0s)
Performing Cholesky decomposition & store         ...        done! (  0.1s)
Overall time for CPCM initialization              ...                 0.1s
--------------
SCF ITERATIONS
--------------
ITER       Energy         Delta-E        Max-DP      RMS-DP      [F,P]     Damp
               ***  Starting incremental Fock matrix formation  ***
  0   -540.3986889283   0.000000000000 0.03257663  0.00034307  0.1708715 0.8500
  1   -540.4746216226  -0.075932694275 0.03871418  0.00034073  0.1371142 0.8500
                               ***Turning on DIIS***
  2   -540.5324023718  -0.057780749186 0.03508488  0.00028284  0.1047699 0.8500
  3   -540.5752251012  -0.042822729385 0.02864733  0.00021619  0.0801289 0.8500
  4   -540.6081455989  -0.032920497723 0.02358548  0.00017392  0.0640717 0.8500
  5   -540.6340082308  -0.025862631866 0.01992991  0.00014626  0.0529825 0.8500
  6   -540.6549794316  -0.020971200865 0.01708605  0.00012522  0.0445191 0.8500
  7   -540.6722986864  -0.017319254791 0.01483461  0.00010839  0.0376784 0.8500
  8   -540.6867602384  -0.014461551934 0.01287800  0.00009365  0.0318955 0.8500
  9   -540.6988729647  -0.012112726301 0.07410472  0.00053631  0.0269647 0.0000
 10   -540.7644440675  -0.065571102879 0.00095421  0.00001862  0.0012208 0.0000
                      *** Initiating the SOSCF procedure ***
                           *** Shutting down DIIS ***
                      *** Re-Reading the Fockian *** 
                      *** Removing any level shift *** 
ITER      Energy       Delta-E        Grad      Rot      Max-DP    RMS-DP
 11   -540.76446854  -0.0000244758  0.000221  0.000221  0.000761  0.000012
               *** Restarting incremental Fock matrix formation ***
 12   -540.76444927   0.0000192727  0.000147  0.000319  0.001366  0.000016
 13   -540.76445013  -0.0000008632  0.000045  0.000212  0.000911  0.000009
 14   -540.76445026  -0.0000001311  0.000027  0.000024  0.000175  0.000003
 15   -540.76445031  -0.0000000453  0.000005  0.000007  0.000040  0.000001
 16   -540.76445031   0.0000000018  0.000003  0.000007  0.000040  0.000000
                  ***Gradient check signals convergence***
              ***Rediagonalizing the Fockian in SOSCF/NRSCF***

               *****************************************************
               *                     SUCCESS                       *
               *           SCF CONVERGED AFTER  17 CYCLES          *
               *****************************************************

Old exchange energy                            =    -25.329923742 Eh
New exchange energy                            =    -25.329913128 Eh
Exchange energy change after final integration =      0.000010614 Eh
Total energy after final integration           =   -540.764439707 Eh
Final COS-X integration done in                =    60.943 sec

----------------
TOTAL SCF ENERGY
----------------

Total Energy       :         -540.76443971 Eh          -14714.94850 eV

Components:
Nuclear Repulsion  :          851.70410838 Eh           23176.04704 eV
Electronic Energy  :        -1392.46854809 Eh          -37890.99553 eV
One Electron Energy:        -2420.06188356 Eh          -65853.23177 eV
Two Electron Energy:         1027.59333547 Eh           27962.23623 eV
Max COSX asymmetry :            0.00000253 Eh               0.00007 eV
CPCM Dielectric    :           -0.01685184 Eh              -0.45856 eV

Virial components:
Potential Energy   :        -1078.67927849 Eh          -29352.35541 eV
Kinetic Energy     :          537.91483879 Eh           14637.40691 eV
Virial Ratio       :            2.00529749


DFT components:
N(Alpha)           :       50.000279592818 electrons
N(Beta)            :       50.000279592818 electrons
N(Total)           :      100.000559185635 electrons
E(XC)              :      -55.640987890466 Eh       
DFET-embed. en.    :        0.000000000000 Eh       
CPCM Solvation Model Properties:
Surface-charge          :           -0.03598755
Charge-correction       :           -0.00059156 Eh              -0.01610 eV
Free-energy (cav+disp)  :  This term is not implemented in the current solvation scheme

---------------
SCF CONVERGENCE
---------------

  Last Energy change         ...   -1.3141e-08  Tolerance :   1.0000e-08
  Last MAX-Density change    ...    1.5543e-15  Tolerance :   1.0000e-07
  Last RMS-Density change    ...    1.5412e-17  Tolerance :   5.0000e-09
  Last Orbital Gradient      ...    1.1388e-06  Tolerance :   1.0000e-05
  Last Orbital Rotation      ...    4.0280e-06  Tolerance :   1.0000e-05

             **** THE GBW FILE WAS UPDATED (6_deprot.gbw) ****
             **** DENSITY 6_deprot.scfp WAS UPDATED ****
             **** ENERGY FILE WAS UPDATED (6_deprot.en.tmp) ****
             **** THE GBW FILE WAS UPDATED (6_deprot.gbw) ****
             **** DENSITY 6_deprot.scfp WAS UPDATED ****
----------------
ORBITAL ENERGIES
----------------

  NO   OCC          E(Eh)            E(eV) 
   0   2.0000     -14.428387      -392.6164 
   1   2.0000     -14.428362      -392.6157 
   2   2.0000     -10.294212      -280.1197 
   3   2.0000     -10.294206      -280.1196 
   4   2.0000     -10.279553      -279.7209 
   5   2.0000     -10.278869      -279.7023 
   6   2.0000     -10.258555      -279.1495 
   7   2.0000     -10.255966      -279.0790 
   8   2.0000     -10.255955      -279.0787 
   9   2.0000     -10.242240      -278.7055 
  10   2.0000     -10.242239      -278.7055 
  11   2.0000     -10.242233      -278.7053 
  12   2.0000     -10.242232      -278.7053 
  13   2.0000      -1.147825       -31.2339 
  14   2.0000      -1.043778       -28.4026 
  15   2.0000      -0.941647       -25.6235 
  16   2.0000      -0.906269       -24.6608 
  17   2.0000      -0.893923       -24.3249 
  18   2.0000      -0.846175       -23.0256 
  19   2.0000      -0.812032       -22.0965 
  20   2.0000      -0.811491       -22.0818 
  21   2.0000      -0.790371       -21.5071 
  22   2.0000      -0.769776       -20.9467 
  23   2.0000      -0.701292       -19.0831 
  24   2.0000      -0.681986       -18.5578 
  25   2.0000      -0.645811       -17.5734 
  26   2.0000      -0.620094       -16.8736 
  27   2.0000      -0.582512       -15.8510 
  28   2.0000      -0.557311       -15.1652 
  29   2.0000      -0.556208       -15.1352 
  30   2.0000      -0.550822       -14.9886 
  31   2.0000      -0.536050       -14.5867 
  32   2.0000      -0.533464       -14.5163 
  33   2.0000      -0.520016       -14.1504 
  34   2.0000      -0.509720       -13.8702 
  35   2.0000      -0.508645       -13.8409 
  36   2.0000      -0.507562       -13.8115 
  37   2.0000      -0.494077       -13.4445 
  38   2.0000      -0.488356       -13.2889 
  39   2.0000      -0.486790       -13.2462 
  40   2.0000      -0.473193       -12.8762 
  41   2.0000      -0.466092       -12.6830 
  42   2.0000      -0.458595       -12.4790 
  43   2.0000      -0.453023       -12.3274 
  44   2.0000      -0.440661       -11.9910 
  45   2.0000      -0.440411       -11.9842 
  46   2.0000      -0.430533       -11.7154 
  47   2.0000      -0.360746        -9.8164 
  48   2.0000      -0.322349        -8.7716 
  49   2.0000      -0.302658        -8.2358 
  50   0.0000       0.108895         2.9632 
  51   0.0000       0.112877         3.0715 
  52   0.0000       0.125621         3.4183 
  53   0.0000       0.132930         3.6172 
  54   0.0000       0.138460         3.7677 
  55   0.0000       0.150992         4.1087 
  56   0.0000       0.164813         4.4848 
  57   0.0000       0.165159         4.4942 
  58   0.0000       0.172390         4.6910 
  59   0.0000       0.174254         4.7417 
  60   0.0000       0.184598         5.0232 
  61   0.0000       0.187104         5.0914 
  62   0.0000       0.196640         5.3508 
  63   0.0000       0.205753         5.5988 
  64   0.0000       0.208444         5.6721 
  65   0.0000       0.210673         5.7327 
  66   0.0000       0.216321         5.8864 
  67   0.0000       0.218997         5.9592 
  68   0.0000       0.221791         6.0353 
  69   0.0000       0.224788         6.1168 
  70   0.0000       0.227173         6.1817 
  71   0.0000       0.241468         6.5707 
  72   0.0000       0.243305         6.6207 
  73   0.0000       0.249219         6.7816 
  74   0.0000       0.254833         6.9344 
  75   0.0000       0.266425         7.2498 
  76   0.0000       0.269334         7.3290 
  77   0.0000       0.271220         7.3803 
  78   0.0000       0.278231         7.5711 
  79   0.0000       0.281983         7.6731 
  80   0.0000       0.293099         7.9756 
  81   0.0000       0.297391         8.0924 
  82   0.0000       0.298636         8.1263 
  83   0.0000       0.311382         8.4731 
  84   0.0000       0.320056         8.7092 
  85   0.0000       0.320193         8.7129 
  86   0.0000       0.338742         9.2177 
  87   0.0000       0.340207         9.2575 
  88   0.0000       0.343748         9.3538 
  89   0.0000       0.344689         9.3795 
  90   0.0000       0.350376         9.5342 
  91   0.0000       0.371580        10.1112 
  92   0.0000       0.372851        10.1458 
  93   0.0000       0.391252        10.6465 
  94   0.0000       0.397254        10.8098 
  95   0.0000       0.401436        10.9236 
  96   0.0000       0.411480        11.1970 
  97   0.0000       0.412317        11.2197 
  98   0.0000       0.425730        11.5847 
  99   0.0000       0.436852        11.8873 
 100   0.0000       0.437185        11.8964 
 101   0.0000       0.455655        12.3990 
 102   0.0000       0.465253        12.6602 
 103   0.0000       0.473034        12.8719 
 104   0.0000       0.475333        12.9345 
 105   0.0000       0.482733        13.1358 
 106   0.0000       0.501723        13.6526 
 107   0.0000       0.504653        13.7323 
 108   0.0000       0.509100        13.8533 
 109   0.0000       0.511952        13.9309 
 110   0.0000       0.517483        14.0814 
 111   0.0000       0.518561        14.1108 
 112   0.0000       0.519924        14.1479 
 113   0.0000       0.521767        14.1980 
 114   0.0000       0.528288        14.3754 
 115   0.0000       0.538065        14.6415 
 116   0.0000       0.541599        14.7377 
 117   0.0000       0.550090        14.9687 
 118   0.0000       0.553892        15.0722 
 119   0.0000       0.557911        15.1815 
 120   0.0000       0.565241        15.3810 
 121   0.0000       0.573875        15.6159 
 122   0.0000       0.575372        15.6567 
 123   0.0000       0.576273        15.6812 
 124   0.0000       0.576798        15.6955 
 125   0.0000       0.577197        15.7063 
 126   0.0000       0.579259        15.7624 
 127   0.0000       0.590441        16.0667 
 128   0.0000       0.590583        16.0706 
 129   0.0000       0.600270        16.3342 
 130   0.0000       0.600316        16.3354 
 131   0.0000       0.602780        16.4025 
 132   0.0000       0.618988        16.8435 
 133   0.0000       0.629267        17.1232 
 134   0.0000       0.642620        17.4866 
 135   0.0000       0.646797        17.6003 
 136   0.0000       0.653233        17.7754 
 137   0.0000       0.665017        18.0960 
 138   0.0000       0.667584        18.1659 
 139   0.0000       0.672324        18.2949 
 140   0.0000       0.686143        18.6709 
 141   0.0000       0.698672        19.0118 
 142   0.0000       0.701370        19.0852 
 143   0.0000       0.718204        19.5433 
 144   0.0000       0.725835        19.7510 
 145   0.0000       0.730623        19.8813 
 146   0.0000       0.753938        20.5157 
 147   0.0000       0.778749        21.1908 
 148   0.0000       0.784160        21.3381 
 149   0.0000       0.801057        21.7979 
 150   0.0000       0.810202        22.0467 
 151   0.0000       0.811888        22.0926 
 152   0.0000       0.818549        22.2738 
 153   0.0000       0.823212        22.4007 
 154   0.0000       0.835889        22.7457 
 155   0.0000       0.841209        22.8905 
 156   0.0000       0.858174        23.3521 
 157   0.0000       0.897684        24.4272 
 158   0.0000       0.909778        24.7563 
 159   0.0000       0.910185        24.7674 
 160   0.0000       0.924055        25.1448 
 161   0.0000       0.948098        25.7991 
 162   0.0000       0.953616        25.9492 
 163   0.0000       0.962210        26.1831 
 164   0.0000       0.968888        26.3648 
 165   0.0000       0.970815        26.4172 
 166   0.0000       0.983073        26.7508 
 167   0.0000       1.000866        27.2350 
 168   0.0000       1.005473        27.3603 
 169   0.0000       1.023543        27.8520 
 170   0.0000       1.042214        28.3601 
 171   0.0000       1.062926        28.9237 
 172   0.0000       1.066492        29.0207 
 173   0.0000       1.072463        29.1832 
 174   0.0000       1.074085        29.2273 
 175   0.0000       1.086109        29.5545 
 176   0.0000       1.101446        29.9719 
 177   0.0000       1.108921        30.1753 
 178   0.0000       1.113389        30.2968 
 179   0.0000       1.132226        30.8094 
 180   0.0000       1.148113        31.2417 
 181   0.0000       1.151227        31.3265 
 182   0.0000       1.160593        31.5814 
 183   0.0000       1.170801        31.8591 
 184   0.0000       1.173375        31.9292 
 185   0.0000       1.188973        32.3536 
 186   0.0000       1.189944        32.3800 
 187   0.0000       1.193813        32.4853 
 188   0.0000       1.207729        32.8640 
 189   0.0000       1.209034        32.8995 
 190   0.0000       1.236285        33.6410 
 191   0.0000       1.237441        33.6725 
 192   0.0000       1.265114        34.4255 
 193   0.0000       1.270624        34.5754 
 194   0.0000       1.280134        34.8342 
 195   0.0000       1.294197        35.2169 
 196   0.0000       1.309667        35.6379 
 197   0.0000       1.323536        36.0153 
 198   0.0000       1.324217        36.0338 
 199   0.0000       1.366179        37.1756 
 200   0.0000       1.371397        37.3176 
 201   0.0000       1.375339        37.4249 
 202   0.0000       1.392327        37.8871 
 203   0.0000       1.404827        38.2273 
 204   0.0000       1.409020        38.3414 
 205   0.0000       1.428494        38.8713 
 206   0.0000       1.454349        39.5748 
 207   0.0000       1.476138        40.1678 
 208   0.0000       1.483286        40.3623 
 209   0.0000       1.511165        41.1209 
 210   0.0000       1.546912        42.0936 
 211   0.0000       1.578714        42.9590 
 212   0.0000       1.579425        42.9783 
 213   0.0000       1.599615        43.5277 
 214   0.0000       1.604001        43.6471 
 215   0.0000       1.629953        44.3533 
 216   0.0000       1.639188        44.6046 
 217   0.0000       1.639421        44.6109 
 218   0.0000       1.643544        44.7231 
 219   0.0000       1.652251        44.9600 
 220   0.0000       1.654363        45.0175 
 221   0.0000       1.654392        45.0183 
 222   0.0000       1.666122        45.3375 
 223   0.0000       1.667667        45.3795 
 224   0.0000       1.672190        45.5026 
 225   0.0000       1.678962        45.6869 
 226   0.0000       1.681381        45.7527 
 227   0.0000       1.687224        45.9117 
 228   0.0000       1.690259        45.9943 
 229   0.0000       1.705596        46.4116 
 230   0.0000       1.712096        46.5885 
 231   0.0000       1.714109        46.6433 
 232   0.0000       1.728676        47.0397 
 233   0.0000       1.730854        47.0989 
 234   0.0000       1.734171        47.1892 
 235   0.0000       1.743822        47.4518 
 236   0.0000       1.766611        48.0719 
 237   0.0000       1.774888        48.2971 
 238   0.0000       1.776972        48.3539 
 239   0.0000       1.778469        48.3946 
 240   0.0000       1.780795        48.4579 
 241   0.0000       1.809416        49.2367 
 242   0.0000       1.818546        49.4851 
 243   0.0000       1.818579        49.4860 
 244   0.0000       1.841692        50.1150 
 245   0.0000       1.848694        50.3055 
 246   0.0000       1.853853        50.4459 
 247   0.0000       1.865506        50.7630 
 248   0.0000       1.869729        50.8779 
 249   0.0000       1.875715        51.0408 
 250   0.0000       1.885547        51.3083 
 251   0.0000       1.887818        51.3701 
 252   0.0000       1.890782        51.4508 
 253   0.0000       1.926143        52.4130 
 254   0.0000       1.942438        52.8564 
 255   0.0000       1.959319        53.3158 
 256   0.0000       1.973118        53.6913 
 257   0.0000       1.989259        54.1305 
 258   0.0000       2.012751        54.7697 
 259   0.0000       2.014680        54.8222 
 260   0.0000       2.043759        55.6135 
 261   0.0000       2.046539        55.6892 
 262   0.0000       2.064500        56.1779 
 263   0.0000       2.083339        56.6905 
 264   0.0000       2.089561        56.8599 
 265   0.0000       2.105210        57.2857 
 266   0.0000       2.120495        57.7016 
 267   0.0000       2.137311        58.1592 
 268   0.0000       2.146836        58.4184 
 269   0.0000       2.186502        59.4977 
 270   0.0000       2.189750        59.5861 
 271   0.0000       2.213683        60.2374 
 272   0.0000       2.230501        60.6950 
 273   0.0000       2.232804        60.7577 
 274   0.0000       2.236294        60.8526 
 275   0.0000       2.242236        61.0143 
 276   0.0000       2.244866        61.0859 
 277   0.0000       2.251895        61.2772 
 278   0.0000       2.284983        62.1775 
 279   0.0000       2.301987        62.6402 
 280   0.0000       2.310065        62.8601 
 281   0.0000       2.339447        63.6596 
 282   0.0000       2.344858        63.8068 
 283   0.0000       2.357240        64.1438 
 284   0.0000       2.368591        64.4526 
 285   0.0000       2.383263        64.8519 
 286   0.0000       2.405803        65.4652 
 287   0.0000       2.407979        65.5244 
 288   0.0000       2.410551        65.5944 
 289   0.0000       2.413973        65.6876 
 290   0.0000       2.435615        66.2764 
 291   0.0000       2.441470        66.4358 
 292   0.0000       2.443269        66.4847 
 293   0.0000       2.453071        66.7515 
 294   0.0000       2.458652        66.9033 
 295   0.0000       2.472914        67.2914 
 296   0.0000       2.476974        67.4019 
 297   0.0000       2.484591        67.6092 
 298   0.0000       2.485679        67.6388 
 299   0.0000       2.498466        67.9867 
 300   0.0000       2.506425        68.2033 
 301   0.0000       2.512352        68.3646 
 302   0.0000       2.513143        68.3861 
 303   0.0000       2.526053        68.7374 
 304   0.0000       2.567207        69.8573 
 305   0.0000       2.572309        69.9961 
 306   0.0000       2.583818        70.3093 
 307   0.0000       2.584113        70.3173 
 308   0.0000       2.590739        70.4976 
 309   0.0000       2.598583        70.7110 
 310   0.0000       2.608318        70.9759 
 311   0.0000       2.621585        71.3370 
 312   0.0000       2.621686        71.3397 
 313   0.0000       2.634667        71.6929 
 314   0.0000       2.641467        71.8780 
 315   0.0000       2.649409        72.0941 
 316   0.0000       2.667777        72.5939 
 317   0.0000       2.676473        72.8305 
 318   0.0000       2.680731        72.9464 
 319   0.0000       2.687227        73.1232 
 320   0.0000       2.699124        73.4469 
 321   0.0000       2.705351        73.6163 
 322   0.0000       2.708732        73.7083 
 323   0.0000       2.713039        73.8255 
 324   0.0000       2.713598        73.8407 
 325   0.0000       2.728442        74.2447 
 326   0.0000       2.761347        75.1401 
 327   0.0000       2.779733        75.6404 
 328   0.0000       2.792832        75.9968 
 329   0.0000       2.805958        76.3540 
 330   0.0000       2.806019        76.3557 
 331   0.0000       2.822899        76.8150 
 332   0.0000       2.828118        76.9570 
 333   0.0000       2.829231        76.9873 
 334   0.0000       2.843009        77.3622 
 335   0.0000       2.847737        77.4909 
 336   0.0000       2.868759        78.0629 
 337   0.0000       2.880214        78.3746 
 338   0.0000       2.882286        78.4310 
 339   0.0000       2.900770        78.9340 
 340   0.0000       2.901054        78.9417 
 341   0.0000       2.909162        79.1623 
 342   0.0000       2.931672        79.7749 
 343   0.0000       2.953692        80.3741 
 344   0.0000       2.995640        81.5155 
 345   0.0000       3.003070        81.7177 
 346   0.0000       3.009974        81.9055 
 347   0.0000       3.022166        82.2373 
 348   0.0000       3.031583        82.4936 
 349   0.0000       3.051486        83.0352 
 350   0.0000       3.053379        83.0867 
 351   0.0000       3.076884        83.7263 
 352   0.0000       3.079862        83.8073 
 353   0.0000       3.104209        84.4698 
 354   0.0000       3.107799        84.5675 
 355   0.0000       3.131245        85.2055 
 356   0.0000       3.138738        85.4094 
 357   0.0000       3.161223        86.0212 
 358   0.0000       3.175567        86.4116 
 359   0.0000       3.179572        86.5206 
 360   0.0000       3.191220        86.8375 
 361   0.0000       3.192103        86.8615 
 362   0.0000       3.207378        87.2772 
 363   0.0000       3.211324        87.3846 
 364   0.0000       3.218115        87.5694 
 365   0.0000       3.248490        88.3959 
 366   0.0000       3.254623        88.5628 
 367   0.0000       3.267151        88.9037 
 368   0.0000       3.274880        89.1140 
 369   0.0000       3.284697        89.3811 
 370   0.0000       3.285164        89.3939 
 371   0.0000       3.286557        89.4318 
 372   0.0000       3.312712        90.1435 
 373   0.0000       3.313471        90.1641 
 374   0.0000       3.321385        90.3795 
 375   0.0000       3.322521        90.4104 
 376   0.0000       3.323078        90.4256 
 377   0.0000       3.336557        90.7923 
 378   0.0000       3.342752        90.9609 
 379   0.0000       3.345372        91.0322 
 380   0.0000       3.353944        91.2655 
 381   0.0000       3.355491        91.3076 
 382   0.0000       3.371818        91.7518 
 383   0.0000       3.384885        92.1074 
 384   0.0000       3.392761        92.3217 
 385   0.0000       3.403405        92.6113 
 386   0.0000       3.409564        92.7790 
 387   0.0000       3.421495        93.1036 
 388   0.0000       3.422465        93.1300 
 389   0.0000       3.433889        93.4409 
 390   0.0000       3.438255        93.5597 
 391   0.0000       3.443951        93.7147 
 392   0.0000       3.457864        94.0933 
 393   0.0000       3.462696        94.2247 
 394   0.0000       3.462878        94.2297 
 395   0.0000       3.471922        94.4758 
 396   0.0000       3.508985        95.4843 
 397   0.0000       3.518739        95.7498 
 398   0.0000       3.524275        95.9004 
 399   0.0000       3.531884        96.1074 
 400   0.0000       3.541277        96.3630 
 401   0.0000       3.556180        96.7686 
 402   0.0000       3.563440        96.9661 
 403   0.0000       3.606894        98.1486 
 404   0.0000       3.617427        98.4352 
 405   0.0000       3.627018        98.6962 
 406   0.0000       3.630437        98.7892 
 407   0.0000       3.648765        99.2879 
 408   0.0000       3.660791        99.6152 
 409   0.0000       3.674748        99.9950 
 410   0.0000       3.684382       100.2571 
 411   0.0000       3.690569       100.4255 
 412   0.0000       3.694301       100.5271 
 413   0.0000       3.706453       100.8577 
 414   0.0000       3.708564       100.9151 
 415   0.0000       3.709634       100.9443 
 416   0.0000       3.711398       100.9923 
 417   0.0000       3.754226       102.1577 
 418   0.0000       3.786395       103.0331 
 419   0.0000       3.789077       103.1060 
 420   0.0000       3.794346       103.2494 
 421   0.0000       3.795011       103.2675 
 422   0.0000       3.797763       103.3424 
 423   0.0000       3.819287       103.9281 
 424   0.0000       3.848753       104.7299 
 425   0.0000       3.865092       105.1745 
 426   0.0000       3.878764       105.5465 
 427   0.0000       3.915120       106.5358 
 428   0.0000       3.915609       106.5491 
 429   0.0000       3.937284       107.1389 
 430   0.0000       3.951484       107.5253 
 431   0.0000       3.964004       107.8660 
 432   0.0000       4.008575       109.0789 
 433   0.0000       4.032356       109.7260 
 434   0.0000       4.055554       110.3572 
 435   0.0000       4.072709       110.8240 
 436   0.0000       4.085753       111.1790 
 437   0.0000       4.111161       111.8704 
 438   0.0000       4.111808       111.8880 
 439   0.0000       4.121398       112.1489 
 440   0.0000       4.121480       112.1512 
 441   0.0000       4.130086       112.3853 
 442   0.0000       4.141981       112.7090 
 443   0.0000       4.173316       113.5617 
 444   0.0000       4.180437       113.7555 
 445   0.0000       4.190453       114.0280 
 446   0.0000       4.191282       114.0506 
 447   0.0000       4.204771       114.4176 
 448   0.0000       4.229990       115.1039 
 449   0.0000       4.237866       115.3182 
 450   0.0000       4.244101       115.4879 
 451   0.0000       4.277520       116.3972 
 452   0.0000       4.351744       118.4170 
 453   0.0000       4.420222       120.2803 
 454   0.0000       4.428585       120.5079 
 455   0.0000       4.442638       120.8903 
 456   0.0000       4.444128       120.9309 
 457   0.0000       4.444797       120.9491 
 458   0.0000       4.457280       121.2888 
 459   0.0000       4.482831       121.9840 
 460   0.0000       4.486194       122.0755 
 461   0.0000       4.487355       122.1071 
 462   0.0000       4.501088       122.4808 
 463   0.0000       4.504168       122.5646 
 464   0.0000       4.514338       122.8414 
 465   0.0000       4.533433       123.3610 
 466   0.0000       4.539298       123.5206 
 467   0.0000       4.547319       123.7388 
 468   0.0000       4.576274       124.5268 
 469   0.0000       4.589251       124.8799 
 470   0.0000       4.641235       126.2944 
 471   0.0000       4.664436       126.9258 
 472   0.0000       4.666612       126.9850 
 473   0.0000       4.721236       128.4714 
 474   0.0000       4.743510       129.0775 
 475   0.0000       4.772100       129.8554 
 476   0.0000       4.832496       131.4989 
 477   0.0000       4.910263       133.6150 
 478   0.0000       4.918158       133.8299 
 479   0.0000       4.943253       134.5128 
 480   0.0000       4.974492       135.3628 
 481   0.0000       4.981763       135.5607 
 482   0.0000       5.007365       136.2573 
 483   0.0000       5.024409       136.7211 
 484   0.0000       5.046177       137.3135 
 485   0.0000       5.090150       138.5100 
 486   0.0000       5.104068       138.8887 
 487   0.0000       5.129525       139.5815 
 488   0.0000       5.161550       140.4529 
 489   0.0000       5.213671       141.8712 
 490   0.0000       5.238483       142.5464 
 491   0.0000       5.364748       145.9822 
 492   0.0000       5.367304       146.0518 
 493   0.0000       5.384708       146.5253 
 494   0.0000       5.406479       147.1178 
 495   0.0000       5.425045       147.6230 
 496   0.0000       5.435476       147.9068 
 497   0.0000       5.516498       150.1115 
 498   0.0000       5.548799       150.9905 
 499   0.0000       5.607732       152.5941 
 500   0.0000       5.628717       153.1652 
 501   0.0000       5.803134       157.9113 
 502   0.0000       5.804590       157.9509 
 503   0.0000       5.882681       160.0759 
 504   0.0000       5.976946       162.6410 
 505   0.0000       5.987266       162.9218 
 506   0.0000       6.120411       166.5449 
 507   0.0000       6.158982       167.5944 
 508   0.0000       6.226473       169.4309 
 509   0.0000       6.330102       172.2508 
 510   0.0000      22.390573       609.2785 
 511   0.0000      22.414936       609.9414 
[...]
     42      -0.007029   0.001433  -0.000283
     43      -0.033648   0.006330  -0.001272
     44      -0.024627   0.005040  -0.001168
     45       0.007030  -0.001433   0.000283
     46      -0.033645   0.006330  -0.001272
     47      -0.024626   0.005040  -0.001168
     48       0.007029   0.001433   0.000283
     49       0.033644   0.006331   0.001272
     50      -0.024624  -0.005040  -0.001168
     51      -0.000000  -0.000000  -0.000000
     52       0.014319   0.004398   0.001529
     53      -0.020517  -0.006396  -0.002300
     54       0.000000  -0.000000   0.000000
     55      -0.014321   0.004397  -0.001529
     56      -0.020519   0.006396  -0.002300
     57       0.091440   0.018849   0.003953
     58       0.028039   0.005626   0.001144
     59       0.057540   0.011802   0.002444
     60       0.091456  -0.018846   0.003953
     61      -0.028043   0.005625  -0.001144
     62       0.057550  -0.011800   0.002445
     63      -0.091460   0.018847  -0.003953
     64      -0.028043   0.005625  -0.001144
     65       0.057552  -0.011800   0.002445
     66      -0.091448  -0.018849  -0.003953
     67       0.028039   0.005626   0.001144
     68       0.057545   0.011802   0.002444
     69      -0.013347  -0.002972  -0.000826
     70      -0.194127  -0.038875  -0.009014
     71       0.306332   0.061406   0.014267
     72      -0.013350   0.002972  -0.000826
     73       0.194149  -0.038870   0.009015
     74       0.306367  -0.061398   0.014270
     75       0.013348  -0.002971   0.000826
     76       0.194139  -0.038869   0.009015
     77       0.306350  -0.061396   0.014269
     78       0.013348   0.002972   0.000826
     79      -0.194129  -0.038874  -0.009013
     80       0.306332   0.061404   0.014266
     81       0.002366   0.000473   0.000070
     82      -0.241682  -0.043763  -0.007747
     83      -0.065230  -0.011921  -0.002113
     84       0.002366  -0.000473   0.000070
     85       0.241699  -0.043756   0.007749
     86      -0.065234   0.011920  -0.002113
     87      -0.002364   0.000473  -0.000070
     88       0.241675  -0.043753   0.007748
     89      -0.065229   0.011919  -0.002113
     90      -0.002364  -0.000473  -0.000070
     91      -0.241671  -0.043760  -0.007746
     92      -0.065228  -0.011921  -0.002113
     93       0.000000   0.000000   0.000000
     94      -0.156339  -0.049934  -0.018405
     95       0.236988   0.073767   0.026170
     96      -0.000000   0.000000  -0.000000
     97       0.156354  -0.049928   0.018407
     98       0.237011  -0.073758   0.026174


-----------
IR SPECTRUM
-----------

 Mode   freq       eps      Int      T**2         TX        TY        TZ
       cm**-1   L/(mol*cm) km/mol    a.u.
----------------------------------------------------------------------------
  6:     29.95   0.000895    4.52  0.009327  ( 0.096575 -0.000001 -0.000001)
  7:     47.32   0.000000    0.00  0.000000  (-0.000003 -0.000000  0.000000)
  8:     89.32   0.001215    6.14  0.004245  ( 0.065150  0.000000 -0.000000)
  9:    111.66   0.000000    0.00  0.000000  (-0.000000  0.000001 -0.000000)
 10:    155.39   0.000587    2.97  0.001180  (-0.000000  0.000000 -0.034347)
 11:    213.68   0.000000    0.00  0.000000  (-0.000002 -0.000000  0.000000)
 12:    219.13   0.000069    0.35  0.000099  (-0.009929  0.000001  0.000000)
 13:    232.15   0.000000    0.00  0.000000  ( 0.000001  0.000016  0.000000)
 14:    232.50   0.000790    3.99  0.001061  ( 0.000000  0.032570 -0.000000)
 15:    259.56   0.000002    0.01  0.000002  ( 0.001375  0.000000 -0.000000)
 16:    260.74   0.000000    0.00  0.000000  ( 0.000001  0.000000 -0.000000)
 17:    276.43   0.000214    1.08  0.000242  (-0.015551  0.000000  0.000000)
 18:    280.04   0.000092    0.47  0.000103  ( 0.000000  0.010135 -0.000001)
 19:    284.40   0.000044    0.22  0.000049  (-0.000000  0.000001  0.006978)
 20:    290.10   0.000113    0.57  0.000122  ( 0.000000 -0.000000  0.011045)
 21:    325.51   0.000115    0.58  0.000110  (-0.000000 -0.000003  0.010485)
 22:    326.28   0.000363    1.84  0.000347  ( 0.000000 -0.018637 -0.000002)
 23:    405.02   0.003601   18.20  0.002774  (-0.052672  0.000000  0.000000)
 24:    422.81   0.000089    0.45  0.000066  (-0.000000 -0.008098  0.000000)
 25:    477.37   0.000066    0.34  0.000043  ( 0.000000  0.000000 -0.006587)
 26:    491.84   0.000000    0.00  0.000000  ( 0.000000 -0.000001  0.000000)
 27:    549.50   0.000678    3.43  0.000385  (-0.000000 -0.019624 -0.000000)
 28:    615.14   0.001491    7.54  0.000757  (-0.000000 -0.000000  0.027507)
 29:    635.04   0.000169    0.86  0.000083  ( 0.000000  0.009120  0.000000)
 30:    679.11   0.000143    0.72  0.000066  (-0.008101  0.000001  0.000000)
 31:    699.15   0.000000    0.00  0.000000  (-0.000001 -0.000000 -0.000000)
 32:    741.38   0.001091    5.51  0.000459  (-0.000000  0.000000 -0.021432)
 33:    806.84   0.001066    5.38  0.000412  ( 0.000000  0.020301 -0.000000)
 34:    913.06   0.000181    0.92  0.000062  ( 0.000000  0.000000 -0.007875)
 35:    930.85   0.002217   11.20  0.000743  ( 0.000000 -0.027260 -0.000000)
 36:    943.39   0.000000    0.00  0.000000  ( 0.000030 -0.000000 -0.000000)
 37:    943.55   0.000779    3.94  0.000258  (-0.016052 -0.000000 -0.000000)
 38:    970.14   0.000000    0.00  0.000000  ( 0.000001 -0.000000 -0.000000)
 39:    970.76   0.000050    0.25  0.000016  (-0.004019 -0.000000  0.000000)
 40:    981.60   0.000737    3.73  0.000234  ( 0.000000 -0.000000  0.015308)
 41:   1066.26   0.000359    1.82  0.000105  ( 0.010255 -0.000000  0.000000)
 42:   1081.16   0.001016    5.14  0.000293  ( 0.000000  0.017127 -0.000000)
 43:   1085.50   0.000000    0.00  0.000000  ( 0.000000  0.000000  0.000000)
 44:   1103.01   0.001098    5.55  0.000311  ( 0.000000 -0.000000 -0.017627)
 45:   1149.85   0.016493   83.35  0.004476  (-0.000000  0.066904  0.000001)
 46:   1151.45   0.000565    2.86  0.000153  (-0.000000  0.000004 -0.012377)
 47:   1173.26   0.000000    0.00  0.000000  (-0.000004 -0.000000 -0.000000)
 48:   1173.88   0.004330   21.88  0.001151  ( 0.033926  0.000000 -0.000000)
 49:   1186.89   0.000347    1.75  0.000091  ( 0.000000 -0.009545  0.000000)
 50:   1223.31   0.000547    2.76  0.000139  (-0.000000  0.000000 -0.011808)
 51:   1228.00   0.001840    9.30  0.000468  ( 0.000000 -0.021625  0.000000)
 52:   1340.82   0.002459   12.43  0.000572  (-0.000000  0.000000 -0.023921)
 53:   1369.41   0.000000    0.00  0.000000  ( 0.000003  0.000001  0.000000)
 54:   1369.49   0.000125    0.63  0.000028  ( 0.005329  0.000000 -0.000001)
 55:   1373.50   0.013323   67.33  0.003027  (-0.000000  0.055019  0.000000)
 56:   1407.03   0.000000    0.00  0.000000  ( 0.000034 -0.000002  0.000001)
 57:   1407.14   0.007892   39.88  0.001750  ( 0.041835 -0.000000  0.000000)
 58:   1408.98   0.004475   22.61  0.000991  (-0.000000 -0.000012  0.031482)
 59:   1410.32   0.021202  107.14  0.004691  ( 0.000001  0.068493  0.000006)
 60:   1414.07   0.002594   13.11  0.000572  ( 0.000000  0.000008  0.023924)
 61:   1414.64   0.008495   42.93  0.001874  ( 0.000001 -0.043289  0.000005)
 62:   1436.75   0.006908   34.91  0.001500  ( 0.000000  0.038734 -0.000004)
 63:   1437.41   0.004155   21.00  0.000902  ( 0.000000  0.000005  0.030034)
 64:   1461.81   0.000640    3.24  0.000137  (-0.000001 -0.011691 -0.000000)
 65:   1471.62   0.007869   39.77  0.001669  (-0.000003  0.000000 -0.040849)
 66:   1473.03   0.006653   33.62  0.001409  (-0.037542 -0.000000  0.000002)
 67:   1473.70   0.000000    0.00  0.000000  ( 0.000014  0.000000  0.000000)
 68:   1475.77   0.000106    0.54  0.000022  (-0.004741  0.000000  0.000001)
 69:   1475.87   0.000000    0.00  0.000000  (-0.000014 -0.000000  0.000000)
 70:   1481.94   0.000000    0.00  0.000000  ( 0.000048  0.000000 -0.000000)
 71:   1481.96   0.000487    2.46  0.000103  (-0.010125  0.000000  0.000000)
 72:   1486.42   0.001475    7.45  0.000310  ( 0.000000 -0.017596  0.000003)
 73:   1487.57   0.000582    2.94  0.000122  ( 0.000001 -0.000004 -0.011052)
 74:   1491.05   0.000206    1.04  0.000043  (-0.000000 -0.006560 -0.000006)
 75:   1492.10   0.004326   21.86  0.000905  ( 0.000000 -0.000001  0.030081)
 76:   1502.88   0.001205    6.09  0.000250  (-0.000000  0.015817  0.000001)
 77:   1505.70   0.001084    5.48  0.000225  ( 0.000000 -0.000000 -0.014987)
 78:   1737.33   0.000745    3.76  0.000134  ( 0.000000 -0.000000  0.011565)
 79:   3063.25   0.011807   59.67  0.001203  ( 0.000000  0.034681 -0.000000)
 80:   3064.33   0.015040   76.01  0.001532  ( 0.039136 -0.000000  0.000000)
 81:   3064.37   0.000000    0.00  0.000000  ( 0.000058  0.000001  0.000000)
 82:   3065.74   0.003398   17.17  0.000346  ( 0.000000 -0.000000  0.018599)
 83:   3067.61   0.001477    7.46  0.000150  (-0.000000  0.012256 -0.000011)
 84:   3067.68   0.004622   23.36  0.000470  (-0.000001  0.000007  0.021684)
 85:   3122.58   0.000702    3.55  0.000070  (-0.000000  0.008376 -0.000017)
 86:   3122.71   0.000289    1.46  0.000029  ( 0.000000 -0.000026 -0.005370)
 87:   3125.96   0.008316   42.02  0.000830  ( 0.028812 -0.000000 -0.000001)
 88:   3126.18   0.000000    0.00  0.000000  (-0.000010 -0.000000 -0.000000)
 89:   3145.80   0.010336   52.23  0.001025  (-0.032021  0.000001  0.000002)
 90:   3145.83   0.000002    0.01  0.000000  (-0.000416  0.000004  0.000002)
 91:   3148.01   0.011408   57.65  0.001131  ( 0.000001  0.033626 -0.000359)
 92:   3148.03   0.012758   64.47  0.001265  ( 0.000005  0.000340  0.035560)
 93:   3148.58   0.000691    3.49  0.000068  ( 0.008275 -0.000001 -0.000010)
 94:   3148.65   0.000000    0.00  0.000000  ( 0.000004  0.000006 -0.000000)
 95:   3155.93   0.018098   91.46  0.001790  ( 0.000000  0.042303 -0.000001)
 96:   3156.44   0.011576   58.50  0.001144  ( 0.000000 -0.000002 -0.033830)
 97:   3159.83   0.009041   45.69  0.000893  (-0.000000  0.029882  0.000001)
 98:   3167.87   0.004027   20.35  0.000397  ( 0.000000 -0.000001  0.019917)

* The epsilon (eps) is given for a Dirac delta lineshape.
** The dipole moment derivative (T) already includes vibrational overlap.

The first frequency considered to be a vibration is 6
The total number of vibrations considered is 93


--------------------------
THERMOCHEMISTRY AT 298.15K
--------------------------

Temperature         ... 298.15 K
Pressure            ... 1.00 atm
Total Mass          ... 180.29 AMU

Throughout the following assumptions are being made:
  (1) The electronic state is orbitally nondegenerate
  (2) There are no thermally accessible electronically excited states
  (3) Hindered rotations indicated by low frequency modes are not
      treated as such but are treated as vibrations and this may
      cause some error
  (4) All equations used are the standard statistical mechanics
      equations for an ideal gas
  (5) All vibrations are strictly harmonic

freq.      29.95  E(vib)   ...       0.55 
freq.      47.32  E(vib)   ...       0.53 
freq.      89.32  E(vib)   ...       0.47 
freq.     111.66  E(vib)   ...       0.45 
freq.     155.39  E(vib)   ...       0.40 
freq.     213.68  E(vib)   ...       0.34 
freq.     219.13  E(vib)   ...       0.33 
freq.     232.15  E(vib)   ...       0.32 
freq.     232.50  E(vib)   ...       0.32 
freq.     259.56  E(vib)   ...       0.30 
freq.     260.74  E(vib)   ...       0.30 
freq.     276.43  E(vib)   ...       0.28 
freq.     280.04  E(vib)   ...       0.28 
freq.     284.40  E(vib)   ...       0.28 
freq.     290.10  E(vib)   ...       0.27 
freq.     325.51  E(vib)   ...       0.24 
freq.     326.28  E(vib)   ...       0.24 
freq.     405.02  E(vib)   ...       0.19 
freq.     422.81  E(vib)   ...       0.18 
freq.     477.37  E(vib)   ...       0.15 
freq.     491.84  E(vib)   ...       0.14 
freq.     549.50  E(vib)   ...       0.12 
freq.     615.14  E(vib)   ...       0.10 
freq.     635.04  E(vib)   ...       0.09 
freq.     679.11  E(vib)   ...       0.08 
freq.     699.15  E(vib)   ...       0.07 
freq.     741.38  E(vib)   ...       0.06 
freq.     806.84  E(vib)   ...       0.05 
freq.     913.06  E(vib)   ...       0.03 
freq.     930.85  E(vib)   ...       0.03 
freq.     943.39  E(vib)   ...       0.03 
freq.     943.55  E(vib)   ...       0.03 
freq.     970.14  E(vib)   ...       0.03 
freq.     970.76  E(vib)   ...       0.03 
freq.     981.60  E(vib)   ...       0.02 
freq.    1066.26  E(vib)   ...       0.02 
freq.    1081.16  E(vib)   ...       0.02 
freq.    1085.50  E(vib)   ...       0.02 
freq.    1103.01  E(vib)   ...       0.02 
freq.    1149.85  E(vib)   ...       0.01 
freq.    1151.45  E(vib)   ...       0.01 
freq.    1173.26  E(vib)   ...       0.01 
freq.    1173.88  E(vib)   ...       0.01 
freq.    1186.89  E(vib)   ...       0.01 
freq.    1223.31  E(vib)   ...       0.01 
freq.    1228.00  E(vib)   ...       0.01 
freq.    1340.82  E(vib)   ...       0.01 
freq.    1369.41  E(vib)   ...       0.01 
freq.    1369.49  E(vib)   ...       0.01 
freq.    1373.50  E(vib)   ...       0.01 
freq.    1407.03  E(vib)   ...       0.00 
freq.    1407.14  E(vib)   ...       0.00 
freq.    1408.98  E(vib)   ...       0.00 
freq.    1410.32  E(vib)   ...       0.00 
freq.    1414.07  E(vib)   ...       0.00 
freq.    1414.64  E(vib)   ...       0.00 
freq.    1436.75  E(vib)   ...       0.00 
freq.    1437.41  E(vib)   ...       0.00 
freq.    1461.81  E(vib)   ...       0.00 
freq.    1471.62  E(vib)   ...       0.00 
freq.    1473.03  E(vib)   ...       0.00 
freq.    1473.70  E(vib)   ...       0.00 
freq.    1475.77  E(vib)   ...       0.00 
freq.    1475.87  E(vib)   ...       0.00 
freq.    1481.94  E(vib)   ...       0.00 
freq.    1481.96  E(vib)   ...       0.00 
freq.    1486.42  E(vib)   ...       0.00 
freq.    1487.57  E(vib)   ...       0.00 
freq.    1491.05  E(vib)   ...       0.00 
freq.    1492.10  E(vib)   ...       0.00 
freq.    1502.88  E(vib)   ...       0.00 
freq.    1505.70  E(vib)   ...       0.00 
freq.    1737.33  E(vib)   ...       0.00 
freq.    3063.25  E(vib)   ...       0.00 
freq.    3064.33  E(vib)   ...       0.00 
freq.    3064.37  E(vib)   ...       0.00 
freq.    3065.74  E(vib)   ...       0.00 
freq.    3067.61  E(vib)   ...       0.00 
freq.    3067.68  E(vib)   ...       0.00 
freq.    3122.58  E(vib)   ...       0.00 
freq.    3122.71  E(vib)   ...       0.00 
freq.    3125.96  E(vib)   ...       0.00 
freq.    3126.18  E(vib)   ...       0.00 
freq.    3145.80  E(vib)   ...       0.00 
freq.    3145.83  E(vib)   ...       0.00 
freq.    3148.01  E(vib)   ...       0.00 
freq.    3148.03  E(vib)   ...       0.00 
freq.    3148.58  E(vib)   ...       0.00 
freq.    3148.65  E(vib)   ...       0.00 
freq.    3155.93  E(vib)   ...       0.00 
freq.    3156.44  E(vib)   ...       0.00 
freq.    3159.83  E(vib)   ...       0.00 
freq.    3167.87  E(vib)   ...       0.00 

------------
INNER ENERGY
------------

The inner energy is: U= E(el) + E(ZPE) + E(vib) + E(rot) + E(trans)
    E(el)   - is the total energy from the electronic structure calculation
              = E(kin-el) + E(nuc-el) + E(el-el) + E(nuc-nuc)
    E(ZPE)  - the the zero temperature vibrational energy from the frequency calculation
    E(vib)  - the the finite temperature correction to E(ZPE) due to population
              of excited vibrational states
    E(rot)  - is the rotational thermal energy
    E(trans)- is the translational thermal energy

Summary of contributions to the inner energy U:
Electronic energy                ...   -540.77148103 Eh
Zero point energy                ...      0.29875196 Eh     187.47 kcal/mol
Thermal vibrational correction   ...      0.01207285 Eh       7.58 kcal/mol
Thermal rotational correction    ...      0.00141627 Eh       0.89 kcal/mol
Thermal translational correction ...      0.00141627 Eh       0.89 kcal/mol
-----------------------------------------------------------------------
Total thermal energy                   -540.45782368 Eh


Summary of corrections to the electronic energy:
(perhaps to be used in another calculation)
Total thermal correction                  0.01490539 Eh       9.35 kcal/mol
Non-thermal (ZPE) correction              0.29875196 Eh     187.47 kcal/mol
-----------------------------------------------------------------------
Total correction                          0.31365735 Eh     196.82 kcal/mol


--------
ENTHALPY
--------

The enthalpy is H = U + kB*T
                kB is Boltzmann's constant
Total free energy                 ...   -540.45782368 Eh 
Thermal Enthalpy correction       ...      0.00094421 Eh       0.59 kcal/mol
-----------------------------------------------------------------------
Total Enthalpy                    ...   -540.45687947 Eh


Note: Rotational entropy computed according to Herzberg 
Infrared and Raman Spectra, Chapter V,1, Van Nostrand Reinhold, 1945 
Point Group:  C2v, Symmetry Number:   2  
Rotational constants in cm-1:     0.036079     0.019181     0.015019 

Vibrational entropy computed according to the QRRHO of S. Grimme
Chem.Eur.J. 2012 18 9955


-------
ENTROPY
-------

The entropy contributions are T*S = T*(S(el)+S(vib)+S(rot)+S(trans))
     S(el)   - electronic entropy
     S(vib)  - vibrational entropy
     S(rot)  - rotational entropy
     S(trans)- translational entropy
The entropies will be listed as multiplied by the temperature to get
units of energy

Electronic entropy                ...      0.00000000 Eh      0.00 kcal/mol
Vibrational entropy               ...      0.02080125 Eh     13.05 kcal/mol
Rotational entropy                ...      0.01427327 Eh      8.96 kcal/mol
Translational entropy             ...      0.01970603 Eh     12.37 kcal/mol
-----------------------------------------------------------------------
Final entropy term                ...      0.05478055 Eh     34.38 kcal/mol

In case the symmetry of your molecule has not been determined correctly
or in case you have a reason to use a different symmetry number we print 
out the resulting rotational entropy values for sn=1,12 :
 --------------------------------------------------------
|  sn= 1 | S(rot)=       0.01492773 Eh      9.37 kcal/mol|
|  sn= 2 | S(rot)=       0.01427327 Eh      8.96 kcal/mol|
|  sn= 3 | S(rot)=       0.01389044 Eh      8.72 kcal/mol|
|  sn= 4 | S(rot)=       0.01361882 Eh      8.55 kcal/mol|
|  sn= 5 | S(rot)=       0.01340813 Eh      8.41 kcal/mol|
|  sn= 6 | S(rot)=       0.01323599 Eh      8.31 kcal/mol|
|  sn= 7 | S(rot)=       0.01309044 Eh      8.21 kcal/mol|
|  sn= 8 | S(rot)=       0.01296436 Eh      8.14 kcal/mol|
|  sn= 9 | S(rot)=       0.01285315 Eh      8.07 kcal/mol|
|  sn=10 | S(rot)=       0.01275367 Eh      8.00 kcal/mol|
|  sn=11 | S(rot)=       0.01266368 Eh      7.95 kcal/mol|
|  sn=12 | S(rot)=       0.01258153 Eh      7.90 kcal/mol|
 --------------------------------------------------------


-------------------
GIBBS FREE ENERGY
-------------------

The Gibbs free energy is G = H - T*S

Total enthalpy                    ...   -540.45687947 Eh 
Total entropy correction          ...     -0.05478055 Eh    -34.38 kcal/mol
-----------------------------------------------------------------------
Final Gibbs free energy         ...   -540.51166002 Eh

For completeness - the Gibbs free energy minus the electronic energy
G-E(el)                           ...      0.25982101 Eh    163.04 kcal/mol


Timings for individual modules:

Sum of individual times         ...     5113.261 sec (=  85.221 min)
GTO integral calculation        ...        5.331 sec (=   0.089 min)   0.1 %
SCF iterations                  ...     1441.103 sec (=  24.018 min)  28.2 %
SCF Gradient evaluation         ...      347.793 sec (=   5.797 min)   6.8 %
Geometry relaxation             ...        0.342 sec (=   0.006 min)   0.0 %
Analytical frequency calculation...     3318.692 sec (=  55.312 min)  64.9 %
                             ****ORCA TERMINATED NORMALLY****
TOTAL RUN TIME: 0 days 1 hours 25 minutes 15 seconds 585 msec
