
                                 *****************
                                 * O   R   C   A *
                                 *****************

                                            #,                                       
                                            ###                                      
                                            ####                                     
                                            #####                                    
                                            ######                                   
                                           ########,                                 
                                     ,,################,,,,,                         
                               ,,#################################,,                 
                          ,,##########################################,,             
                       ,#########################################, ''#####,          
                    ,#############################################,,   '####,        
                  ,##################################################,,,,####,       
                ,###########''''           ''''###############################       
              ,#####''   ,,,,##########,,,,          '''####'''          '####       
            ,##' ,,,,###########################,,,                        '##       
           ' ,,###''''                  '''############,,,                           
         ,,##''                                '''############,,,,        ,,,,,,###''
      ,#''                                            '''#######################'''  
     '                                                          ''''####''''         
             ,#######,   #######,   ,#######,      ##                                
            ,#'     '#,  ##    ##  ,#'     '#,    #''#        ######   ,####,        
            ##       ##  ##   ,#'  ##            #'  '#       #        #'  '#        
            ##       ##  #######   ##           ,######,      #####,   #    #        
            '#,     ,#'  ##    ##  '#,     ,#' ,#      #,         ##   #,  ,#        
             '#######'   ##     ##  '#######'  #'      '#     #####' # '####'        



                  #######################################################
                  #                        -***-                        #
                  #          Department of theory and spectroscopy      #
                  #    Directorship and core code : Frank Neese         #
                  #        Max Planck Institute fuer Kohlenforschung    #
                  #                Kaiser Wilhelm Platz 1               #
                  #                 D-45470 Muelheim/Ruhr               #
                  #                      Germany                        #
                  #                                                     #
                  #                  All rights reserved                #
                  #                        -***-                        #
                  #######################################################


                         Program Version 5.0.4 -  RELEASE  -


 With contributions from (in alphabetic order):
   Daniel Aravena         : Magnetic Suceptibility
   Michael Atanasov       : Ab Initio Ligand Field Theory (pilot matlab implementation)
   Alexander A. Auer      : GIAO ZORA, VPT2 properties, NMR spectrum
   Ute Becker             : Parallelization
   Giovanni Bistoni       : ED, misc. LED, open-shell LED, HFLD
   Martin Brehm           : Molecular dynamics
   Dmytro Bykov           : SCF Hessian
   Vijay G. Chilkuri      : MRCI spin determinant printing, contributions to CSF-ICE
   Dipayan Datta          : RHF DLPNO-CCSD density
   Achintya Kumar Dutta   : EOM-CC, STEOM-CC
   Dmitry Ganyushin       : Spin-Orbit,Spin-Spin,Magnetic field MRCI
   Miquel Garcia          : C-PCM and meta-GGA Hessian, CC/C-PCM, Gaussian charge scheme
   Yang Guo               : DLPNO-NEVPT2, F12-NEVPT2, CIM, IAO-localization
   Andreas Hansen         : Spin unrestricted coupled pair/coupled cluster methods
   Benjamin Helmich-Paris : MC-RPA, TRAH-SCF, COSX integrals
   Lee Huntington         : MR-EOM, pCC
   Robert Izsak           : Overlap fitted RIJCOSX, COSX-SCS-MP3, EOM
   Marcus Kettner         : VPT2
   Christian Kollmar      : KDIIS, OOCD, Brueckner-CCSD(T), CCSD density, CASPT2, CASPT2-K
   Simone Kossmann        : Meta GGA functionals, TD-DFT gradient, OOMP2, MP2 Hessian
   Martin Krupicka        : Initial AUTO-CI
   Lucas Lang             : DCDCAS
   Marvin Lechner         : AUTO-CI (C++ implementation), FIC-MRCC
   Dagmar Lenk            : GEPOL surface, SMD
   Dimitrios Liakos       : Extrapolation schemes; Compound Job, initial MDCI parallelization
   Dimitrios Manganas     : Further ROCIS development; embedding schemes
   Dimitrios Pantazis     : SARC Basis sets
   Anastasios Papadopoulos: AUTO-CI, single reference methods and gradients
   Taras Petrenko         : DFT Hessian,TD-DFT gradient, ASA, ECA, R-Raman, ABS, FL, XAS/XES, NRVS
   Peter Pinski           : DLPNO-MP2, DLPNO-MP2 Gradient
   Christoph Reimann      : Effective Core Potentials
   Marius Retegan         : Local ZFS, SOC
   Christoph Riplinger    : Optimizer, TS searches, QM/MM, DLPNO-CCSD(T), (RO)-DLPNO pert. Triples
   Tobias Risthaus        : Range-separated hybrids, TD-DFT gradient, RPA, STAB
   Michael Roemelt        : Original ROCIS implementation
   Masaaki Saitow         : Open-shell DLPNO-CCSD energy and density
   Barbara Sandhoefer     : DKH picture change effects
   Avijit Sen             : IP-ROCIS
   Kantharuban Sivalingam : CASSCF convergence, NEVPT2, FIC-MRCI
   Bernardo de Souza      : ESD, SOC TD-DFT
   Georgi Stoychev        : AutoAux, RI-MP2 NMR, DLPNO-MP2 response
   Willem Van den Heuvel  : Paramagnetic NMR
   Boris Wezisla          : Elementary symmetry handling
   Frank Wennmohs         : Technical directorship


 We gratefully acknowledge several colleagues who have allowed us to
 interface, adapt or use parts of their codes:
   Stefan Grimme, W. Hujo, H. Kruse, P. Pracht,  : VdW corrections, initial TS optimization,
                  C. Bannwarth, S. Ehlert          DFT functionals, gCP, sTDA/sTD-DF
   Ed Valeev, F. Pavosevic, A. Kumar             : LibInt (2-el integral package), F12 methods
   Garnet Chan, S. Sharma, J. Yang, R. Olivares  : DMRG
   Ulf Ekstrom                                   : XCFun DFT Library
   Mihaly Kallay                                 : mrcc  (arbitrary order and MRCC methods)
   Jiri Pittner, Ondrej Demel                    : Mk-CCSD
   Frank Weinhold                                : gennbo (NPA and NBO analysis)
   Christopher J. Cramer and Donald G. Truhlar   : smd solvation model
   Lars Goerigk                                  : TD-DFT with DH, B97 family of functionals
   V. Asgeirsson, H. Jonsson                     : NEB implementation
   FAccTs GmbH                                   : IRC, NEB, NEB-TS, DLPNO-Multilevel, CI-OPT
                                                   MM, QMMM, 2- and 3-layer-ONIOM, Crystal-QMMM,
                                                   LR-CPCM, SF, NACMEs, symmetry and pop. for TD-DFT,
                                                   nearIR, NL-DFT gradient (VV10), updates on ESD,
                                                   ML-optimized integration grids
   S Lehtola, MJT Oliveira, MAL Marques          : LibXC Library
   Liviu Ungur et al                             : ANISO software


 Your calculation uses the libint2 library for the computation of 2-el integrals
 For citations please refer to: http://libint.valeyev.net

 Your ORCA version has been built with support for libXC version: 5.1.0
 For citations please refer to: https://tddft.org/programs/libxc/

 This ORCA versions uses:
   CBLAS   interface :  Fast vector & matrix operations
   LAPACKE interface :  Fast linear algebra routines
   SCALAPACK package :  Parallel linear algebra routines
   Shared memory     :  Shared parallel matrices
   BLAS/LAPACK       :  OpenBLAS 0.3.15  USE64BITINT DYNAMIC_ARCH NO_AFFINITY SkylakeX SINGLE_THREADED
        Core in use  :  SkylakeX
   Copyright (c) 2011-2014, The OpenBLAS Project




***************************************
The coordinates will be read from file: 8_deprot.xyz
***************************************


Your calculation utilizes the atom-pairwise dispersion correction
based on tight binding partial charges (D4)
Cite in your paper:
E.Caldeweyher, C.Bannwarth, S.Grimme, J.Chem.Phys., (2017), 147, 034112.
E.Caldeweyher, S.Ehlert, A.Hansen, H.Neugebauer, S.Grimme, J.Chem.Phys., (2018), in progress.
   

XCFun DFT library Copyright 2009-2010 Ulf Ekstrom and contributors.
See http://admol.org/xcfun for more information.
This is free software; see the source code for copying conditions.
There is ABSOLUTELY NO WARRANTY; not even for MERCHANTABILITY or FITNESS FOR A PARTICULAR PURPOSE.
For details see the documentation.
Scientific users of this library should cite U. Ekstrom, L. Visscher, R. Bast, A. J. Thorvaldsen and K. Ruud;
J.Chem.Theor.Comp. 2010, DOI: 10.1021/ct100117s
XCFun Version 0.99 

================================================================================

----- Orbital basis set information -----
Your calculation utilizes the basis: def2-TZVP
   F. Weigend and R. Ahlrichs, Phys. Chem. Chem. Phys. 7, 3297 (2005).

----- AuxJ basis set information -----
Your calculation utilizes the auxiliary basis: def2/J
   F. Weigend, Phys. Chem. Chem. Phys. 8, 1057 (2006).

================================================================================
                                        WARNINGS
                       Please study these warnings very carefully!
================================================================================


WARNING: Geometry Optimization
  ===> : Switching off AutoStart
         For restart on a previous wavefunction, please use MOREAD

INFO   : the flag for use of the SHARK integral package has been found!

================================================================================
                                       INPUT FILE
================================================================================
NAME = 8_deprot.inp
|  1> # ORCA 5.0.4 - /users/bwb16179/postgrad/2024_06/pKa_Reviewer_Comments/Aq_Z=0/8_deprot.inp # write input file
|  2> # Basic Mode
|  3> #
|  4> ! Opt Freq wB97X Def2-TZVP D4 SlowConv TightSCF Defgrid2 Def2/J RIJCOSX CPCM(Water)
|  5> 
|  6> %PAL NPROCS 4 END
|  7> 
|  8> %maxcore 4500
|  9> 
| 10> %geom
| 11> Maxiter 150
| 12> END
| 13> 
| 14> * xyzfile 0 1 8_deprot.xyz
| 15> 
| 16>                          ****END OF INPUT****
================================================================================

                       *****************************
                       * Geometry Optimization Run *
                       *****************************

Geometry optimization settings:
Update method            Update   .... BFGS
Choice of coordinates    CoordSys .... Z-matrix Internals
Initial Hessian          InHess   .... Almoef's Model

Convergence Tolerances:
Energy Change            TolE     ....  5.0000e-06 Eh
Max. Gradient            TolMAXG  ....  3.0000e-04 Eh/bohr
RMS Gradient             TolRMSG  ....  1.0000e-04 Eh/bohr
Max. Displacement        TolMAXD  ....  4.0000e-03 bohr
RMS Displacement         TolRMSD  ....  2.0000e-03 bohr
Strict Convergence                ....  False
------------------------------------------------------------------------------
                        ORCA OPTIMIZATION COORDINATE SETUP
------------------------------------------------------------------------------

The optimization will be done in new redundant internal coordinates
Making redundant internal coordinates   ...  (new redundants) done
Evaluating the initial hessian          ...  (Almloef) done
Evaluating the coordinates              ...  done
Calculating the B-matrix                .... done
Calculating the G-matrix                .... done
Diagonalizing the G-matrix              .... done
Small eigenvalue found = 3.389e-03
Small eigenvalue found = 6.436e-03
Small eigenvalue found = 8.197e-03
Small eigenvalue found = 1.323e-02
Small eigenvalue found = 1.756e-02
The first mode is                       ....   95
The number of degrees of freedom        ....  117

    -----------------------------------------------------------------
                    Redundant Internal Coordinates


    -----------------------------------------------------------------
         Definition                    Initial Value    Approx d2E/dq
    -----------------------------------------------------------------
      1. B(N   1,C   0)                  1.3606         0.623333   
      2. B(C   2,N   1)                  1.3906         0.558426   
      3. B(C   3,C   2)                  1.3534         0.714697   
      4. B(N   4,C   3)                  1.3904         0.558710   
      5. B(N   4,C   0)                  1.3605         0.623582   
      6. B(C   5,N   1)                  1.4327         0.478286   
      7. B(C   6,C   5)                  1.4027         0.596414   
      8. B(C   7,C   6)                  1.3986         0.605346   
      9. B(C   8,C   7)                  1.3932         0.617403   
     10. B(C   9,C   8)                  1.3933         0.617189   
     11. B(C  10,C   9)                  1.3987         0.605101   
     12. B(C  10,C   5)                  1.4026         0.596629   
     13. B(C  11,C   6)                  1.5059         0.408201   
     14. B(H  12,C  11)                  1.1019         0.344644   
     15. B(H  13,C  11)                  1.1013         0.345407   
     16. B(H  14,C  11)                  1.0988         0.348673   
     17. B(C  15,C  10)                  1.5061         0.407889   
     18. B(H  16,C  15)                  1.1016         0.345088   
     19. B(H  17,C  15)                  1.0986         0.348903   
     20. B(H  18,C  15)                  1.1018         0.344879   
     21. B(C  19,N   4)                  1.4329         0.477983   
     22. B(C  20,C  19)                  1.4025         0.596734   
     23. B(C  21,C  20)                  1.3985         0.605563   
     24. B(C  22,C  21)                  1.3934         0.617124   
     25. B(C  23,C  22)                  1.3935         0.616813   
     26. B(C  24,C  23)                  1.3988         0.605014   
     27. B(C  24,C  19)                  1.4024         0.597013   
     28. B(C  25,C  20)                  1.5058         0.408290   
     29. B(H  26,C  25)                  1.0987         0.348758   
     30. B(H  27,C  25)                  1.1016         0.345082   
     31. B(H  28,C  25)                  1.1017         0.344948   
     32. B(C  29,C  24)                  1.5061         0.407902   
     33. B(H  30,C  29)                  1.1015         0.345249   
     34. B(H  31,C  29)                  1.0986         0.348859   
     35. B(H  32,C  29)                  1.1019         0.344718   
     36. B(H  33,C   7)                  1.0943         0.354440   
     37. B(H  34,C   8)                  1.0938         0.355048   
     38. B(H  35,C   9)                  1.0943         0.354456   
     39. B(H  36,C  22)                  1.0939         0.354990   
     40. B(H  37,C  23)                  1.0943         0.354452   
     41. B(H  38,C  21)                  1.0943         0.354466   
     42. B(H  39,C   2)                  1.0889         0.361618   
     43. B(H  40,C   3)                  1.0888         0.361642   
     44. A(N   1,C   0,N   4)          102.2308         0.429266   
     45. A(C   2,N   1,C   5)          123.6688         0.401561   
     46. A(C   0,N   1,C   2)          112.9189         0.420872   
     47. A(C   0,N   1,C   5)          123.4068         0.409437   
     48. A(C   3,C   2,H  39)          131.4576         0.361797   
     49. A(N   1,C   2,C   3)          105.9592         0.434147   
     50. A(N   1,C   2,H  39)          122.5832         0.344857   
     51. A(N   4,C   3,H  40)          122.5439         0.344891   
     52. A(C   2,C   3,H  40)          131.4909         0.361801   
     53. A(C   2,C   3,N   4)          105.9651         0.434187   
     54. A(C   0,N   4,C  19)          123.4533         0.409420   
     55. A(C   0,N   4,C   3)          112.9260         0.420940   
     56. A(C   3,N   4,C  19)          123.6187         0.401552   
     57. A(C   6,C   5,C  10)          122.4768         0.428088   
     58. A(N   1,C   5,C   6)          118.6467         0.408884   
     59. A(N   1,C   5,C  10)          118.8763         0.408910   
     60. A(C   7,C   6,C  11)          121.3233         0.401224   
     61. A(C   5,C   6,C   7)          117.8871         0.429203   
     62. A(C   5,C   6,C  11)          120.7866         0.400175   
     63. A(C   6,C   7,H  33)          119.1538         0.350545   
     64. A(C   6,C   7,C   8)          120.7421         0.431877   
     65. A(C   8,C   7,H  33)          120.1039         0.351715   
     66. A(C   9,C   8,H  34)          119.8585         0.351796   
     67. A(C   7,C   8,H  34)          119.8717         0.351817   
     68. A(C   7,C   8,C   9)          120.2698         0.433384   
     69. A(C   8,C   9,C  10)          120.7336         0.431819   
     70. A(C  10,C   9,H  35)          119.1812         0.350523   
     71. A(C   8,C   9,H  35)          120.0851         0.351697   
     72. A(C   5,C  10,C   9)          117.8903         0.429200   
     73. A(C   9,C  10,C  15)          121.3431         0.401142   
     74. A(C   5,C  10,C  15)          120.7661         0.400147   
     75. A(H  13,C  11,H  14)          108.5057         0.287491   
     76. A(H  12,C  11,H  14)          108.2935         0.287392   
     77. A(C   6,C  11,H  14)          110.8627         0.327342   
     78. A(H  12,C  11,H  13)          106.8281         0.286970   
     79. A(C   6,C  11,H  13)          111.4348         0.326834   
     80. A(C   6,C  11,H  12)          110.7675         0.326715   
     81. A(H  17,C  15,H  18)          108.1062         0.287452   
     82. A(H  16,C  15,H  18)          106.9528         0.286959   
     83. A(C  10,C  15,H  18)          111.2565         0.326711   
     84. A(H  16,C  15,H  17)          108.5914         0.287479   
     85. A(C  10,C  15,H  17)          110.7874         0.327336   
     86. A(C  10,C  15,H  16)          111.0031         0.326744   
     87. A(N   4,C  19,C  20)          118.6765         0.408877   
     88. A(C  20,C  19,C  24)          122.5268         0.428179   
     89. A(N   4,C  19,C  24)          118.7965         0.408911   
     90. A(C  21,C  20,C  25)          121.4309         0.401265   
     91. A(C  19,C  20,C  25)          120.6877         0.400229   
     92. A(C  19,C  20,C  21)          117.8781         0.429272   
     93. A(C  20,C  21,C  22)          120.7091         0.431870   
     94. A(C  22,C  21,H  38)          120.1157         0.351692   
     95. A(C  20,C  21,H  38)          119.1752         0.350570   
     96. A(C  21,C  22,C  23)          120.3104         0.433301   
     97. A(C  23,C  22,H  36)          119.8607         0.351750   
     98. A(C  21,C  22,H  36)          119.8289         0.351780   
     99. A(C  22,C  23,C  24)          120.7084         0.431760   
    100. A(C  24,C  23,H  37)          119.1991         0.350514   
    101. A(C  22,C  23,H  37)          120.0925         0.351660   
    102. A(C  23,C  24,C  29)          121.4544         0.401134   
    103. A(C  19,C  24,C  29)          120.6757         0.400195   
    104. A(C  19,C  24,C  23)          117.8670         0.429238   
    105. A(H  27,C  25,H  28)          106.8629         0.286967   
    106. A(H  26,C  25,H  28)          108.4005         0.287442   
    107. A(C  20,C  25,H  28)          110.8399         0.326775   
    108. A(H  26,C  25,H  27)          108.3443         0.287460   
    109. A(C  20,C  25,H  27)          111.3700         0.326796   
    110. A(C  20,C  25,H  26)          110.8754         0.327367   
    111. A(H  31,C  29,H  32)          108.4166         0.287425   
    112. A(H  30,C  29,H  32)          106.8762         0.286959   
    113. A(C  24,C  29,H  32)          110.7799         0.326688   
    114. A(H  30,C  29,H  31)          108.4096         0.287495   
    115. A(C  24,C  29,H  31)          110.8580         0.327331   
    116. A(C  24,C  29,H  30)          111.3570         0.326770   
    117. D(C   2,N   1,C   0,N   4)      0.0140         0.028529   
    118. D(C   5,N   1,C   0,N   4)    179.1829         0.028529   
    119. D(H  39,C   2,N   1,C   0)   -179.9387         0.024896   
    120. D(C   3,C   2,N   1,C   0)      0.0263         0.024896   
    121. D(C   3,C   2,N   1,C   5)   -179.1401         0.024896   
    122. D(H  39,C   2,N   1,C   5)      0.8949         0.024896   
    123. D(N   4,C   3,C   2,N   1)     -0.0540         0.036104   
    124. D(H  40,C   3,C   2,H  39)     -0.0122         0.036104   
    125. D(H  40,C   3,C   2,N   1)   -179.9729         0.036104   
    126. D(N   4,C   3,C   2,H  39)    179.9067         0.036104   
    127. D(C  19,N   4,C   0,N   1)   -179.5494         0.028553   
    128. D(C   0,N   4,C   3,C   2)      0.0681         0.024923   
    129. D(C   0,N   4,C   3,H  40)    179.9960         0.024923   
    130. D(C  19,N   4,C   3,C   2)    179.5665         0.024923   
    131. D(C   3,N   4,C   0,N   1)     -0.0500         0.028553   
    132. D(C  19,N   4,C   3,H  40)     -0.5056         0.024923   
    133. D(C  10,C   5,N   1,C   2)    -85.5709         0.018043   
    134. D(C  10,C   5,N   1,C   0)     95.3489         0.018043   
    135. D(C   6,C   5,N   1,C   2)     94.2859         0.018043   
    136. D(C   6,C   5,N   1,C   0)    -84.7943         0.018043   
    137. D(C  11,C   6,C   5,C  10)   -179.3541         0.024506   
    138. D(C  11,C   6,C   5,N   1)      0.7945         0.024506   
    139. D(C   7,C   6,C   5,C  10)      0.0291         0.024506   
    140. D(C   7,C   6,C   5,N   1)   -179.8223         0.024506   
    141. D(H  33,C   7,C   6,C  11)     -0.7802         0.025286   
    142. D(H  33,C   7,C   6,C   5)    179.8402         0.025286   
    143. D(C   8,C   7,C   6,C  11)    179.3522         0.025286   
    144. D(C   8,C   7,C   6,C   5)     -0.0274         0.025286   
    145. D(H  34,C   8,C   7,C   6)    179.9531         0.026364   
    146. D(C   9,C   8,C   7,H  33)   -179.9311         0.026364   
    147. D(C   9,C   8,C   7,C   6)     -0.0647         0.026364   
    148. D(H  34,C   8,C   7,H  33)      0.0867         0.026364   
    149. D(H  35,C   9,C   8,H  34)      0.2149         0.026344   
    150. D(H  35,C   9,C   8,C   7)   -179.7672         0.026344   
    151. D(C  10,C   9,C   8,H  34)   -179.8597         0.026344   
    152. D(C  10,C   9,C   8,C   7)      0.1582         0.026344   
    153. D(C  15,C  10,C   9,H  35)      0.0484         0.025265   
    154. D(C   5,C  10,C   9,H  35)    179.7726         0.025265   
    155. D(C   5,C  10,C   9,C   8)     -0.1534         0.025265   
    156. D(C  15,C  10,C   5,C   6)    179.7861         0.024525   
    157. D(C  15,C  10,C   5,N   1)     -0.3628         0.024525   
    158. D(C  15,C  10,C   9,C   8)   -179.8777         0.025265   
    159. D(C   9,C  10,C   5,C   6)      0.0602         0.024525   
    160. D(C   9,C  10,C   5,N   1)    179.9113         0.024525   
    161. D(H  14,C  11,C   6,C   7)      7.6162         0.012345   
    162. D(H  14,C  11,C   6,C   5)   -173.0220         0.012345   
    163. D(H  13,C  11,C   6,C   7)    128.5825         0.012345   
    164. D(H  13,C  11,C   6,C   5)    -52.0558         0.012345   
    165. D(H  12,C  11,C   6,C   7)   -112.6339         0.012345   
    166. D(H  12,C  11,C   6,C   5)     66.7278         0.012345   
    167. D(H  18,C  15,C  10,C   9)   -116.5905         0.012327   
    168. D(H  18,C  15,C  10,C   5)     63.6931         0.012327   
    169. D(H  17,C  15,C  10,C   9)      3.6982         0.012327   
    170. D(H  17,C  15,C  10,C   5)   -176.0181         0.012327   
    171. D(H  16,C  15,C  10,C   9)    124.4306         0.012327   
    172. D(H  16,C  15,C  10,C   5)    -55.2858         0.012327   
    173. D(C  24,C  19,N   4,C   3)     90.9073         0.018020   
    174. D(C  24,C  19,N   4,C   0)    -89.6464         0.018020   
    175. D(C  20,C  19,N   4,C   3)    -88.9636         0.018020   
    176. D(C  20,C  19,N   4,C   0)     90.4827         0.018020   
    177. D(C  25,C  20,C  19,N   4)     -0.8874         0.024534   
    178. D(C  21,C  20,C  19,C  24)     -0.1074         0.024534   
    179. D(C  21,C  20,C  19,N   4)    179.7584         0.024534   
    180. D(C  25,C  20,C  19,C  24)    179.2468         0.024534   
    181. D(H  38,C  21,C  20,C  25)      0.5672         0.025306   
    182. D(H  38,C  21,C  20,C  19)    179.9163         0.025306   
    183. D(C  22,C  21,C  20,C  25)   -179.3630         0.025306   
    184. D(C  22,C  21,C  20,C  19)     -0.0139         0.025306   
    185. D(H  36,C  22,C  21,H  38)      0.1525         0.026338   
    186. D(H  36,C  22,C  21,C  20)   -179.9180         0.026338   
    187. D(C  23,C  22,C  21,H  38)   -179.7907         0.026338   
    188. D(C  23,C  22,C  21,C  20)      0.1388         0.026338   
    189. D(H  37,C  23,C  22,H  36)     -0.1415         0.026310   
    190. D(H  37,C  23,C  22,C  21)    179.8017         0.026310   
    191. D(C  24,C  23,C  22,H  36)    179.9107         0.026310   
    192. D(C  24,C  23,C  22,C  21)     -0.1461         0.026310   
    193. D(C  29,C  24,C  23,H  37)     -0.5266         0.025257   
    194. D(C  29,C  24,C  23,C  22)    179.4216         0.025257   
    195. D(C  19,C  24,C  23,H  37)   -179.9202         0.025257   
    196. D(C  19,C  24,C  23,C  22)      0.0280         0.025257   
    197. D(C  29,C  24,C  19,C  20)   -179.2981         0.024558   
    198. D(C  29,C  24,C  19,N   4)      0.8362         0.024558   
    199. D(C  23,C  24,C  19,C  20)      0.1004         0.024558   
    200. D(C  23,C  24,C  19,N   4)   -179.7653         0.024558   
    201. D(H  28,C  25,C  20,C  21)    118.8570         0.012350   
    202. D(H  28,C  25,C  20,C  19)    -60.4740         0.012350   
    203. D(H  27,C  25,C  20,C  21)   -122.3103         0.012350   
    204. D(H  27,C  25,C  20,C  19)     58.3587         0.012350   
    205. D(H  26,C  25,C  20,C  21)     -1.5843         0.012350   
    206. D(H  26,C  25,C  20,C  19)    179.0847         0.012350   
    207. D(H  32,C  29,C  24,C  23)   -116.3509         0.012328   
    208. D(H  32,C  29,C  24,C  19)     63.0258         0.012328   
    209. D(H  31,C  29,C  24,C  23)      4.0592         0.012328   
    210. D(H  31,C  29,C  24,C  19)   -176.5641         0.012328   
    211. D(H  30,C  29,C  24,C  23)    124.8474         0.012328   
    212. D(H  30,C  29,C  24,C  19)    -55.7759         0.012328   
    -----------------------------------------------------------------

Number of atoms                         .... 41
Number of degrees of freedom            .... 212

         *************************************************************
         *                GEOMETRY OPTIMIZATION CYCLE   1            *
         *************************************************************
---------------------------------
CARTESIAN COORDINATES (ANGSTROEM)
---------------------------------
  C      0.155461   -1.279549    0.197133
  N     -0.920764   -0.453210    0.298326
  C     -0.565633    0.877487    0.490192
  C      0.787376    0.902154    0.511786
  N      1.196783   -0.414608    0.333393
  C     -2.276006   -0.907138    0.198271
  C     -2.848250   -1.040354   -1.075398
  C     -4.173275   -1.481003   -1.154414
  C     -4.895435   -1.776908   -0.000272
  C     -4.303567   -1.638245    1.253461
  C     -2.981357   -1.198477    1.375033
  C     -2.051005   -0.730655   -2.314807
  H     -1.230534   -1.455036   -2.442773
  H     -1.589034    0.267453   -2.257248
  H     -2.687750   -0.769168   -3.209450
  C     -2.327185   -1.046290    2.723058
  H     -1.395161   -1.630950    2.777894
  H     -2.999978   -1.383828    3.523268
  H     -2.059669    0.004019    2.920930
  C      2.570704   -0.818782    0.286263
  C      3.229777   -0.820041   -0.951741
  C      4.571835   -1.212520   -0.977702
  C      5.226014   -1.588566    0.193665
  C      4.548123   -1.581301    1.411144
  C      3.205458   -1.195043    1.478819
  C      2.502972   -0.424088   -2.209693
  H      3.173374   -0.466782   -3.079121
  H      2.097477    0.597390   -2.134392
  H      1.648578   -1.094163   -2.396128
  C      2.453004   -1.193239    2.783448
  H      2.008185   -0.206692    2.988596
  H      3.117291   -1.454742    3.618513
  H      1.624092   -1.918764    2.757657
  H     -4.641168   -1.589792   -2.137654
  H     -5.931200   -2.119770   -0.078603
  H     -4.872351   -1.875144    2.157815
  H      6.276406   -1.891758    0.156948
  H      5.064461   -1.880423    2.328434
  H      5.106280   -1.222678   -1.932554
  H     -1.302862    1.672223    0.592629
  H      1.491984    1.722772    0.637002

----------------------------
CARTESIAN COORDINATES (A.U.)
----------------------------
  NO LB      ZA    FRAG     MASS         X           Y           Z
   0 C     6.0000    0    12.011    0.293779   -2.417997    0.372527
   1 N     7.0000    0    14.007   -1.739992   -0.856443    0.563754
   2 C     6.0000    0    12.011   -1.068891    1.658210    0.926329
   3 C     6.0000    0    12.011    1.487925    1.704824    0.967135
   4 N     7.0000    0    14.007    2.261592   -0.783496    0.630021
   5 C     6.0000    0    12.011   -4.301028   -1.714242    0.374678
   6 C     6.0000    0    12.011   -5.382412   -1.965984   -2.032208
   7 C     6.0000    0    12.011   -7.886347   -2.798690   -2.181526
   8 C     6.0000    0    12.011   -9.251031   -3.357869   -0.000514
   9 C     6.0000    0    12.011   -8.132563   -3.095834    2.368698
  10 C     6.0000    0    12.011   -5.633948   -2.264793    2.598436
  11 C     6.0000    0    12.011   -3.875838   -1.380738   -4.374351
  12 H     1.0000    0     1.008   -2.325372   -2.749620   -4.616172
  13 H     1.0000    0     1.008   -3.002839    0.505413   -4.265581
  14 H     1.0000    0     1.008   -5.079111   -1.453517   -6.064982
  15 C     6.0000    0    12.011   -4.397742   -1.977202    5.145834
  16 H     1.0000    0     1.008   -2.636472   -3.082049    5.249459
  17 H     1.0000    0     1.008   -5.669137   -2.615056    6.658012
  18 H     1.0000    0     1.008   -3.892210    0.007595    5.519758
  19 C     6.0000    0    12.011    4.857927   -1.547274    0.540959
  20 C     6.0000    0    12.011    6.103394   -1.549653   -1.798530
  21 C     6.0000    0    12.011    8.639516   -2.291331   -1.847589
  22 C     6.0000    0    12.011    9.875735   -3.001955    0.365974
  23 C     6.0000    0    12.011    8.594707   -2.988226    2.666676
  24 C     6.0000    0    12.011    6.057438   -2.258304    2.794563
  25 C     6.0000    0    12.011    4.729932   -0.801410   -4.175715
  26 H     1.0000    0     1.008    5.996808   -0.882090   -5.818695
  27 H     1.0000    0     1.008    3.963657    1.128903   -4.033416
  28 H     1.0000    0     1.008    3.115361   -2.067668   -4.528026
  29 C     6.0000    0    12.011    4.635506   -2.254895    5.259954
  30 H     1.0000    0     1.008    3.794920   -0.390591    5.647628
  31 H     1.0000    0     1.008    5.890826   -2.749064    6.837999
  32 H     1.0000    0     1.008    3.069089   -3.625938    5.211217
  33 H     1.0000    0     1.008   -8.770536   -3.004271   -4.039581
  34 H     1.0000    0     1.008  -11.208344   -4.005785   -0.148538
  35 H     1.0000    0     1.008   -9.207409   -3.543509    4.077679
  36 H     1.0000    0     1.008   11.860688   -3.574905    0.296589
  37 H     1.0000    0     1.008    9.570444   -3.553484    4.400103
  38 H     1.0000    0     1.008    9.649471   -2.310527   -3.651998
  39 H     1.0000    0     1.008   -2.462052    3.160044    1.119907
  40 H     1.0000    0     1.008    2.819441    3.255567    1.203759

--------------------------------
INTERNAL COORDINATES (ANGSTROEM)
--------------------------------
 C      0   0   0     0.000000000000     0.00000000     0.00000000
 N      1   0   0     1.360638238767     0.00000000     0.00000000
 C      2   1   0     1.390570061135   112.91888734     0.00000000
 C      3   2   1     1.353406116362   105.95920359     0.02627285
 N      1   2   3     1.360529760338   102.23076939     0.00000000
 C      2   1   3     1.432739512533   123.40678711   179.16888322
 C      6   2   1     1.402655488619   118.64671424   275.20572456
 C      7   6   2     1.398608708711   117.88712705   180.17766188
 C      8   7   6     1.393240320544   120.74212785   359.97257182
 C      9   8   7     1.393334702174   120.26982466   359.93527015
 C     10   9   8     1.398719031510   120.73362809     0.15815261
 C      7   6   2     1.505871086749   120.78657819     0.79454769
 H     12   7   6     1.101941827937   110.76751202    66.72784063
 H     12   7   6     1.101340012433   111.43482974   307.94420719
 H     12   7   6     1.098778204936   110.86272112   186.97796239
 C     11  10   9     1.506078779207   121.34306829   180.12232672
 H     16  11  10     1.101591139703   111.00312452   124.43057290
 H     16  11  10     1.098598364459   110.78742453     3.69821803
 H     16  11  10     1.101756386013   111.25653000   243.40948096
 C      5   1   2     1.432911990813   123.45326819   180.45064939
 C     20   5   1     1.402509432562   118.67654258    90.48266627
 C     21  20   5     1.398511142010   117.87814997   179.75842376
 C     22  21  20     1.393363343441   120.70906528     0.00000000
 C     23  22  21     1.393500665069   120.31036480     0.13880888
 C     24  23  22     1.398758181536   120.70835553   359.85388973
 C     21  20   5     1.505811249971   120.68771359   359.11262403
 H     26  21  20     1.098711366294   110.87540492   179.08472371
 H     26  21  20     1.101595996775   111.37002793    58.35872105
 H     26  21  20     1.101702147627   110.83987874   299.52598076
 C     25  24  23     1.506070086076   121.45443454   179.42161030
 H     30  25  24     1.101464764699   111.35696172   124.84736123
 H     30  25  24     1.098633055940   110.85803176     4.05918731
 H     30  25  24     1.101883299197   110.77994049   243.64907960
 H      8   7   6     1.094312479857   119.15381721   179.84021744
 H      9   8   7     1.093846073189   119.87168357   179.95310044
 H     10   9   8     1.094300019269   120.08513434   180.23276935
 H     23  22  21     1.093890707803   119.82894532   180.08200854
 H     24  23  22     1.094303360695   120.09250152   179.80167399
 H     22  21  20     1.094292915491   119.17516288   179.91631593
 H      3   2   1     1.088855016568   122.58318208   180.06126851
 H      4   3   2     1.088836710551   131.49090583   180.02713670

---------------------------
INTERNAL COORDINATES (A.U.)
---------------------------
 C      0   0   0     0.000000000000     0.00000000     0.00000000
 N      1   0   0     2.571233638611     0.00000000     0.00000000
 C      2   1   0     2.627796585576   112.91888734     0.00000000
 C      3   2   1     2.557566907898   105.95920359     0.02627285
 N      1   2   3     2.571028644088   102.23076939     0.00000000
 C      2   1   3     2.707485299935   123.40678711   179.16888322
 C      6   2   1     2.650634733731   118.64671424   275.20572456
 C      7   6   2     2.642987427981   117.88712705   180.17766188
 C      8   7   6     2.632842644564   120.74212785   359.97257182
 C      9   8   7     2.633020999997   120.26982466   359.93527015
 C     10   9   8     2.643195907857   120.73362809     0.15815261
 C      7   6   2     2.845683946946   120.78657819     0.79454769
 H     12   7   6     2.082368270314   110.76751202    66.72784063
 H     12   7   6     2.081231003828   111.43482974   307.94420719
 H     12   7   6     2.076389889251   110.86272112   186.97796239
 C     11  10   9     2.846076428812   121.34306829   180.12232672
 H     16  11  10     2.081705565593   111.00312452   124.43057290
 H     16  11  10     2.076050040002   110.78742453     3.69821803
 H     16  11  10     2.082017835864   111.25653000   243.40948096
 C      5   1   2     2.707811236649   123.45326819   180.45064939
 C     20   5   1     2.650358727784   118.67654258    90.48266627
 C     21  20   5     2.642803053636   117.87814997   179.75842376
 C     22  21  20     2.633075124149   120.70906528     0.00000000
 C     23  22  21     2.633334624417   120.31036480     0.13880888
 C     24  23  22     2.643269890685   120.70835553   359.85388973
 C     21  20   5     2.845570871822   120.68771359   359.11262403
 H     26  21  20     2.076263582522   110.87540492   179.08472371
 H     26  21  20     2.081714744128   111.37002793    58.35872105
 H     26  21  20     2.081915340168   110.83987874   299.52598076
 C     25  24  23     2.846060001175   121.45443454   179.42161030
 H     30  25  24     2.081466751446   111.35696172   124.84736123
 H     30  25  24     2.076115597399   110.85803176     4.05918731
 H     30  25  24     2.082257667025   110.77994049   243.64907960
 H      8   7   6     2.067950891861   119.15381721   179.84021744
 H      9   8   7     2.067069510992   119.87168357   179.95310044
 H     10   9   8     2.067927344764   120.08513434   180.23276935
 H     23  22  21     2.067153858188   119.82894532   180.08200854
 H     24  23  22     2.067933659143   120.09250152   179.80167399
 H     22  21  20     2.067913920568   119.17516288   179.91631593
 H      3   2   1     2.057637780860   122.58318208   180.06126851
 H      4   3   2     2.057603187501   131.49090583   180.02713670

---------------------
BASIS SET INFORMATION
---------------------
There are 3 groups of distinct atoms

 Group   1 Type C   : 11s6p2d1f contracted to 5s3p2d1f pattern {62111/411/11/1}
 Group   2 Type N   : 11s6p2d1f contracted to 5s3p2d1f pattern {62111/411/11/1}
 Group   3 Type H   : 5s1p contracted to 3s1p pattern {311/1}

Atom   0C    basis set group =>   1
Atom   1N    basis set group =>   2
Atom   2C    basis set group =>   1
Atom   3C    basis set group =>   1
Atom   4N    basis set group =>   2
Atom   5C    basis set group =>   1
Atom   6C    basis set group =>   1
Atom   7C    basis set group =>   1
Atom   8C    basis set group =>   1
Atom   9C    basis set group =>   1
Atom  10C    basis set group =>   1
Atom  11C    basis set group =>   1
Atom  12H    basis set group =>   3
Atom  13H    basis set group =>   3
Atom  14H    basis set group =>   3
Atom  15C    basis set group =>   1
Atom  16H    basis set group =>   3
Atom  17H    basis set group =>   3
Atom  18H    basis set group =>   3
Atom  19C    basis set group =>   1
Atom  20C    basis set group =>   1
Atom  21C    basis set group =>   1
Atom  22C    basis set group =>   1
Atom  23C    basis set group =>   1
Atom  24C    basis set group =>   1
Atom  25C    basis set group =>   1
Atom  26H    basis set group =>   3
Atom  27H    basis set group =>   3
Atom  28H    basis set group =>   3
Atom  29C    basis set group =>   1
Atom  30H    basis set group =>   3
Atom  31H    basis set group =>   3
Atom  32H    basis set group =>   3
Atom  33H    basis set group =>   3
Atom  34H    basis set group =>   3
Atom  35H    basis set group =>   3
Atom  36H    basis set group =>   3
Atom  37H    basis set group =>   3
Atom  38H    basis set group =>   3
Atom  39H    basis set group =>   3
Atom  40H    basis set group =>   3
---------------------------------
AUXILIARY/J BASIS SET INFORMATION
---------------------------------
There are 3 groups of distinct atoms

 Group   1 Type C   : 12s5p4d2f1g contracted to 6s4p3d1f1g pattern {711111/2111/211/2/1}
 Group   2 Type N   : 12s5p4d2f1g contracted to 6s4p3d1f1g pattern {711111/2111/211/2/1}
 Group   3 Type H   : 5s2p1d contracted to 3s1p1d pattern {311/2/1}

Atom   0C    basis set group =>   1
Atom   1N    basis set group =>   2
Atom   2C    basis set group =>   1
Atom   3C    basis set group =>   1
Atom   4N    basis set group =>   2
Atom   5C    basis set group =>   1
Atom   6C    basis set group =>   1
Atom   7C    basis set group =>   1
Atom   8C    basis set group =>   1
Atom   9C    basis set group =>   1
Atom  10C    basis set group =>   1
Atom  11C    basis set group =>   1
Atom  12H    basis set group =>   3
Atom  13H    basis set group =>   3
Atom  14H    basis set group =>   3
Atom  15C    basis set group =>   1
Atom  16H    basis set group =>   3
Atom  17H    basis set group =>   3
Atom  18H    basis set group =>   3
Atom  19C    basis set group =>   1
Atom  20C    basis set group =>   1
Atom  21C    basis set group =>   1
Atom  22C    basis set group =>   1
Atom  23C    basis set group =>   1
Atom  24C    basis set group =>   1
Atom  25C    basis set group =>   1
Atom  26H    basis set group =>   3
Atom  27H    basis set group =>   3
Atom  28H    basis set group =>   3
Atom  29C    basis set group =>   1
Atom  30H    basis set group =>   3
Atom  31H    basis set group =>   3
Atom  32H    basis set group =>   3
Atom  33H    basis set group =>   3
Atom  34H    basis set group =>   3
Atom  35H    basis set group =>   3
Atom  36H    basis set group =>   3
Atom  37H    basis set group =>   3
Atom  38H    basis set group =>   3
Atom  39H    basis set group =>   3
Atom  40H    basis set group =>   3


           ************************************************************
           *        Program running with 4 parallel MPI-processes     *
           *              working on a common directory               *
           ************************************************************
------------------------------------------------------------------------------
                           ORCA GTO INTEGRAL CALCULATION
                           -- RI-GTO INTEGRALS CHOSEN --
------------------------------------------------------------------------------
------------------------------------------------------------------------------
                   ___                                                        
                  /   \      - P O W E R E D   B Y -                         
                 /     \                                                     
                 |  |  |   _    _      __       _____    __    __             
                 |  |  |  | |  | |    /  \     |  _  \  |  |  /  |          
                  \  \/   | |  | |   /    \    | | | |  |  | /  /          
                 / \  \   | |__| |  /  /\  \   | |_| |  |  |/  /          
                |  |  |   |  __  | /  /__\  \  |    /   |      \           
                |  |  |   | |  | | |   __   |  |    \   |  |\   \          
                \     /   | |  | | |  |  |  |  | |\  \  |  | \   \       
                 \___/    |_|  |_| |__|  |__|  |_| \__\ |__|  \__/        
                                                                              
                      - O R C A' S   B I G   F R I E N D -                    
                                      &                                       
                       - I N T E G R A L  F E E D E R -                       
                                                                              
 v1 FN, 2020, v2 2021                                                         
------------------------------------------------------------------------------


Reading SHARK input file 8_deprot.SHARKINP.tmp ... ok
----------------------
SHARK INTEGRAL PACKAGE
----------------------

Number of atoms                             ...     41
Number of basis functions                   ...    771
Number of shells                            ...    311
Maximum angular momentum                    ...      3
Integral batch strategy                     ... SHARK/LIBINT Hybrid
RI-J (if used) integral strategy            ... SPLIT-RIJ (Revised 2003 algorithm where possible)
Printlevel                                  ...      1
Contraction scheme used                     ... SEGMENTED contraction
Coulomb Range Separation                    ... NOT USED
Exchange Range Separation                   ... Long Range
   Mu parameter                             ...  0.300000
   Scaling (regular/separated)              ...  0.157706  0.842294
Finite Nucleus Model                        ... NOT USED
Auxiliary Coulomb fitting basis             ... AVAILABLE
   # of basis functions in Aux-J            ...   1249
   # of shells in Aux-J                     ...    415
   Maximum angular momentum in Aux-J        ...      4
Auxiliary J/K fitting basis                 ... NOT available
Auxiliary Correlation fitting basis         ... NOT available
Auxiliary 'external' fitting basis          ... NOT available
Integral threshold                          ...     2.500000e-11
Primitive cut-off                           ...     2.500000e-12
Primitive pair pre-selection threshold      ...     2.500000e-12

Calculating pre-screening integrals         ... done (  0.1 sec) Dimension = 311
Organizing shell pair data                  ... done (  0.3 sec)
Shell pair information
Total number of shell pairs                 ...     48516
Shell pairs after pre-screening             ...     35184
Total number of primitive shell pairs       ...    146592
Primitive shell pairs kept                  ...     71501
          la=0 lb=0:   9603 shell pairs
          la=1 lb=0:  10222 shell pairs
          la=1 lb=1:   2742 shell pairs
          la=2 lb=0:   4932 shell pairs
          la=2 lb=1:   2631 shell pairs
          la=2 lb=2:    659 shell pairs
          la=3 lb=0:   2333 shell pairs
          la=3 lb=1:   1291 shell pairs
          la=3 lb=2:    613 shell pairs
          la=3 lb=3:    158 shell pairs

Calculating one electron integrals          ... done (  0.1 sec)
Calculating RI/J V-Matrix + Cholesky decomp.... done (  0.1 sec)
Calculating Nuclear repulsion               ... done (  0.0 sec) ENN=   1591.744100401613 Eh

SHARK setup successfully completed in   1.4 seconds

Maximum memory used throughout the entire GTOINT-calculation: 53.4 MB


           ************************************************************
           *        Program running with 4 parallel MPI-processes     *
           *              working on a common directory               *
           ************************************************************
-------------------------------------------------------------------------------
                                 ORCA SCF
-------------------------------------------------------------------------------

------------
SCF SETTINGS
------------
Hamiltonian:
 Density Functional     Method          .... DFT(GTOs)
 Exchange Functional    Exchange        .... WB97X
 Correlation Functional Correlation     .... WB97X
 Gradients option       PostSCFGGA      .... off
 Hybrid DFT is turned on
   Fraction HF Exchange ScalHFX         ....  0.157706
   Scaling of DF-GGA-X  ScalDFX         ....  0.000000
   Scaling of DF-GGA-C  ScalDFC         ....  1.000000
   Scaling of DF-LDA-C  ScalLDAC        ....  1.000000
   Perturbative correction              ....  0.000000
   Density functional embedding theory  .... OFF
 Long-range corrected/Screened/Range-Separated Hybrid DFT is turned on
   Amount of maximum screened exact exchange              ....  0.842294
   Range separation parameter mu (erf(mu*r12)/r12)        ....  0.300000
 RI-approximation to the Coulomb term is turned on
   Number of AuxJ basis functions       .... 1249
   RIJ-COSX (HFX calculated with COS-X)).... on


General Settings:
 Integral files         IntName         .... 8_deprot
 Hartree-Fock type      HFTyp           .... RHF
 Total Charge           Charge          ....    0
 Multiplicity           Mult            ....    1
 Number of Electrons    NEL             ....  148
 Basis Dimension        Dim             ....  771
 Nuclear Repulsion      ENuc            ....   1591.7441004016 Eh

Convergence Acceleration:
 DIIS                   CNVDIIS         .... on
   Start iteration      DIISMaxIt       ....     0
   Startup error        DIISStart       ....  0.200000
   # of expansion vecs  DIISMaxEq       ....     5
   Bias factor          DIISBfac        ....   1.050
   Max. coefficient     DIISMaxC        ....  10.000
 Trust-Rad. Augm. Hess. CNVTRAH         .... auto
   Auto Start mean grad. ratio tolernc. ....  1.125000
   Auto Start start iteration           ....    20
   Auto Start num. interpolation iter.  ....    10
   Max. Number of Micro iterations      ....    16
   Max. Number of Macro iterations      .... Maxiter - #DIIS iter
   Number of Davidson start vectors     ....     2
   Converg. threshold I  (grad. norm)   ....   1.000e-05
   Converg. threshold II (energy diff.) ....   1.000e-08
   Grad. Scal. Fac. for Micro threshold ....   0.100
   Minimum threshold for Micro iter.    ....   0.010
   NR start threshold (gradient norm)   ....   0.001
   Initial trust radius                 ....   0.400
   Minimum AH scaling param. (alpha)    ....   1.000
   Maximum AH scaling param. (alpha)    .... 1000.000
   Orbital update algorithm             .... Taylor
   White noise on init. David. guess    .... on
   Maximum white noise                  ....   0.010
   Quad. conv. algorithm                .... NR
 SOSCF                  CNVSOSCF        .... on
   Start iteration      SOSCFMaxIt      ....   150
   Startup grad/error   SOSCFStart      ....  0.001000
 Level Shifting         CNVShift        .... on
   Level shift para.    LevelShift      ....    0.2500
   Turn off err/grad.   ShiftErr        ....    0.0000
 Zerner damping         CNVZerner       .... off
 Static damping         CNVDamp         .... on
   Fraction old density DampFac         ....    0.8500
   Max. Damping (<1)    DampMax         ....    0.9800
   Min. Damping (>=0)   DampMin         ....    0.0000
   Turn off err/grad.   DampErr         ....    0.0300
 Fernandez-Rico         CNVRico         .... off

SCF Procedure:
 Maximum # iterations   MaxIter         ....   125
 SCF integral mode      SCFMode         .... Direct
   Integral package                     .... SHARK and LIBINT hybrid scheme
 Reset frequency        DirectResetFreq ....    20
 Integral Threshold     Thresh          ....  2.500e-11 Eh
 Primitive CutOff       TCut            ....  2.500e-12 Eh

Convergence Tolerance:
 Convergence Check Mode ConvCheckMode   .... Total+1el-Energy
 Convergence forced     ConvForced      .... 0
 Energy Change          TolE            ....  1.000e-08 Eh
 1-El. energy change                    ....  1.000e-05 Eh
 Orbital Gradient       TolG            ....  1.000e-05
 Orbital Rotation angle TolX            ....  1.000e-05
 DIIS Error             TolErr          ....  5.000e-07


Diagonalization of the overlap matrix:
Smallest eigenvalue                        ... 4.118e-06
Time for diagonalization                   ...    0.129 sec
Threshold for overlap eigenvalues          ... 1.000e-08
Number of eigenvalues below threshold      ... 0
Time for construction of square roots      ...    0.059 sec
Total time needed                          ...    0.192 sec

Time for model grid setup =    0.526 sec

------------------------------
INITIAL GUESS: MODEL POTENTIAL
------------------------------
Loading Hartree-Fock densities                     ... done
Calculating cut-offs                               ... done
Initializing the effective Hamiltonian             ... done
Setting up the integral package (SHARK)            ... done
Starting the Coulomb interaction                   ... done (   1.5 sec)
Reading the grid                                   ... done
Mapping shells                                     ... done
Starting the XC term evaluation                    ... done (   0.8 sec)
  promolecular density results
     # of electrons  =    147.996740150
     EX              =   -116.170233768
     EC              =     -4.929410009
     EX+EC           =   -121.099643777
Transforming the Hamiltonian                       ... done (   0.1 sec)
Diagonalizing the Hamiltonian                      ... done (   0.1 sec)
Back transforming the eigenvectors                 ... done (   0.0 sec)
Now organizing SCF variables                       ... done
                      ------------------
                      INITIAL GUESS DONE (   3.1 sec)
                      ------------------
-------------------
DFT GRID GENERATION
-------------------

General Integration Accuracy     IntAcc      ... 4.388
Radial Grid Type                 RadialGrid  ... OptM3 with GC (2021)
Angular Grid (max. ang.)         AngularGrid ... 4 (Lebedev-302)
Angular grid pruning method      GridPruning ... 4 (adaptive)
Weight generation scheme         WeightScheme... Becke
Basis function cutoff            BFCut       ... 1.0000e-11
Integration weight cutoff        WCut        ... 1.0000e-14
Angular grids for H and He will be reduced by one unit
Partially contracted basis set               ... off
Rotationally invariant grid construction     ... off

Total number of grid points                  ...   188703
Total number of batches                      ...     2972
Average number of points per batch           ...       63
Average number of grid points per atom       ...     4603
Time for grid setup =    1.999 sec

--------------------
COSX GRID GENERATION
--------------------

GRIDX 1
-------
General Integration Accuracy     IntAcc      ... 3.816
Radial Grid Type                 RadialGrid  ... OptM3 with GC (2021)
Angular Grid (max. ang.)         AngularGrid ... 1 (Lebedev-50)
Angular grid pruning method      GridPruning ... 4 (adaptive)
Weight generation scheme         WeightScheme... Becke
Basis function cutoff            BFCut       ... 1.0000e-11
Integration weight cutoff        WCut        ... 1.0000e-14
Angular grids for H and He will be reduced by one unit
Partially contracted basis set               ... on
Rotationally invariant grid construction     ... off

Total number of grid points                  ...    24032
Total number of batches                      ...      395
Average number of points per batch           ...       60
Average number of grid points per atom       ...      586
UseSFitting                                  ... on

GRIDX 2
-------
General Integration Accuracy     IntAcc      ... 4.020
Radial Grid Type                 RadialGrid  ... OptM3 with GC (2021)
Angular Grid (max. ang.)         AngularGrid ... 2 (Lebedev-110)
Angular grid pruning method      GridPruning ... 4 (adaptive)
Weight generation scheme         WeightScheme... Becke
Basis function cutoff            BFCut       ... 1.0000e-11
Integration weight cutoff        WCut        ... 1.0000e-14
Angular grids for H and He will be reduced by one unit
Partially contracted basis set               ... on
Rotationally invariant grid construction     ... off

Total number of grid points                  ...    51407
Total number of batches                      ...      824
Average number of points per batch           ...       62
Average number of grid points per atom       ...     1254
UseSFitting                                  ... on

GRIDX 3
-------
General Integration Accuracy     IntAcc      ... 4.338
Radial Grid Type                 RadialGrid  ... OptM3 with GC (2021)
Angular Grid (max. ang.)         AngularGrid ... 3 (Lebedev-194)
Angular grid pruning method      GridPruning ... 4 (adaptive)
Weight generation scheme         WeightScheme... Becke
Basis function cutoff            BFCut       ... 1.0000e-11
Integration weight cutoff        WCut        ... 1.0000e-14
Angular grids for H and He will be reduced by one unit
Partially contracted basis set               ... on
Rotationally invariant grid construction     ... off

Total number of grid points                  ...   112078
Total number of batches                      ...     1774
Average number of points per batch           ...       63
Average number of grid points per atom       ...     2734
UseSFitting                                  ... on

Time for X-Grid setup             =    3.152 sec


--------------------
CPCM SOLVATION MODEL
--------------------
CPCM parameters:
  Epsilon                                         ...      80.4000
  Refrac                                          ...       1.3300
  Rsolv                                           ...       1.3000
  Surface type                                    ... GAUSSIAN VDW
  Epsilon function type                           ...         CPCM
Radii:
 Radius for C  used is    3.8550 Bohr (=   2.0400 Ang.)
 Radius for N  used is    3.5149 Bohr (=   1.8600 Ang.)
 Radius for H  used is    2.4944 Bohr (=   1.3200 Ang.)
Calculating surface                               ...        done! (  0.0s)
GEPOL surface points                              ...         2172
GEPOL Volume                                      ...    2409.0197
GEPOL Surface-area                                ...    1223.5037
Calculating surface distance matrix               ...        done! (  0.0s)
Performing Cholesky decomposition & store         ...        done! (  0.2s)
Overall time for CPCM initialization              ...                 0.2s
--------------
SCF ITERATIONS
--------------
ITER       Energy         Delta-E        Max-DP      RMS-DP      [F,P]     Damp
               ***  Starting incremental Fock matrix formation  ***
  0   -845.1816186773   0.000000000000 0.03078353  0.00033300  0.1677674 0.8500
  1   -845.2706413925  -0.089022715256 0.03062683  0.00032445  0.1355951 0.8500
                               ***Turning on DIIS***
  2   -845.3395049010  -0.068863508483 0.02467775  0.00026356  0.1046779 0.8500
  3   -845.3913346483  -0.051829747240 0.01815298  0.00019939  0.0798506 0.8500
  4   -845.4316136472  -0.040278998897 0.01432174  0.00016230  0.0638079 0.8500
  5   -845.4634985047  -0.031884857486 0.01306971  0.00013808  0.0528887 0.8500
  6   -845.4894627673  -0.025964262658 0.01173313  0.00011904  0.0445666 0.8500
  7   -845.5109620556  -0.021499288248 0.01051796  0.00010330  0.0378007 0.8500
  8   -845.5289456018  -0.017983546271 0.00931817  0.00008931  0.0320044 0.8500
  9   -845.5440258266  -0.015080224777 0.05440816  0.00051181  0.0270378 0.0000
 10   -845.6259333093  -0.081907482643 0.00525966  0.00002751  0.0011307 0.0000
                      *** Initiating the SOSCF procedure ***
                           *** Shutting down DIIS ***
                      *** Re-Reading the Fockian *** 
                      *** Removing any level shift *** 
ITER      Energy       Delta-E        Grad      Rot      Max-DP    RMS-DP
 11   -845.62596262  -0.0000293136  0.000371  0.000371  0.003342  0.000015
               *** Restarting incremental Fock matrix formation ***
 12   -845.62595648   0.0000061426  0.000150  0.000370  0.009913  0.000121
 13   -845.62595833  -0.0000018514  0.000115  0.000488  0.003232  0.000041
 14   -845.62595869  -0.0000003542  0.000039  0.000064  0.002656  0.000032
 15   -845.62595880  -0.0000001124  0.000008  0.000012  0.000273  0.000004
 16   -845.62595881  -0.0000000123  0.000005  0.000015  0.000175  0.000002
                  ***Gradient check signals convergence***
              ***Rediagonalizing the Fockian in SOSCF/NRSCF***

               *****************************************************
               *                     SUCCESS                       *
               *           SCF CONVERGED AFTER  17 CYCLES          *
               *****************************************************

Old exchange energy                            =    -38.181360913 Eh
New exchange energy                            =    -38.181344482 Eh
Exchange energy change after final integration =      0.000016431 Eh
Total energy after final integration           =   -845.625942411 Eh
Final COS-X integration done in                =   136.493 sec

----------------
TOTAL SCF ENERGY
----------------

Total Energy       :         -845.62594241 Eh          -23010.65173 eV

Components:
Nuclear Repulsion  :         1591.74410040 Eh           43313.55899 eV
Electronic Energy  :        -2437.37004281 Eh          -66324.21072 eV
One Electron Energy:        -4304.92870595 Eh         -117143.06553 eV
Two Electron Energy:         1867.55866314 Eh           50818.85480 eV
Max COSX asymmetry :            0.00000113 Eh               0.00003 eV
CPCM Dielectric    :           -0.02287287 Eh              -0.62240 eV

Virial components:
Potential Energy   :        -1687.03544742 Eh          -45906.56837 eV
Kinetic Energy     :          841.40950501 Eh           22895.91664 eV
Virial Ratio       :            2.00501116


DFT components:
N(Alpha)           :       74.000134314435 electrons
N(Beta)            :       74.000134314435 electrons
N(Total)           :      148.000268628871 electrons
E(XC)              :      -86.129163109848 Eh       
DFET-embed. en.    :        0.000000000000 Eh       
CPCM Solvation Model Properties:
Surface-charge          :           -0.03826501
Charge-correction       :           -0.00042520 Eh              -0.01157 eV
Free-energy (cav+disp)  :  This term is not implemented in the current solvation scheme

---------------
SCF CONVERGENCE
---------------

  Last Energy change         ...   -3.1270e-08  Tolerance :   1.0000e-08
  Last MAX-Density change    ...    1.3934e-15  Tolerance :   1.0000e-07
  Last RMS-Density change    ...    1.2833e-17  Tolerance :   5.0000e-09
  Last Orbital Gradient      ...    8.9555e-07  Tolerance :   1.0000e-05
  Last Orbital Rotation      ...    5.2195e-06  Tolerance :   1.0000e-05

             **** THE GBW FILE WAS UPDATED (8_deprot.gbw) ****
             **** DENSITY 8_deprot.scfp WAS UPDATED ****
             **** ENERGY FILE WAS UPDATED (8_deprot.en.tmp) ****
             **** THE GBW FILE WAS UPDATED (8_deprot.gbw) ****
             **** DENSITY 8_deprot.scfp WAS UPDATED ****
----------------
ORBITAL ENERGIES
----------------

  NO   OCC          E(Eh)            E(eV) 
   0   2.0000     -14.449095      -393.1799 
   1   2.0000     -14.449049      -393.1786 
   2   2.0000     -10.299619      -280.2669 
   3   2.0000     -10.299533      -280.2645 
   4   2.0000     -10.290109      -280.0081 
   5   2.0000     -10.289372      -279.9881 
   6   2.0000     -10.280530      -279.7474 
   7   2.0000     -10.278316      -279.6872 
   8   2.0000     -10.278292      -279.6865 
   9   2.0000     -10.278250      -279.6854 
  10   2.0000     -10.278143      -279.6825 
  11   2.0000     -10.264211      -279.3034 
  12   2.0000     -10.264097      -279.3003 
  13   2.0000     -10.259952      -279.1875 
  14   2.0000     -10.259853      -279.1848 
  15   2.0000     -10.259848      -279.1847 
  16   2.0000     -10.259741      -279.1817 
  17   2.0000     -10.252301      -278.9793 
  18   2.0000     -10.252171      -278.9758 
  19   2.0000     -10.252148      -278.9751 
  20   2.0000     -10.251877      -278.9678 
  21   2.0000      -1.167858       -31.7790 
  22   2.0000      -1.068884       -29.0858 
  23   2.0000      -1.004186       -27.3253 
  24   2.0000      -0.983742       -26.7690 
  25   2.0000      -0.920176       -25.0393 
  26   2.0000      -0.919821       -25.0296 
  27   2.0000      -0.913377       -24.8542 
  28   2.0000      -0.880704       -23.9652 
  29   2.0000      -0.877574       -23.8800 
  30   2.0000      -0.835496       -22.7350 
  31   2.0000      -0.817587       -22.2477 
  32   2.0000      -0.808419       -21.9982 
  33   2.0000      -0.807483       -21.9727 
  34   2.0000      -0.765359       -20.8265 
  35   2.0000      -0.740773       -20.1575 
  36   2.0000      -0.702760       -19.1231 
  37   2.0000      -0.701343       -19.0845 
  38   2.0000      -0.700290       -19.0559 
  39   2.0000      -0.682337       -18.5673 
  40   2.0000      -0.651891       -17.7389 
  41   2.0000      -0.618227       -16.8228 
  42   2.0000      -0.612210       -16.6591 
  43   2.0000      -0.597571       -16.2607 
  44   2.0000      -0.592644       -16.1267 
  45   2.0000      -0.564110       -15.3502 
  46   2.0000      -0.555879       -15.1262 
  47   2.0000      -0.552580       -15.0365 
  48   2.0000      -0.537408       -14.6236 
  49   2.0000      -0.536006       -14.5855 
  50   2.0000      -0.530028       -14.4228 
  51   2.0000      -0.524816       -14.2810 
  52   2.0000      -0.523953       -14.2575 
  53   2.0000      -0.522678       -14.2228 
  54   2.0000      -0.519439       -14.1346 
  55   2.0000      -0.513029       -13.9602 
  56   2.0000      -0.512789       -13.9537 
  57   2.0000      -0.510531       -13.8922 
  58   2.0000      -0.507670       -13.8144 
  59   2.0000      -0.479234       -13.0406 
  60   2.0000      -0.476703       -12.9718 
  61   2.0000      -0.462671       -12.5899 
  62   2.0000      -0.459844       -12.5130 
  63   2.0000      -0.455519       -12.3953 
  64   2.0000      -0.451285       -12.2801 
  65   2.0000      -0.444892       -12.1061 
  66   2.0000      -0.444076       -12.0839 
  67   2.0000      -0.389993       -10.6123 
  68   2.0000      -0.348646        -9.4871 
  69   2.0000      -0.343539        -9.3482 
  70   2.0000      -0.342188        -9.3114 
  71   2.0000      -0.339421        -9.2361 
  72   2.0000      -0.337205        -9.1758 
  73   2.0000      -0.334169        -9.0932 
  74   0.0000       0.055851         1.5198 
  75   0.0000       0.062105         1.6900 
  76   0.0000       0.066302         1.8042 
  77   0.0000       0.067716         1.8426 
  78   0.0000       0.092543         2.5182 
  79   0.0000       0.105505         2.8709 
  80   0.0000       0.113430         3.0866 
  81   0.0000       0.141040         3.8379 
  82   0.0000       0.145845         3.9686 
  83   0.0000       0.147587         4.0160 
  84   0.0000       0.150653         4.0995 
  85   0.0000       0.160898         4.3783 
  86   0.0000       0.164647         4.4803 
  87   0.0000       0.166413         4.5283 
  88   0.0000       0.177068         4.8183 
  89   0.0000       0.183775         5.0008 
  90   0.0000       0.193431         5.2635 
  91   0.0000       0.195834         5.3289 
  92   0.0000       0.198820         5.4102 
  93   0.0000       0.201358         5.4792 
  94   0.0000       0.202696         5.5156 
  95   0.0000       0.210950         5.7402 
  96   0.0000       0.215240         5.8570 
  97   0.0000       0.220598         6.0028 
  98   0.0000       0.224873         6.1191 
  99   0.0000       0.226972         6.1762 
 100   0.0000       0.228221         6.2102 
 101   0.0000       0.232824         6.3355 
 102   0.0000       0.236649         6.4395 
 103   0.0000       0.244873         6.6633 
 104   0.0000       0.246281         6.7016 
 105   0.0000       0.251556         6.8452 
 106   0.0000       0.256026         6.9668 
 107   0.0000       0.259116         7.0509 
 108   0.0000       0.265600         7.2273 
 109   0.0000       0.267910         7.2902 
 110   0.0000       0.270980         7.3737 
 111   0.0000       0.275166         7.4876 
 112   0.0000       0.278331         7.5738 
 113   0.0000       0.282283         7.6813 
 114   0.0000       0.286288         7.7903 
 115   0.0000       0.291865         7.9420 
 116   0.0000       0.296844         8.0775 
 117   0.0000       0.314681         8.5629 
 118   0.0000       0.322633         8.7793 
 119   0.0000       0.326089         8.8733 
 120   0.0000       0.327663         8.9162 
 121   0.0000       0.329868         8.9762 
 122   0.0000       0.332522         9.0484 
 123   0.0000       0.335132         9.1194 
 124   0.0000       0.339194         9.2299 
 125   0.0000       0.346581         9.4310 
 126   0.0000       0.347450         9.4546 
 127   0.0000       0.355170         9.6647 
 128   0.0000       0.364794         9.9265 
 129   0.0000       0.374280        10.1847 
 130   0.0000       0.382816        10.4170 
 131   0.0000       0.384073        10.4512 
 132   0.0000       0.385985        10.5032 
 133   0.0000       0.390437        10.6243 
 134   0.0000       0.397612        10.8196 
 135   0.0000       0.399299        10.8655 
 136   0.0000       0.401463        10.9244 
 137   0.0000       0.402384        10.9494 
 138   0.0000       0.403955        10.9922 
 139   0.0000       0.411802        11.2057 
 140   0.0000       0.422966        11.5095 
 141   0.0000       0.423574        11.5260 
 142   0.0000       0.427829        11.6418 
 143   0.0000       0.435084        11.8392 
 144   0.0000       0.438231        11.9249 
 145   0.0000       0.442384        12.0379 
 146   0.0000       0.444981        12.1086 
 147   0.0000       0.446952        12.1622 
 148   0.0000       0.458262        12.4699 
 149   0.0000       0.459239        12.4965 
 150   0.0000       0.463380        12.6092 
 151   0.0000       0.466574        12.6961 
 152   0.0000       0.476605        12.9691 
 153   0.0000       0.483180        13.1480 
 154   0.0000       0.484407        13.1814 
 155   0.0000       0.488716        13.2986 
 156   0.0000       0.493769        13.4361 
 157   0.0000       0.494597        13.4587 
 158   0.0000       0.498372        13.5614 
 159   0.0000       0.500060        13.6073 
 160   0.0000       0.505813        13.7639 
 161   0.0000       0.509550        13.8656 
 162   0.0000       0.518898        14.1199 
 163   0.0000       0.519459        14.1352 
 164   0.0000       0.525167        14.2905 
 165   0.0000       0.529495        14.4083 
 166   0.0000       0.530076        14.4241 
 167   0.0000       0.531391        14.4599 
 168   0.0000       0.531985        14.4760 
 169   0.0000       0.546281        14.8651 
 170   0.0000       0.551278        15.0010 
 171   0.0000       0.552485        15.0339 
 172   0.0000       0.561769        15.2865 
 173   0.0000       0.564017        15.3477 
 174   0.0000       0.565192        15.3796 
 175   0.0000       0.569601        15.4996 
 176   0.0000       0.574343        15.6287 
 177   0.0000       0.577788        15.7224 
 178   0.0000       0.588022        16.0009 
 179   0.0000       0.593246        16.1430 
 180   0.0000       0.596639        16.2354 
 181   0.0000       0.599023        16.3003 
 182   0.0000       0.605598        16.4791 
 183   0.0000       0.608411        16.5557 
 184   0.0000       0.610189        16.6041 
 185   0.0000       0.613621        16.6975 
 186   0.0000       0.615926        16.7602 
 187   0.0000       0.625615        17.0238 
 188   0.0000       0.630307        17.1515 
 189   0.0000       0.635922        17.3043 
 190   0.0000       0.640730        17.4351 
 191   0.0000       0.646535        17.5931 
 192   0.0000       0.648774        17.6540 
 193   0.0000       0.650513        17.7013 
 194   0.0000       0.653470        17.7818 
 195   0.0000       0.662365        18.0239 
 196   0.0000       0.670151        18.2357 
 197   0.0000       0.678712        18.4687 
 198   0.0000       0.680627        18.5208 
 199   0.0000       0.685764        18.6606 
 200   0.0000       0.695919        18.9369 
 201   0.0000       0.705628        19.2011 
 202   0.0000       0.712751        19.3949 
 203   0.0000       0.718943        19.5634 
 204   0.0000       0.729920        19.8621 
 205   0.0000       0.735110        20.0033 
 206   0.0000       0.745137        20.2762 
 207   0.0000       0.752149        20.4670 
 208   0.0000       0.766850        20.8671 
 209   0.0000       0.768032        20.8992 
 210   0.0000       0.772475        21.0201 
 211   0.0000       0.787648        21.4330 
 212   0.0000       0.789741        21.4899 
 213   0.0000       0.794553        21.6209 
 214   0.0000       0.796770        21.6812 
 215   0.0000       0.807247        21.9663 
 216   0.0000       0.810437        22.0531 
 217   0.0000       0.813281        22.1305 
 218   0.0000       0.819471        22.2989 
 219   0.0000       0.821037        22.3416 
 220   0.0000       0.823098        22.3976 
 221   0.0000       0.825558        22.4646 
 222   0.0000       0.839538        22.8450 
 223   0.0000       0.841753        22.9053 
 224   0.0000       0.861592        23.4451 
 225   0.0000       0.867478        23.6053 
 226   0.0000       0.873131        23.7591 
 227   0.0000       0.879665        23.9369 
 228   0.0000       0.887797        24.1582 
 229   0.0000       0.893324        24.3086 
 230   0.0000       0.898574        24.4514 
 231   0.0000       0.908047        24.7092 
 232   0.0000       0.913867        24.8676 
 233   0.0000       0.916688        24.9443 
 234   0.0000       0.929073        25.2813 
 235   0.0000       0.938447        25.5364 
 236   0.0000       0.941717        25.6254 
 237   0.0000       0.946869        25.7656 
 238   0.0000       0.948710        25.8157 
 239   0.0000       0.950746        25.8711 
 240   0.0000       0.959600        26.1120 
 241   0.0000       0.984362        26.7858 
 242   0.0000       0.986051        26.8318 
 243   0.0000       0.999924        27.2093 
 244   0.0000       1.003055        27.2945 
 245   0.0000       1.005363        27.3573 
 246   0.0000       1.009003        27.4564 
 247   0.0000       1.016294        27.6548 
 248   0.0000       1.023097        27.8399 
 249   0.0000       1.029607        28.0170 
 250   0.0000       1.047538        28.5050 
 251   0.0000       1.052964        28.6526 
 252   0.0000       1.066522        29.0215 
 253   0.0000       1.073722        29.2174 
 254   0.0000       1.077140        29.3105 
 255   0.0000       1.079806        29.3830 
 256   0.0000       1.084853        29.5204 
 257   0.0000       1.086865        29.5751 
 258   0.0000       1.101677        29.9782 
 259   0.0000       1.105355        30.0782 
 260   0.0000       1.113769        30.3072 
 261   0.0000       1.122894        30.5555 
 262   0.0000       1.141635        31.0655 
 263   0.0000       1.141825        31.0706 
 264   0.0000       1.151712        31.3397 
 265   0.0000       1.156219        31.4623 
 266   0.0000       1.157791        31.5051 
 267   0.0000       1.165607        31.7178 
 268   0.0000       1.168241        31.7895 
 269   0.0000       1.180626        32.1265 
 270   0.0000       1.186709        32.2920 
 271   0.0000       1.194130        32.4939 
 272   0.0000       1.211458        32.9655 
 273   0.0000       1.218081        33.1457 
 274   0.0000       1.220922        33.2230 
 275   0.0000       1.228499        33.4291 
 276   0.0000       1.231068        33.4991 
 277   0.0000       1.233457        33.5641 
 278   0.0000       1.243326        33.8326 
 279   0.0000       1.247790        33.9541 
 280   0.0000       1.253238        34.1023 
 281   0.0000       1.281938        34.8833 
 282   0.0000       1.283494        34.9256 
 283   0.0000       1.299017        35.3481 
 284   0.0000       1.308863        35.6160 
 285   0.0000       1.324756        36.0484 
 286   0.0000       1.333584        36.2887 
 287   0.0000       1.334206        36.3056 
 288   0.0000       1.337931        36.4070 
 289   0.0000       1.338968        36.4352 
 290   0.0000       1.348492        36.6943 
 291   0.0000       1.361814        37.0568 
 292   0.0000       1.368564        37.2405 
 293   0.0000       1.371972        37.3332 
 294   0.0000       1.374246        37.3951 
 295   0.0000       1.384976        37.6871 
 296   0.0000       1.387964        37.7684 
 297   0.0000       1.393459        37.9180 
 298   0.0000       1.402167        38.1549 
 299   0.0000       1.407345        38.2958 
 300   0.0000       1.411220        38.4012 
 301   0.0000       1.435700        39.0674 
 302   0.0000       1.439715        39.1766 
 303   0.0000       1.448658        39.4200 
 304   0.0000       1.456049        39.6211 
 305   0.0000       1.480720        40.2924 
 306   0.0000       1.501479        40.8573 
 307   0.0000       1.507280        41.0152 
 308   0.0000       1.509411        41.0732 
 309   0.0000       1.522841        41.4386 
 310   0.0000       1.534554        41.7573 
 311   0.0000       1.536722        41.8163 
 312   0.0000       1.549340        42.1597 
 313   0.0000       1.552548        42.2470 
 314   0.0000       1.556101        42.3437 
 315   0.0000       1.563005        42.5315 
 316   0.0000       1.581129        43.0247 
 317   0.0000       1.590901        43.2906 
 318   0.0000       1.600221        43.5442 
 319   0.0000       1.605296        43.6823 
 320   0.0000       1.610064        43.8121 
 321   0.0000       1.616852        43.9968 
 322   0.0000       1.627126        44.2764 
 323   0.0000       1.640821        44.6490 
 324   0.0000       1.644228        44.7417 
 325   0.0000       1.649938        44.8971 
 326   0.0000       1.654226        45.0138 
 327   0.0000       1.655539        45.0495 
 328   0.0000       1.657857        45.1126 
 329   0.0000       1.662607        45.2418 
 330   0.0000       1.666231        45.3405 
 331   0.0000       1.673702        45.5438 
 332   0.0000       1.678792        45.6822 
 333   0.0000       1.683516        45.8108 
 334   0.0000       1.684894        45.8483 
 335   0.0000       1.687453        45.9179 
 336   0.0000       1.692406        46.0527 
 337   0.0000       1.696577        46.1662 
 338   0.0000       1.699097        46.2348 
 339   0.0000       1.708610        46.4937 
 340   0.0000       1.715491        46.6809 
 341   0.0000       1.721024        46.8314 
 342   0.0000       1.725789        46.9611 
 343   0.0000       1.732038        47.1312 
 344   0.0000       1.737298        47.2743 
 345   0.0000       1.753078        47.7037 
 346   0.0000       1.759073        47.8668 
 347   0.0000       1.761804        47.9411 
 348   0.0000       1.766791        48.0768 
 349   0.0000       1.770543        48.1789 
 350   0.0000       1.783638        48.5353 
 351   0.0000       1.786468        48.6123 
 352   0.0000       1.790775        48.7295 
 353   0.0000       1.793013        48.7904 
 354   0.0000       1.805374        49.1267 
 355   0.0000       1.811918        49.3048 
 356   0.0000       1.817426        49.4547 
 357   0.0000       1.824603        49.6500 
 358   0.0000       1.826020        49.6885 
 359   0.0000       1.832947        49.8770 
 360   0.0000       1.835357        49.9426 
 361   0.0000       1.843127        50.1540 
 362   0.0000       1.858959        50.5848 
 363   0.0000       1.865994        50.7763 
 364   0.0000       1.872915        50.9646 
 365   0.0000       1.887882        51.3719 
 366   0.0000       1.899137        51.6781 
 367   0.0000       1.901751        51.7493 
 368   0.0000       1.923815        52.3497 
 369   0.0000       1.930514        52.5320 
 370   0.0000       1.959305        53.3154 
 371   0.0000       1.959861        53.3305 
 372   0.0000       1.963200        53.4214 
 373   0.0000       1.970861        53.6299 
 374   0.0000       1.983650        53.9779 
 375   0.0000       1.991720        54.1975 
 376   0.0000       2.002286        54.4850 
 377   0.0000       2.008159        54.6448 
 378   0.0000       2.020152        54.9711 
 379   0.0000       2.040542        55.5260 
 380   0.0000       2.048592        55.7450 
 381   0.0000       2.066612        56.2354 
 382   0.0000       2.073967        56.4355 
 383   0.0000       2.081848        56.6500 
 384   0.0000       2.085144        56.7396 
 385   0.0000       2.093603        56.9698 
 386   0.0000       2.101670        57.1893 
 387   0.0000       2.117958        57.6326 
 388   0.0000       2.120216        57.6940 
 389   0.0000       2.127296        57.8867 
 390   0.0000       2.150838        58.5273 
[...]
 10:     83.90   0.000028    0.14  0.000105  ( 0.000080  0.005618 -0.008566)
 11:     88.49   0.000169    0.85  0.000595  ( 0.011184  0.011386  0.018437)
 12:    104.00   0.000369    1.86  0.001106  ( 0.008142 -0.018100 -0.026682)
 13:    115.79   0.000436    2.20  0.001174  ( 0.009375  0.026338 -0.019811)
 14:    124.78   0.000563    2.85  0.001409  (-0.014632  0.033563 -0.008250)
 15:    139.39   0.000569    2.87  0.001273  ( 0.006362  0.033729  0.009732)
 16:    152.53   0.000118    0.60  0.000241  ( 0.008129 -0.001346  0.013171)
 17:    198.08   0.002158   10.91  0.003400  (-0.058187  0.003214 -0.002083)
 18:    206.76   0.000954    4.82  0.001440  (-0.006194 -0.037249 -0.003804)
 19:    236.04   0.000010    0.05  0.000013  ( 0.002167  0.000912 -0.002803)
 20:    237.10   0.000008    0.04  0.000011  ( 0.000892  0.001468 -0.002764)
 21:    282.85   0.000831    4.20  0.000916  ( 0.030234  0.000111  0.001529)
 22:    308.37   0.003179   16.07  0.003217  ( 0.000592 -0.010323  0.055770)
 23:    338.01   0.002508   12.67  0.002316  (-0.000197  0.047593  0.007101)
 24:    357.12   0.001359    6.87  0.001187  (-0.000994  0.034201  0.004069)
 25:    360.95   0.000054    0.27  0.000046  ( 0.003662  0.005546  0.001472)
 26:    399.69   0.000509    2.57  0.000398  ( 0.019870 -0.000326 -0.001652)
 27:    438.31   0.000040    0.20  0.000028  (-0.005215  0.000045  0.001089)
 28:    484.85   0.000301    1.52  0.000194  ( 0.000149  0.002482 -0.013691)
 29:    494.80   0.000016    0.08  0.000010  ( 0.003055  0.000102 -0.000934)
 30:    537.07   0.000005    0.02  0.000003  (-0.000088  0.001590 -0.000408)
 31:    538.01   0.000004    0.02  0.000002  (-0.001332 -0.000193  0.000771)
 32:    545.05   0.000048    0.24  0.000028  ( 0.000473 -0.000825 -0.005167)
 33:    549.85   0.000002    0.01  0.000001  (-0.000985 -0.000300  0.000441)
 34:    580.03   0.000330    1.67  0.000178  (-0.000012  0.013097  0.002479)
 35:    593.01   0.000003    0.01  0.000001  (-0.000101  0.001102  0.000396)
 36:    604.94   0.000008    0.04  0.000004  (-0.001314 -0.001176 -0.000991)
 37:    625.96   0.001867    9.44  0.000931  ( 0.030505 -0.000344 -0.000263)
 38:    685.50   0.000064    0.32  0.000029  ( 0.001213 -0.001807  0.004940)
 39:    688.39   0.001813    9.16  0.000822  ( 0.002059  0.002677 -0.028471)
 40:    765.62   0.019911  100.62  0.008116  ( 0.002488  0.017026 -0.088430)
 41:    770.36   0.000052    0.26  0.000021  (-0.000512  0.003646  0.002738)
 42:    782.46   0.001548    7.82  0.000617  ( 0.024837  0.000547  0.000191)
 43:    792.65   0.001122    5.67  0.000442  ( 0.001510  0.020026  0.006185)
 44:    802.02   0.000985    4.98  0.000383  ( 0.018042  0.007456  0.001417)
 45:    805.64   0.019796  100.04  0.007668  ( 0.025391  0.083268  0.009478)
 46:    810.08   0.014933   75.47  0.005753  ( 0.036630 -0.066403 -0.001253)
 47:    895.44   0.000016    0.08  0.000006  ( 0.000982  0.000838 -0.002015)
 48:    937.58   0.000120    0.61  0.000040  (-0.002649 -0.003648 -0.004424)
 49:    941.95   0.001728    8.73  0.000572  ( 0.003102  0.001831 -0.023651)
 50:    943.01   0.001483    7.49  0.000491  ( 0.000383 -0.002937  0.021955)
 51:    945.23   0.000093    0.47  0.000031  (-0.000534 -0.000233 -0.005505)
 52:    968.33   0.009291   46.95  0.002994  ( 0.054678  0.001403  0.001576)
 53:    976.55   0.000729    3.68  0.000233  (-0.001639  0.014546  0.004312)
 54:   1016.70   0.000730    3.69  0.000224  (-0.014538 -0.003323 -0.001257)
 55:   1017.37   0.000728    3.68  0.000223  ( 0.014631 -0.002999 -0.000434)
 56:   1028.34   0.000020    0.10  0.000006  (-0.002179 -0.001146 -0.000089)
 57:   1028.40   0.000085    0.43  0.000026  (-0.001379  0.004714 -0.001350)
 58:   1064.82   0.000321    1.62  0.000094  (-0.002708 -0.008813  0.002988)
 59:   1065.30   0.000250    1.26  0.000073  ( 0.001541 -0.001261 -0.008324)
 60:   1067.52   0.000376    1.90  0.000110  (-0.006840  0.007931 -0.000516)
 61:   1068.20   0.002968   15.00  0.000867  ( 0.001192  0.027467  0.010545)
 62:   1071.27   0.000357    1.80  0.000104  (-0.005236  0.008339  0.002647)
 63:   1073.32   0.000940    4.75  0.000273  (-0.001883 -0.016122 -0.003118)
 64:   1099.28   0.000367    1.86  0.000104  ( 0.001120  0.010125  0.000666)
 65:   1101.80   0.000072    0.36  0.000020  ( 0.003981  0.002113  0.000157)
 66:   1109.82   0.003820   19.30  0.001074  ( 0.004553 -0.031867 -0.006152)
 67:   1137.51   0.006846   34.60  0.001878  ( 0.043273  0.002066  0.001150)
 68:   1147.38   0.000242    1.22  0.000066  (-0.007317 -0.003210 -0.001412)
 69:   1186.61   0.000921    4.66  0.000242  (-0.001208  0.002292 -0.015349)
 70:   1187.60   0.000960    4.85  0.000252  ( 0.001559  0.001757 -0.015706)
 71:   1266.03   0.009360   47.30  0.002307  ( 0.048002  0.001125  0.001332)
 72:   1291.96   0.000099    0.50  0.000024  ( 0.001726 -0.000154  0.004565)
 73:   1293.21   0.000292    1.48  0.000070  (-0.003487  0.000181  0.007633)
 74:   1297.29   0.000098    0.50  0.000024  (-0.000610  0.001476  0.004592)
 75:   1299.16   0.000037    0.19  0.000009  ( 0.000538  0.000733 -0.002824)
 76:   1303.35   0.001118    5.65  0.000268  ( 0.002614  0.002916 -0.015884)
 77:   1305.02   0.001445    7.30  0.000346  (-0.005836  0.002655 -0.017447)
 78:   1318.46   0.008414   42.52  0.001992  ( 0.044603  0.001427 -0.000317)
 79:   1357.34   0.002168   10.96  0.000498  (-0.000520  0.021166  0.007080)
 80:   1405.58   0.000082    0.41  0.000018  ( 0.000459  0.004027  0.001296)
 81:   1412.15   0.000401    2.03  0.000089  ( 0.005211  0.000738  0.007803)
 82:   1413.49   0.000199    1.00  0.000044  (-0.004320 -0.001303 -0.004847)
 83:   1417.65   0.001602    8.09  0.000353  ( 0.018427  0.000207 -0.003603)
 84:   1422.52   0.000010    0.05  0.000002  (-0.001496 -0.000183 -0.000003)
 85:   1445.48   0.013468   68.06  0.002908  ( 0.053892  0.001109  0.001383)
 86:   1470.23   0.003721   18.81  0.000790  (-0.013030  0.023964  0.006764)
 87:   1471.79   0.004044   20.44  0.000857  (-0.003923 -0.026732 -0.011287)
 88:   1473.18   0.000737    3.72  0.000156  ( 0.010760  0.004421  0.004562)
 89:   1473.64   0.002669   13.49  0.000565  (-0.000994 -0.021391 -0.010331)
 90:   1475.15   0.001604    8.10  0.000339  ( 0.001103 -0.014203  0.011675)
 91:   1476.14   0.001443    7.29  0.000305  (-0.001502  0.015458 -0.007996)
 92:   1477.11   0.002127   10.75  0.000449  (-0.010319 -0.017147  0.006983)
 93:   1479.88   0.000362    1.83  0.000076  ( 0.006614 -0.005047  0.002679)
 94:   1530.07   0.001534    7.75  0.000313  ( 0.003965 -0.003599  0.016856)
 95:   1530.41   0.009347   47.24  0.001906  ( 0.002149  0.004815 -0.043337)
 96:   1542.60   0.053499  270.36  0.010823  ( 0.104015  0.001165  0.001471)
 97:   1549.09   0.002429   12.28  0.000489  (-0.002817 -0.021294 -0.005287)
 98:   1634.21   0.000478    2.41  0.000091  ( 0.000160  0.009524  0.000671)
 99:   1679.40   0.000054    0.27  0.000010  (-0.003145 -0.000465 -0.000017)
100:   1680.92   0.000046    0.23  0.000009  ( 0.000365 -0.002857 -0.000473)
101:   1683.26   0.000607    3.07  0.000113  ( 0.000970 -0.000233 -0.010563)
102:   1684.04   0.005296   26.76  0.000981  (-0.000806 -0.003038  0.031169)
103:   3066.51   0.009887   49.96  0.001006  (-0.004641  0.007187 -0.030544)
104:   3067.33   0.004799   24.25  0.000488  (-0.004963  0.003354  0.021268)
105:   3067.63   0.001956    9.89  0.000199  (-0.012655 -0.004514 -0.004298)
106:   3068.62   0.003680   18.60  0.000374  (-0.018372 -0.000720  0.006018)
107:   3131.22   0.005344   27.01  0.000533  (-0.001701 -0.023015  0.000004)
108:   3131.52   0.004879   24.66  0.000486  (-0.002204  0.021885  0.001545)
109:   3132.04   0.000730    3.69  0.000073  (-0.004306  0.007364  0.000029)
110:   3132.93   0.000567    2.87  0.000056  (-0.005816 -0.004504 -0.001541)
111:   3162.15   0.005430   27.44  0.000536  ( 0.012857  0.003119  0.018996)
112:   3162.46   0.005299   26.78  0.000523  (-0.017523  0.001504  0.014612)
113:   3163.96   0.004023   20.33  0.000397  (-0.005596 -0.009268  0.016719)
114:   3164.30   0.005619   28.40  0.000554  (-0.023001  0.002202 -0.004505)
115:   3198.98   0.000001    0.00  0.000000  ( 0.000255  0.000079 -0.000091)
116:   3199.01   0.000003    0.01  0.000000  ( 0.000230 -0.000437  0.000045)
117:   3206.33   0.003966   20.04  0.000386  ( 0.001244  0.001303 -0.019564)
118:   3206.45   0.003864   19.53  0.000376  (-0.000171  0.002538 -0.019226)
119:   3221.86   0.004727   23.89  0.000458  ( 0.020939 -0.004326 -0.000826)
120:   3221.94   0.003000   15.16  0.000291  (-0.015599 -0.006514 -0.002204)
121:   3285.09   0.002512   12.69  0.000239  ( 0.015439  0.000358  0.000331)
122:   3305.56   0.000364    1.84  0.000034  (-0.000095 -0.005792 -0.000896)

* The epsilon (eps) is given for a Dirac delta lineshape.
** The dipole moment derivative (T) already includes vibrational overlap.

The first frequency considered to be a vibration is 6
The total number of vibrations considered is 117


--------------------------
THERMOCHEMISTRY AT 298.15K
--------------------------

Temperature         ... 298.15 K
Pressure            ... 1.00 atm
Total Mass          ... 276.38 AMU

Throughout the following assumptions are being made:
  (1) The electronic state is orbitally nondegenerate
  (2) There are no thermally accessible electronically excited states
  (3) Hindered rotations indicated by low frequency modes are not
      treated as such but are treated as vibrations and this may
      cause some error
  (4) All equations used are the standard statistical mechanics
      equations for an ideal gas
  (5) All vibrations are strictly harmonic

freq.      15.34  E(vib)   ...       0.57 
freq.      17.29  E(vib)   ...       0.57 
freq.      54.51  E(vib)   ...       0.52 
freq.      72.48  E(vib)   ...       0.49 
freq.      83.90  E(vib)   ...       0.48 
freq.      88.49  E(vib)   ...       0.47 
freq.     104.00  E(vib)   ...       0.46 
freq.     115.79  E(vib)   ...       0.44 
freq.     124.78  E(vib)   ...       0.43 
freq.     139.39  E(vib)   ...       0.42 
freq.     152.53  E(vib)   ...       0.40 
freq.     198.08  E(vib)   ...       0.35 
freq.     206.76  E(vib)   ...       0.35 
freq.     236.04  E(vib)   ...       0.32 
freq.     237.10  E(vib)   ...       0.32 
freq.     282.85  E(vib)   ...       0.28 
freq.     308.37  E(vib)   ...       0.26 
freq.     338.01  E(vib)   ...       0.24 
freq.     357.12  E(vib)   ...       0.22 
freq.     360.95  E(vib)   ...       0.22 
freq.     399.69  E(vib)   ...       0.19 
freq.     438.31  E(vib)   ...       0.17 
freq.     484.85  E(vib)   ...       0.15 
freq.     494.80  E(vib)   ...       0.14 
freq.     537.07  E(vib)   ...       0.12 
freq.     538.01  E(vib)   ...       0.12 
freq.     545.05  E(vib)   ...       0.12 
freq.     549.85  E(vib)   ...       0.12 
freq.     580.03  E(vib)   ...       0.11 
freq.     593.01  E(vib)   ...       0.10 
freq.     604.94  E(vib)   ...       0.10 
freq.     625.96  E(vib)   ...       0.09 
freq.     685.50  E(vib)   ...       0.07 
freq.     688.39  E(vib)   ...       0.07 
freq.     765.62  E(vib)   ...       0.06 
freq.     770.36  E(vib)   ...       0.05 
freq.     782.46  E(vib)   ...       0.05 
freq.     792.65  E(vib)   ...       0.05 
freq.     802.02  E(vib)   ...       0.05 
freq.     805.64  E(vib)   ...       0.05 
freq.     810.08  E(vib)   ...       0.05 
freq.     895.44  E(vib)   ...       0.03 
freq.     937.58  E(vib)   ...       0.03 
freq.     941.95  E(vib)   ...       0.03 
freq.     943.01  E(vib)   ...       0.03 
freq.     945.23  E(vib)   ...       0.03 
freq.     968.33  E(vib)   ...       0.03 
freq.     976.55  E(vib)   ...       0.03 
freq.    1016.70  E(vib)   ...       0.02 
freq.    1017.37  E(vib)   ...       0.02 
freq.    1028.34  E(vib)   ...       0.02 
freq.    1028.40  E(vib)   ...       0.02 
freq.    1064.82  E(vib)   ...       0.02 
freq.    1065.30  E(vib)   ...       0.02 
freq.    1067.52  E(vib)   ...       0.02 
freq.    1068.20  E(vib)   ...       0.02 
freq.    1071.27  E(vib)   ...       0.02 
freq.    1073.32  E(vib)   ...       0.02 
freq.    1099.28  E(vib)   ...       0.02 
freq.    1101.80  E(vib)   ...       0.02 
freq.    1109.82  E(vib)   ...       0.02 
freq.    1137.51  E(vib)   ...       0.01 
freq.    1147.38  E(vib)   ...       0.01 
freq.    1186.61  E(vib)   ...       0.01 
freq.    1187.60  E(vib)   ...       0.01 
freq.    1266.03  E(vib)   ...       0.01 
freq.    1291.96  E(vib)   ...       0.01 
freq.    1293.21  E(vib)   ...       0.01 
freq.    1297.29  E(vib)   ...       0.01 
freq.    1299.16  E(vib)   ...       0.01 
freq.    1303.35  E(vib)   ...       0.01 
freq.    1305.02  E(vib)   ...       0.01 
freq.    1318.46  E(vib)   ...       0.01 
freq.    1357.34  E(vib)   ...       0.01 
freq.    1405.58  E(vib)   ...       0.00 
freq.    1412.15  E(vib)   ...       0.00 
freq.    1413.49  E(vib)   ...       0.00 
freq.    1417.65  E(vib)   ...       0.00 
freq.    1422.52  E(vib)   ...       0.00 
freq.    1445.48  E(vib)   ...       0.00 
freq.    1470.23  E(vib)   ...       0.00 
freq.    1471.79  E(vib)   ...       0.00 
freq.    1473.18  E(vib)   ...       0.00 
freq.    1473.64  E(vib)   ...       0.00 
freq.    1475.15  E(vib)   ...       0.00 
freq.    1476.14  E(vib)   ...       0.00 
freq.    1477.11  E(vib)   ...       0.00 
freq.    1479.88  E(vib)   ...       0.00 
freq.    1530.07  E(vib)   ...       0.00 
freq.    1530.41  E(vib)   ...       0.00 
freq.    1542.60  E(vib)   ...       0.00 
freq.    1549.09  E(vib)   ...       0.00 
freq.    1634.21  E(vib)   ...       0.00 
freq.    1679.40  E(vib)   ...       0.00 
freq.    1680.92  E(vib)   ...       0.00 
freq.    1683.26  E(vib)   ...       0.00 
freq.    1684.04  E(vib)   ...       0.00 
freq.    3066.51  E(vib)   ...       0.00 
freq.    3067.33  E(vib)   ...       0.00 
freq.    3067.63  E(vib)   ...       0.00 
freq.    3068.62  E(vib)   ...       0.00 
freq.    3131.22  E(vib)   ...       0.00 
freq.    3131.52  E(vib)   ...       0.00 
freq.    3132.04  E(vib)   ...       0.00 
freq.    3132.93  E(vib)   ...       0.00 
freq.    3162.15  E(vib)   ...       0.00 
freq.    3162.46  E(vib)   ...       0.00 
freq.    3163.96  E(vib)   ...       0.00 
freq.    3164.30  E(vib)   ...       0.00 
freq.    3198.98  E(vib)   ...       0.00 
freq.    3199.01  E(vib)   ...       0.00 
freq.    3206.33  E(vib)   ...       0.00 
freq.    3206.45  E(vib)   ...       0.00 
freq.    3221.86  E(vib)   ...       0.00 
freq.    3221.94  E(vib)   ...       0.00 
freq.    3285.09  E(vib)   ...       0.00 
freq.    3305.56  E(vib)   ...       0.00 

------------
INNER ENERGY
------------

The inner energy is: U= E(el) + E(ZPE) + E(vib) + E(rot) + E(trans)
    E(el)   - is the total energy from the electronic structure calculation
              = E(kin-el) + E(nuc-el) + E(el-el) + E(nuc-nuc)
    E(ZPE)  - the the zero temperature vibrational energy from the frequency calculation
    E(vib)  - the the finite temperature correction to E(ZPE) due to population
              of excited vibrational states
    E(rot)  - is the rotational thermal energy
    E(trans)- is the translational thermal energy

Summary of contributions to the inner energy U:
Electronic energy                ...   -845.63761955 Eh
Zero point energy                ...      0.34565057 Eh     216.90 kcal/mol
Thermal vibrational correction   ...      0.01668907 Eh      10.47 kcal/mol
Thermal rotational correction    ...      0.00141627 Eh       0.89 kcal/mol
Thermal translational correction ...      0.00141627 Eh       0.89 kcal/mol
-----------------------------------------------------------------------
Total thermal energy                   -845.27244737 Eh


Summary of corrections to the electronic energy:
(perhaps to be used in another calculation)
Total thermal correction                  0.01952161 Eh      12.25 kcal/mol
Non-thermal (ZPE) correction              0.34565057 Eh     216.90 kcal/mol
-----------------------------------------------------------------------
Total correction                          0.36517218 Eh     229.15 kcal/mol


--------
ENTHALPY
--------

The enthalpy is H = U + kB*T
                kB is Boltzmann's constant
Total free energy                 ...   -845.27244737 Eh 
Thermal Enthalpy correction       ...      0.00094421 Eh       0.59 kcal/mol
-----------------------------------------------------------------------
Total Enthalpy                    ...   -845.27150316 Eh


Note: Only C1 symmetry has been detected, increase convergence thresholds 
      if your molecule has a higher symmetry. Symmetry factor of 1.0 is   
      used for the rotational entropy correction. 
 

Note: Rotational entropy computed according to Herzberg 
Infrared and Raman Spectra, Chapter V,1, Van Nostrand Reinhold, 1945 
Point Group:  C1, Symmetry Number:   1  
Rotational constants in cm-1:     0.023767     0.006003     0.005219 

Vibrational entropy computed according to the QRRHO of S. Grimme
Chem.Eur.J. 2012 18 9955


-------
ENTROPY
-------

The entropy contributions are T*S = T*(S(el)+S(vib)+S(rot)+S(trans))
     S(el)   - electronic entropy
     S(vib)  - vibrational entropy
     S(rot)  - rotational entropy
     S(trans)- translational entropy
The entropies will be listed as multiplied by the temperature to get
units of energy

Electronic entropy                ...      0.00000000 Eh      0.00 kcal/mol
Vibrational entropy               ...      0.03007777 Eh     18.87 kcal/mol
Rotational entropy                ...      0.01617216 Eh     10.15 kcal/mol
Translational entropy             ...      0.02031105 Eh     12.75 kcal/mol
-----------------------------------------------------------------------
Final entropy term                ...      0.06656098 Eh     41.77 kcal/mol

In case the symmetry of your molecule has not been determined correctly
or in case you have a reason to use a different symmetry number we print 
out the resulting rotational entropy values for sn=1,12 :
 --------------------------------------------------------
|  sn= 1 | S(rot)=       0.01617216 Eh     10.15 kcal/mol|
|  sn= 2 | S(rot)=       0.01551770 Eh      9.74 kcal/mol|
|  sn= 3 | S(rot)=       0.01513487 Eh      9.50 kcal/mol|
|  sn= 4 | S(rot)=       0.01486325 Eh      9.33 kcal/mol|
|  sn= 5 | S(rot)=       0.01465256 Eh      9.19 kcal/mol|
|  sn= 6 | S(rot)=       0.01448042 Eh      9.09 kcal/mol|
|  sn= 7 | S(rot)=       0.01433487 Eh      9.00 kcal/mol|
|  sn= 8 | S(rot)=       0.01420879 Eh      8.92 kcal/mol|
|  sn= 9 | S(rot)=       0.01409758 Eh      8.85 kcal/mol|
|  sn=10 | S(rot)=       0.01399810 Eh      8.78 kcal/mol|
|  sn=11 | S(rot)=       0.01390811 Eh      8.73 kcal/mol|
|  sn=12 | S(rot)=       0.01382596 Eh      8.68 kcal/mol|
 --------------------------------------------------------


-------------------
GIBBS FREE ENERGY
-------------------

The Gibbs free energy is G = H - T*S

Total enthalpy                    ...   -845.27150316 Eh 
Total entropy correction          ...     -0.06656098 Eh    -41.77 kcal/mol
-----------------------------------------------------------------------
Final Gibbs free energy         ...   -845.33806414 Eh

For completeness - the Gibbs free energy minus the electronic energy
G-E(el)                           ...      0.29955541 Eh    187.97 kcal/mol


Timings for individual modules:

Sum of individual times         ...    15460.887 sec (= 257.681 min)
GTO integral calculation        ...       17.011 sec (=   0.284 min)   0.1 %
SCF iterations                  ...     6367.577 sec (= 106.126 min)  41.2 %
SCF Gradient evaluation         ...     1756.288 sec (=  29.271 min)  11.4 %
Geometry relaxation             ...        1.036 sec (=   0.017 min)   0.0 %
Analytical frequency calculation...     7318.976 sec (= 121.983 min)  47.3 %
                             ****ORCA TERMINATED NORMALLY****
TOTAL RUN TIME: 0 days 4 hours 17 minutes 46 seconds 170 msec
