
                                 *****************
                                 * O   R   C   A *
                                 *****************

                                            #,                                       
                                            ###                                      
                                            ####                                     
                                            #####                                    
                                            ######                                   
                                           ########,                                 
                                     ,,################,,,,,                         
                               ,,#################################,,                 
                          ,,##########################################,,             
                       ,#########################################, ''#####,          
                    ,#############################################,,   '####,        
                  ,##################################################,,,,####,       
                ,###########''''           ''''###############################       
              ,#####''   ,,,,##########,,,,          '''####'''          '####       
            ,##' ,,,,###########################,,,                        '##       
           ' ,,###''''                  '''############,,,                           
         ,,##''                                '''############,,,,        ,,,,,,###''
      ,#''                                            '''#######################'''  
     '                                                          ''''####''''         
             ,#######,   #######,   ,#######,      ##                                
            ,#'     '#,  ##    ##  ,#'     '#,    #''#        ######   ,####,        
            ##       ##  ##   ,#'  ##            #'  '#       #        #'  '#        
            ##       ##  #######   ##           ,######,      #####,   #    #        
            '#,     ,#'  ##    ##  '#,     ,#' ,#      #,         ##   #,  ,#        
             '#######'   ##     ##  '#######'  #'      '#     #####' # '####'        



                  #######################################################
                  #                        -***-                        #
                  #          Department of theory and spectroscopy      #
                  #    Directorship and core code : Frank Neese         #
                  #        Max Planck Institute fuer Kohlenforschung    #
                  #                Kaiser Wilhelm Platz 1               #
                  #                 D-45470 Muelheim/Ruhr               #
                  #                      Germany                        #
                  #                                                     #
                  #                  All rights reserved                #
                  #                        -***-                        #
                  #######################################################


                         Program Version 5.0.4 -  RELEASE  -


 With contributions from (in alphabetic order):
   Daniel Aravena         : Magnetic Suceptibility
   Michael Atanasov       : Ab Initio Ligand Field Theory (pilot matlab implementation)
   Alexander A. Auer      : GIAO ZORA, VPT2 properties, NMR spectrum
   Ute Becker             : Parallelization
   Giovanni Bistoni       : ED, misc. LED, open-shell LED, HFLD
   Martin Brehm           : Molecular dynamics
   Dmytro Bykov           : SCF Hessian
   Vijay G. Chilkuri      : MRCI spin determinant printing, contributions to CSF-ICE
   Dipayan Datta          : RHF DLPNO-CCSD density
   Achintya Kumar Dutta   : EOM-CC, STEOM-CC
   Dmitry Ganyushin       : Spin-Orbit,Spin-Spin,Magnetic field MRCI
   Miquel Garcia          : C-PCM and meta-GGA Hessian, CC/C-PCM, Gaussian charge scheme
   Yang Guo               : DLPNO-NEVPT2, F12-NEVPT2, CIM, IAO-localization
   Andreas Hansen         : Spin unrestricted coupled pair/coupled cluster methods
   Benjamin Helmich-Paris : MC-RPA, TRAH-SCF, COSX integrals
   Lee Huntington         : MR-EOM, pCC
   Robert Izsak           : Overlap fitted RIJCOSX, COSX-SCS-MP3, EOM
   Marcus Kettner         : VPT2
   Christian Kollmar      : KDIIS, OOCD, Brueckner-CCSD(T), CCSD density, CASPT2, CASPT2-K
   Simone Kossmann        : Meta GGA functionals, TD-DFT gradient, OOMP2, MP2 Hessian
   Martin Krupicka        : Initial AUTO-CI
   Lucas Lang             : DCDCAS
   Marvin Lechner         : AUTO-CI (C++ implementation), FIC-MRCC
   Dagmar Lenk            : GEPOL surface, SMD
   Dimitrios Liakos       : Extrapolation schemes; Compound Job, initial MDCI parallelization
   Dimitrios Manganas     : Further ROCIS development; embedding schemes
   Dimitrios Pantazis     : SARC Basis sets
   Anastasios Papadopoulos: AUTO-CI, single reference methods and gradients
   Taras Petrenko         : DFT Hessian,TD-DFT gradient, ASA, ECA, R-Raman, ABS, FL, XAS/XES, NRVS
   Peter Pinski           : DLPNO-MP2, DLPNO-MP2 Gradient
   Christoph Reimann      : Effective Core Potentials
   Marius Retegan         : Local ZFS, SOC
   Christoph Riplinger    : Optimizer, TS searches, QM/MM, DLPNO-CCSD(T), (RO)-DLPNO pert. Triples
   Tobias Risthaus        : Range-separated hybrids, TD-DFT gradient, RPA, STAB
   Michael Roemelt        : Original ROCIS implementation
   Masaaki Saitow         : Open-shell DLPNO-CCSD energy and density
   Barbara Sandhoefer     : DKH picture change effects
   Avijit Sen             : IP-ROCIS
   Kantharuban Sivalingam : CASSCF convergence, NEVPT2, FIC-MRCI
   Bernardo de Souza      : ESD, SOC TD-DFT
   Georgi Stoychev        : AutoAux, RI-MP2 NMR, DLPNO-MP2 response
   Willem Van den Heuvel  : Paramagnetic NMR
   Boris Wezisla          : Elementary symmetry handling
   Frank Wennmohs         : Technical directorship


 We gratefully acknowledge several colleagues who have allowed us to
 interface, adapt or use parts of their codes:
   Stefan Grimme, W. Hujo, H. Kruse, P. Pracht,  : VdW corrections, initial TS optimization,
                  C. Bannwarth, S. Ehlert          DFT functionals, gCP, sTDA/sTD-DF
   Ed Valeev, F. Pavosevic, A. Kumar             : LibInt (2-el integral package), F12 methods
   Garnet Chan, S. Sharma, J. Yang, R. Olivares  : DMRG
   Ulf Ekstrom                                   : XCFun DFT Library
   Mihaly Kallay                                 : mrcc  (arbitrary order and MRCC methods)
   Jiri Pittner, Ondrej Demel                    : Mk-CCSD
   Frank Weinhold                                : gennbo (NPA and NBO analysis)
   Christopher J. Cramer and Donald G. Truhlar   : smd solvation model
   Lars Goerigk                                  : TD-DFT with DH, B97 family of functionals
   V. Asgeirsson, H. Jonsson                     : NEB implementation
   FAccTs GmbH                                   : IRC, NEB, NEB-TS, DLPNO-Multilevel, CI-OPT
                                                   MM, QMMM, 2- and 3-layer-ONIOM, Crystal-QMMM,
                                                   LR-CPCM, SF, NACMEs, symmetry and pop. for TD-DFT,
                                                   nearIR, NL-DFT gradient (VV10), updates on ESD,
                                                   ML-optimized integration grids
   S Lehtola, MJT Oliveira, MAL Marques          : LibXC Library
   Liviu Ungur et al                             : ANISO software


 Your calculation uses the libint2 library for the computation of 2-el integrals
 For citations please refer to: http://libint.valeyev.net

 Your ORCA version has been built with support for libXC version: 5.1.0
 For citations please refer to: https://tddft.org/programs/libxc/

 This ORCA versions uses:
   CBLAS   interface :  Fast vector & matrix operations
   LAPACKE interface :  Fast linear algebra routines
   SCALAPACK package :  Parallel linear algebra routines
   Shared memory     :  Shared parallel matrices
   BLAS/LAPACK       :  OpenBLAS 0.3.15  USE64BITINT DYNAMIC_ARCH NO_AFFINITY SkylakeX SINGLE_THREADED
        Core in use  :  SkylakeX
   Copyright (c) 2011-2014, The OpenBLAS Project




***************************************
The coordinates will be read from file: 9_deprot.xyz
***************************************


Your calculation utilizes the atom-pairwise dispersion correction
based on tight binding partial charges (D4)
Cite in your paper:
E.Caldeweyher, C.Bannwarth, S.Grimme, J.Chem.Phys., (2017), 147, 034112.
E.Caldeweyher, S.Ehlert, A.Hansen, H.Neugebauer, S.Grimme, J.Chem.Phys., (2018), in progress.
   

XCFun DFT library Copyright 2009-2010 Ulf Ekstrom and contributors.
See http://admol.org/xcfun for more information.
This is free software; see the source code for copying conditions.
There is ABSOLUTELY NO WARRANTY; not even for MERCHANTABILITY or FITNESS FOR A PARTICULAR PURPOSE.
For details see the documentation.
Scientific users of this library should cite U. Ekstrom, L. Visscher, R. Bast, A. J. Thorvaldsen and K. Ruud;
J.Chem.Theor.Comp. 2010, DOI: 10.1021/ct100117s
XCFun Version 0.99 

================================================================================

----- Orbital basis set information -----
Your calculation utilizes the basis: def2-TZVP
   F. Weigend and R. Ahlrichs, Phys. Chem. Chem. Phys. 7, 3297 (2005).

----- AuxJ basis set information -----
Your calculation utilizes the auxiliary basis: def2/J
   F. Weigend, Phys. Chem. Chem. Phys. 8, 1057 (2006).

================================================================================
                                        WARNINGS
                       Please study these warnings very carefully!
================================================================================


WARNING: Geometry Optimization
  ===> : Switching off AutoStart
         For restart on a previous wavefunction, please use MOREAD

INFO   : the flag for use of the SHARK integral package has been found!

================================================================================
                                       INPUT FILE
================================================================================
NAME = 9_deprot.inp
|  1> # ORCA 5.0.4 - /users/bwb16179/postgrad/2024_06/pKa_Reviewer_Comments/Aq_Z=0/9_deprot.inp # write input file
|  2> # Basic Mode
|  3> #
|  4> ! Opt Freq wB97X Def2-TZVP D4 SlowConv TightSCF Defgrid2 Def2/J RIJCOSX CPCM(Water)
|  5> 
|  6> %PAL NPROCS 4 END
|  7> 
|  8> %maxcore 4500
|  9> 
| 10> %geom
| 11> Maxiter 150
| 12> END
| 13> 
| 14> * xyzfile 0 1 9_deprot.xyz
| 15> 
| 16>                          ****END OF INPUT****
================================================================================

                       *****************************
                       * Geometry Optimization Run *
                       *****************************

Geometry optimization settings:
Update method            Update   .... BFGS
Choice of coordinates    CoordSys .... Z-matrix Internals
Initial Hessian          InHess   .... Almoef's Model

Convergence Tolerances:
Energy Change            TolE     ....  5.0000e-06 Eh
Max. Gradient            TolMAXG  ....  3.0000e-04 Eh/bohr
RMS Gradient             TolRMSG  ....  1.0000e-04 Eh/bohr
Max. Displacement        TolMAXD  ....  4.0000e-03 bohr
RMS Displacement         TolRMSD  ....  2.0000e-03 bohr
Strict Convergence                ....  False
------------------------------------------------------------------------------
                        ORCA OPTIMIZATION COORDINATE SETUP
------------------------------------------------------------------------------

The optimization will be done in new redundant internal coordinates
Making redundant internal coordinates   ...  (new redundants) done
Evaluating the initial hessian          ...  (Almloef) done
Evaluating the coordinates              ...  done
Calculating the B-matrix                .... done
Calculating the G-matrix                .... done
Diagonalizing the G-matrix              .... done
The first mode is                       ....   40
The number of degrees of freedom        ....   45

    -----------------------------------------------------------------
                    Redundant Internal Coordinates


    -----------------------------------------------------------------
         Definition                    Initial Value    Approx d2E/dq
    -----------------------------------------------------------------
      1. B(C   1,C   0)                  1.5307         0.372634   
      2. B(N   2,C   0)                  1.4647         0.425362   
      3. B(N   3,C   1)                  1.4647         0.425362   
      4. B(C   4,N   2)                  1.3434         0.664058   
      5. B(C   4,N   3)                  1.3434         0.664059   
      6. B(H   5,C   0)                  1.1019         0.344708   
      7. B(H   6,C   1)                  1.1019         0.344708   
      8. B(C   7,N   2)                  1.4399         0.465871   
      9. B(C   8,N   3)                  1.4399         0.465871   
     10. B(H   9,C   7)                  1.1033         0.342980   
     11. B(H  10,C   8)                  1.1033         0.342980   
     12. B(H  11,C   7)                  1.0977         0.350107   
     13. B(H  12,C   8)                  1.0977         0.350107   
     14. B(H  13,C   7)                  1.1047         0.341180   
     15. B(H  14,C   8)                  1.1047         0.341179   
     16. B(H  15,C   0)                  1.1048         0.341055   
     17. B(H  16,C   1)                  1.1048         0.341054   
     18. A(N   2,C   0,H   5)          111.0937         0.326977   
     19. A(C   1,C   0,H   5)          113.2040         0.321871   
     20. A(C   1,C   0,N   2)          101.8743         0.369048   
     21. A(C   1,C   0,H  15)          112.5913         0.321310   
     22. A(H   5,C   0,H  15)          107.7132         0.286411   
     23. A(N   2,C   0,H  15)          110.3325         0.326404   
     24. A(N   3,C   1,H  16)          110.3325         0.326404   
     25. A(H   6,C   1,H  16)          107.7133         0.286411   
     26. A(C   0,C   1,N   3)          101.8743         0.369048   
     27. A(C   0,C   1,H  16)          112.5913         0.321310   
     28. A(N   3,C   1,H   6)          111.0937         0.326977   
     29. A(C   0,C   1,H   6)          113.2040         0.321871   
     30. A(C   0,N   2,C   4)          114.5535         0.405546   
     31. A(C   4,N   2,C   7)          125.0712         0.412131   
     32. A(C   0,N   2,C   7)          119.8949         0.381143   
     33. A(C   4,N   3,C   8)          125.0712         0.412131   
     34. A(C   1,N   3,C   8)          119.8949         0.381143   
     35. A(C   1,N   3,C   4)          114.5535         0.405546   
     36. A(N   2,C   4,N   3)          106.0838         0.439124   
     37. A(N   2,C   7,H   9)          110.9044         0.331652   
     38. A(H  11,C   7,H  13)          108.7303         0.287123   
     39. A(H   9,C   7,H  13)          107.8547         0.286203   
     40. A(N   2,C   7,H  13)          111.4859         0.331363   
     41. A(H   9,C   7,H  11)          108.8562         0.287359   
     42. A(N   2,C   7,H  11)          108.9485         0.332784   
     43. A(N   3,C   8,H  10)          110.9043         0.331652   
     44. A(H  12,C   8,H  14)          108.7303         0.287123   
     45. A(H  10,C   8,H  14)          107.8547         0.286202   
     46. A(N   3,C   8,H  14)          111.4860         0.331363   
     47. A(H  10,C   8,H  12)          108.8562         0.287359   
     48. A(N   3,C   8,H  12)          108.9485         0.332784   
     49. D(H  16,C   1,C   0,N   2)    108.5354         0.011091   
     50. D(N   3,C   1,C   0,H   5)   -128.9911         0.011091   
     51. D(N   3,C   1,C   0,N   2)     -9.6328         0.011091   
     52. D(H  16,C   1,C   0,H  15)   -133.2965         0.011091   
     53. D(H   6,C   1,C   0,H   5)    111.6507         0.011091   
     54. D(H   6,C   1,C   0,H  15)    -10.8228         0.011091   
     55. D(H   6,C   1,C   0,N   2)   -128.9910         0.011091   
     56. D(N   3,C   1,C   0,H  15)    108.5354         0.011091   
     57. D(H  16,C   1,C   0,H   5)    -10.8229         0.011091   
     58. D(C   7,N   2,C   0,H   5)    -57.8755         0.015426   
     59. D(C   7,N   2,C   0,C   1)   -178.7157         0.015426   
     60. D(C   4,N   2,C   0,H  15)   -110.9343         0.015426   
     61. D(C   7,N   2,C   0,H  15)     61.5119         0.015426   
     62. D(C   4,N   2,C   0,H   5)    129.6783         0.015426   
     63. D(C   4,N   2,C   0,C   1)      8.8381         0.015426   
     64. D(C   8,N   3,C   1,H  16)     61.5123         0.015426   
     65. D(C   8,N   3,C   1,H   6)    -57.8752         0.015426   
     66. D(C   8,N   3,C   1,C   0)   -178.7154         0.015426   
     67. D(C   4,N   3,C   1,H  16)   -110.9344         0.015426   
     68. D(C   4,N   3,C   1,H   6)    129.6781         0.015426   
     69. D(C   4,N   3,C   1,C   0)      8.8379         0.015426   
     70. D(N   2,C   4,N   3,C   8)   -175.6888         0.032708   
     71. D(N   2,C   4,N   3,C   1)     -3.6925         0.032708   
     72. D(N   3,C   4,N   2,C   7)   -175.6885         0.032707   
     73. D(N   3,C   4,N   2,C   0)     -3.6928         0.032707   
     74. D(H  13,C   7,N   2,C   0)    -60.6482         0.018536   
     75. D(H  11,C   7,N   2,C   4)     -9.0495         0.018536   
     76. D(H  11,C   7,N   2,C   0)    179.3512         0.018536   
     77. D(H   9,C   7,N   2,C   4)   -128.8460         0.018536   
     78. D(H  13,C   7,N   2,C   4)    110.9511         0.018536   
     79. D(H   9,C   7,N   2,C   0)     59.5547         0.018536   
     80. D(H  14,C   8,N   3,C   4)    110.9518         0.018536   
     81. D(H  14,C   8,N   3,C   1)    -60.6481         0.018536   
     82. D(H  12,C   8,N   3,C   4)     -9.0488         0.018536   
     83. D(H  12,C   8,N   3,C   1)    179.3513         0.018536   
     84. D(H  10,C   8,N   3,C   4)   -128.8452         0.018536   
     85. D(H  10,C   8,N   3,C   1)     59.5549         0.018536   
    -----------------------------------------------------------------

Number of atoms                         .... 17
Number of degrees of freedom            .... 85

         *************************************************************
         *                GEOMETRY OPTIMIZATION CYCLE   1            *
         *************************************************************
---------------------------------
CARTESIAN COORDINATES (ANGSTROEM)
---------------------------------
  C     -0.008862    0.765292   -1.217162
  C      0.008859   -0.765292   -1.217162
  N     -0.132690    1.065254    0.211096
  N      0.132685   -1.065254    0.211096
  C     -0.000001    0.000000    1.018796
  H     -0.851715    1.189715   -1.786046
  H      0.851713   -1.189715   -1.786044
  C     -0.213820    2.433364    0.652684
  C      0.213822   -2.433364    0.652684
  H     -1.087216    2.939553    0.207562
  H      1.087224   -2.939546    0.207566
  H     -0.313224    2.449804    1.745711
  H      0.313221   -2.449804    1.745711
  H      0.688834    3.003999    0.369956
  H     -0.688827   -3.004006    0.369951
  H      0.922630    1.200517   -1.621472
  H     -0.922633   -1.200517   -1.621473

----------------------------
CARTESIAN COORDINATES (A.U.)
----------------------------
  NO LB      ZA    FRAG     MASS         X           Y           Z
   0 C     6.0000    0    12.011   -0.016747    1.446192   -2.300103
   1 C     6.0000    0    12.011    0.016741   -1.446192   -2.300103
   2 N     7.0000    0    14.007   -0.250748    2.013038    0.398914
   3 N     7.0000    0    14.007    0.250738   -2.013038    0.398914
   4 C     6.0000    0    12.011   -0.000002    0.000000    1.925245
   5 H     1.0000    0     1.008   -1.609508    2.248236   -3.375138
   6 H     1.0000    0     1.008    1.609504   -2.248236   -3.375134
   7 C     6.0000    0    12.011   -0.404061    4.598392    1.233394
   8 C     6.0000    0    12.011    0.404065   -4.598392    1.233394
   9 H     1.0000    0     1.008   -2.054540    5.554950    0.392235
  10 H     1.0000    0     1.008    2.054556   -5.554937    0.392243
  11 H     1.0000    0     1.008   -0.591908    4.629459    3.298916
  12 H     1.0000    0     1.008    0.591902   -4.629459    3.298916
  13 H     1.0000    0     1.008    1.301708    5.676735    0.699116
  14 H     1.0000    0     1.008   -1.301694   -5.676749    0.699106
  15 H     1.0000    0     1.008    1.743518    2.268648   -3.064138
  16 H     1.0000    0     1.008   -1.743524   -2.268648   -3.064140

--------------------------------
INTERNAL COORDINATES (ANGSTROEM)
--------------------------------
 C      0   0   0     0.000000000000     0.00000000     0.00000000
 C      1   0   0     1.530686582843     0.00000000     0.00000000
 N      1   2   0     1.464660878699   101.87426621     0.00000000
 N      2   1   3     1.464660709613   101.87426667   350.36719122
 C      4   2   1     1.343410193914   114.55349108     8.83786297
 H      1   2   3     1.101891586316   113.20402364   240.64174111
 H      2   1   3     1.101891318674   113.20403026   231.00897806
 C      3   1   2     1.439898264026   119.89488381   181.28425340
 C      4   2   1     1.439898658452   119.89490067   181.28460191
 H      8   3   1     1.103259476017   110.90436134    59.55473300
 H      9   4   2     1.103259400437   110.90431013    59.55489449
 H      8   3   1     1.097660900071   108.94851707   179.35120328
 H      9   4   2     1.097660447283   108.94853091   179.35132372
 H      8   3   1     1.104691662377   111.48594759   299.35178511
 H      9   4   2     1.104692472435   111.48598123   299.35194890
 H      1   2   3     1.104791710138   112.59132215   118.16819229
 H      2   1   3     1.104792076098   112.59131425   108.53535542

---------------------------
INTERNAL COORDINATES (A.U.)
---------------------------
 C      0   0   0     0.000000000000     0.00000000     0.00000000
 C      1   0   0     2.892578438442     0.00000000     0.00000000
 N      1   2   0     2.767807939810   101.87426621     0.00000000
 N      2   1   3     2.767807620283   101.87426667   350.36719122
 C      4   2   1     2.538677352015   114.55349108     8.83786297
 H      1   2   3     2.082273327409   113.20402364   240.64174111
 H      2   1   3     2.082272821639   113.20403026   231.00897806
 C      3   1   2     2.721013379717   119.89488381   181.28425340
 C      4   2   1     2.721014125076   119.89490067   181.28460191
 H      8   3   1     2.084858264325   110.90436134    59.55473300
 H      9   4   2     2.084858121500   110.90431013    59.55489449
 H      8   3   1     2.074278489048   108.94851707   179.35120328
 H      9   4   2     2.074277633403   108.94853091   179.35132372
 H      8   3   1     2.087564704319   111.48594759   299.35178511
 H      9   4   2     2.087566235106   111.48598123   299.35194890
 H      1   2   3     2.087753767187   112.59132215   118.16819229
 H      2   1   3     2.087754458752   112.59131425   108.53535542

---------------------
BASIS SET INFORMATION
---------------------
There are 3 groups of distinct atoms

 Group   1 Type C   : 11s6p2d1f contracted to 5s3p2d1f pattern {62111/411/11/1}
 Group   2 Type N   : 11s6p2d1f contracted to 5s3p2d1f pattern {62111/411/11/1}
 Group   3 Type H   : 5s1p contracted to 3s1p pattern {311/1}

Atom   0C    basis set group =>   1
Atom   1C    basis set group =>   1
Atom   2N    basis set group =>   2
Atom   3N    basis set group =>   2
Atom   4C    basis set group =>   1
Atom   5H    basis set group =>   3
Atom   6H    basis set group =>   3
Atom   7C    basis set group =>   1
Atom   8C    basis set group =>   1
Atom   9H    basis set group =>   3
Atom  10H    basis set group =>   3
Atom  11H    basis set group =>   3
Atom  12H    basis set group =>   3
Atom  13H    basis set group =>   3
Atom  14H    basis set group =>   3
Atom  15H    basis set group =>   3
Atom  16H    basis set group =>   3
---------------------------------
AUXILIARY/J BASIS SET INFORMATION
---------------------------------
There are 3 groups of distinct atoms

 Group   1 Type C   : 12s5p4d2f1g contracted to 6s4p3d1f1g pattern {711111/2111/211/2/1}
 Group   2 Type N   : 12s5p4d2f1g contracted to 6s4p3d1f1g pattern {711111/2111/211/2/1}
 Group   3 Type H   : 5s2p1d contracted to 3s1p1d pattern {311/2/1}

Atom   0C    basis set group =>   1
Atom   1C    basis set group =>   1
Atom   2N    basis set group =>   2
Atom   3N    basis set group =>   2
Atom   4C    basis set group =>   1
Atom   5H    basis set group =>   3
Atom   6H    basis set group =>   3
Atom   7C    basis set group =>   1
Atom   8C    basis set group =>   1
Atom   9H    basis set group =>   3
Atom  10H    basis set group =>   3
Atom  11H    basis set group =>   3
Atom  12H    basis set group =>   3
Atom  13H    basis set group =>   3
Atom  14H    basis set group =>   3
Atom  15H    basis set group =>   3
Atom  16H    basis set group =>   3


           ************************************************************
           *        Program running with 4 parallel MPI-processes     *
           *              working on a common directory               *
           ************************************************************
------------------------------------------------------------------------------
                           ORCA GTO INTEGRAL CALCULATION
                           -- RI-GTO INTEGRALS CHOSEN --
------------------------------------------------------------------------------
------------------------------------------------------------------------------
                   ___                                                        
                  /   \      - P O W E R E D   B Y -                         
                 /     \                                                     
                 |  |  |   _    _      __       _____    __    __             
                 |  |  |  | |  | |    /  \     |  _  \  |  |  /  |          
                  \  \/   | |  | |   /    \    | | | |  |  | /  /          
                 / \  \   | |__| |  /  /\  \   | |_| |  |  |/  /          
                |  |  |   |  __  | /  /__\  \  |    /   |      \           
                |  |  |   | |  | | |   __   |  |    \   |  |\   \          
                \     /   | |  | | |  |  |  |  | |\  \  |  | \   \       
                 \___/    |_|  |_| |__|  |__|  |_| \__\ |__|  \__/        
                                                                              
                      - O R C A' S   B I G   F R I E N D -                    
                                      &                                       
                       - I N T E G R A L  F E E D E R -                       
                                                                              
 v1 FN, 2020, v2 2021                                                         
------------------------------------------------------------------------------


Reading SHARK input file 9_deprot.SHARKINP.tmp ... ok
----------------------
SHARK INTEGRAL PACKAGE
----------------------

Number of atoms                             ...     17
Number of basis functions                   ...    277
Number of shells                            ...    117
Maximum angular momentum                    ...      3
Integral batch strategy                     ... SHARK/LIBINT Hybrid
RI-J (if used) integral strategy            ... SPLIT-RIJ (Revised 2003 algorithm where possible)
Printlevel                                  ...      1
Contraction scheme used                     ... SEGMENTED contraction
Coulomb Range Separation                    ... NOT USED
Exchange Range Separation                   ... Long Range
   Mu parameter                             ...  0.300000
   Scaling (regular/separated)              ...  0.157706  0.842294
Finite Nucleus Model                        ... NOT USED
Auxiliary Coulomb fitting basis             ... AVAILABLE
   # of basis functions in Aux-J            ...    453
   # of shells in Aux-J                     ...    155
   Maximum angular momentum in Aux-J        ...      4
Auxiliary J/K fitting basis                 ... NOT available
Auxiliary Correlation fitting basis         ... NOT available
Auxiliary 'external' fitting basis          ... NOT available
Integral threshold                          ...     2.500000e-11
Primitive cut-off                           ...     2.500000e-12
Primitive pair pre-selection threshold      ...     2.500000e-12

Calculating pre-screening integrals         ... done (  0.1 sec) Dimension = 117
Organizing shell pair data                  ... done (  0.1 sec)
Shell pair information
Total number of shell pairs                 ...      6903
Shell pairs after pre-screening             ...      6410
Total number of primitive shell pairs       ...     20284
Primitive shell pairs kept                  ...     14530
          la=0 lb=0:   1925 shell pairs
          la=1 lb=0:   1865 shell pairs
          la=1 lb=1:    470 shell pairs
          la=2 lb=0:    866 shell pairs
          la=2 lb=1:    420 shell pairs
          la=2 lb=2:    104 shell pairs
          la=3 lb=0:    427 shell pairs
          la=3 lb=1:    209 shell pairs
          la=3 lb=2:     96 shell pairs
          la=3 lb=3:     28 shell pairs

Calculating one electron integrals          ... done (  0.0 sec)
Calculating RI/J V-Matrix + Cholesky decomp.... done (  0.0 sec)
Calculating Nuclear repulsion               ... done (  0.0 sec) ENN=    313.430405500406 Eh

SHARK setup successfully completed in   0.4 seconds

Maximum memory used throughout the entire GTOINT-calculation: 19.7 MB


           ************************************************************
           *        Program running with 4 parallel MPI-processes     *
           *              working on a common directory               *
           ************************************************************
-------------------------------------------------------------------------------
                                 ORCA SCF
-------------------------------------------------------------------------------

------------
SCF SETTINGS
------------
Hamiltonian:
 Density Functional     Method          .... DFT(GTOs)
 Exchange Functional    Exchange        .... WB97X
 Correlation Functional Correlation     .... WB97X
 Gradients option       PostSCFGGA      .... off
 Hybrid DFT is turned on
   Fraction HF Exchange ScalHFX         ....  0.157706
   Scaling of DF-GGA-X  ScalDFX         ....  0.000000
   Scaling of DF-GGA-C  ScalDFC         ....  1.000000
   Scaling of DF-LDA-C  ScalLDAC        ....  1.000000
   Perturbative correction              ....  0.000000
   Density functional embedding theory  .... OFF
 Long-range corrected/Screened/Range-Separated Hybrid DFT is turned on
   Amount of maximum screened exact exchange              ....  0.842294
   Range separation parameter mu (erf(mu*r12)/r12)        ....  0.300000
 RI-approximation to the Coulomb term is turned on
   Number of AuxJ basis functions       .... 453
   RIJ-COSX (HFX calculated with COS-X)).... on


General Settings:
 Integral files         IntName         .... 9_deprot
 Hartree-Fock type      HFTyp           .... RHF
 Total Charge           Charge          ....    0
 Multiplicity           Mult            ....    1
 Number of Electrons    NEL             ....   54
 Basis Dimension        Dim             ....  277
 Nuclear Repulsion      ENuc            ....    313.4304055004 Eh

Convergence Acceleration:
 DIIS                   CNVDIIS         .... on
   Start iteration      DIISMaxIt       ....     0
   Startup error        DIISStart       ....  0.200000
   # of expansion vecs  DIISMaxEq       ....     5
   Bias factor          DIISBfac        ....   1.050
   Max. coefficient     DIISMaxC        ....  10.000
 Trust-Rad. Augm. Hess. CNVTRAH         .... auto
   Auto Start mean grad. ratio tolernc. ....  1.125000
   Auto Start start iteration           ....    20
   Auto Start num. interpolation iter.  ....    10
   Max. Number of Micro iterations      ....    16
   Max. Number of Macro iterations      .... Maxiter - #DIIS iter
   Number of Davidson start vectors     ....     2
   Converg. threshold I  (grad. norm)   ....   1.000e-05
   Converg. threshold II (energy diff.) ....   1.000e-08
   Grad. Scal. Fac. for Micro threshold ....   0.100
   Minimum threshold for Micro iter.    ....   0.010
   NR start threshold (gradient norm)   ....   0.001
   Initial trust radius                 ....   0.400
   Minimum AH scaling param. (alpha)    ....   1.000
   Maximum AH scaling param. (alpha)    .... 1000.000
   Orbital update algorithm             .... Taylor
   White noise on init. David. guess    .... on
   Maximum white noise                  ....   0.010
   Quad. conv. algorithm                .... NR
 SOSCF                  CNVSOSCF        .... on
   Start iteration      SOSCFMaxIt      ....   150
   Startup grad/error   SOSCFStart      ....  0.001000
 Level Shifting         CNVShift        .... on
   Level shift para.    LevelShift      ....    0.2500
   Turn off err/grad.   ShiftErr        ....    0.0000
 Zerner damping         CNVZerner       .... off
 Static damping         CNVDamp         .... on
   Fraction old density DampFac         ....    0.8500
   Max. Damping (<1)    DampMax         ....    0.9800
   Min. Damping (>=0)   DampMin         ....    0.0000
   Turn off err/grad.   DampErr         ....    0.0300
 Fernandez-Rico         CNVRico         .... off

SCF Procedure:
 Maximum # iterations   MaxIter         ....   125
 SCF integral mode      SCFMode         .... Direct
   Integral package                     .... SHARK and LIBINT hybrid scheme
 Reset frequency        DirectResetFreq ....    20
 Integral Threshold     Thresh          ....  2.500e-11 Eh
 Primitive CutOff       TCut            ....  2.500e-12 Eh

Convergence Tolerance:
 Convergence Check Mode ConvCheckMode   .... Total+1el-Energy
 Convergence forced     ConvForced      .... 0
 Energy Change          TolE            ....  1.000e-08 Eh
 1-El. energy change                    ....  1.000e-05 Eh
 Orbital Gradient       TolG            ....  1.000e-05
 Orbital Rotation angle TolX            ....  1.000e-05
 DIIS Error             TolErr          ....  5.000e-07


Diagonalization of the overlap matrix:
Smallest eigenvalue                        ... 1.725e-04
Time for diagonalization                   ...    0.013 sec
Threshold for overlap eigenvalues          ... 1.000e-08
Number of eigenvalues below threshold      ... 0
Time for construction of square roots      ...    0.006 sec
Total time needed                          ...    0.020 sec

Time for model grid setup =    0.123 sec

------------------------------
INITIAL GUESS: MODEL POTENTIAL
------------------------------
Loading Hartree-Fock densities                     ... done
Calculating cut-offs                               ... done
Initializing the effective Hamiltonian             ... done
Setting up the integral package (SHARK)            ... done
Starting the Coulomb interaction                   ... done (   0.1 sec)
Reading the grid                                   ... done
Mapping shells                                     ... done
Starting the XC term evaluation                    ... done (   0.1 sec)
  promolecular density results
     # of electrons  =     53.995999617
     EX              =    -41.604805561
     EC              =     -1.782856829
     EX+EC           =    -43.387662390
Transforming the Hamiltonian                       ... done (   0.5 sec)
Diagonalizing the Hamiltonian                      ... done (   0.0 sec)
Back transforming the eigenvectors                 ... done (   0.0 sec)
Now organizing SCF variables                       ... done
                      ------------------
                      INITIAL GUESS DONE (   0.9 sec)
                      ------------------
-------------------
DFT GRID GENERATION
-------------------

General Integration Accuracy     IntAcc      ... 4.388
Radial Grid Type                 RadialGrid  ... OptM3 with GC (2021)
Angular Grid (max. ang.)         AngularGrid ... 4 (Lebedev-302)
Angular grid pruning method      GridPruning ... 4 (adaptive)
Weight generation scheme         WeightScheme... Becke
Basis function cutoff            BFCut       ... 1.0000e-11
Integration weight cutoff        WCut        ... 1.0000e-14
Angular grids for H and He will be reduced by one unit
Partially contracted basis set               ... off
Rotationally invariant grid construction     ... off

Total number of grid points                  ...    74235
Total number of batches                      ...     1168
Average number of points per batch           ...       63
Average number of grid points per atom       ...     4367
Time for grid setup =    0.481 sec

--------------------
COSX GRID GENERATION
--------------------

GRIDX 1
-------
General Integration Accuracy     IntAcc      ... 3.816
Radial Grid Type                 RadialGrid  ... OptM3 with GC (2021)
Angular Grid (max. ang.)         AngularGrid ... 1 (Lebedev-50)
Angular grid pruning method      GridPruning ... 4 (adaptive)
Weight generation scheme         WeightScheme... Becke
Basis function cutoff            BFCut       ... 1.0000e-11
Integration weight cutoff        WCut        ... 1.0000e-14
Angular grids for H and He will be reduced by one unit
Partially contracted basis set               ... on
Rotationally invariant grid construction     ... off

Total number of grid points                  ...     9541
Total number of batches                      ...      159
Average number of points per batch           ...       60
Average number of grid points per atom       ...      561
UseSFitting                                  ... on

GRIDX 2
-------
General Integration Accuracy     IntAcc      ... 4.020
Radial Grid Type                 RadialGrid  ... OptM3 with GC (2021)
Angular Grid (max. ang.)         AngularGrid ... 2 (Lebedev-110)
Angular grid pruning method      GridPruning ... 4 (adaptive)
Weight generation scheme         WeightScheme... Becke
Basis function cutoff            BFCut       ... 1.0000e-11
Integration weight cutoff        WCut        ... 1.0000e-14
Angular grids for H and He will be reduced by one unit
Partially contracted basis set               ... on
Rotationally invariant grid construction     ... off

Total number of grid points                  ...    20181
Total number of batches                      ...      321
Average number of points per batch           ...       62
Average number of grid points per atom       ...     1187
UseSFitting                                  ... on

GRIDX 3
-------
General Integration Accuracy     IntAcc      ... 4.338
Radial Grid Type                 RadialGrid  ... OptM3 with GC (2021)
Angular Grid (max. ang.)         AngularGrid ... 3 (Lebedev-194)
Angular grid pruning method      GridPruning ... 4 (adaptive)
Weight generation scheme         WeightScheme... Becke
Basis function cutoff            BFCut       ... 1.0000e-11
Integration weight cutoff        WCut        ... 1.0000e-14
Angular grids for H and He will be reduced by one unit
Partially contracted basis set               ... on
Rotationally invariant grid construction     ... off

Total number of grid points                  ...    44203
Total number of batches                      ...      699
Average number of points per batch           ...       63
Average number of grid points per atom       ...     2600
UseSFitting                                  ... on

Time for X-Grid setup             =    0.721 sec


--------------------
CPCM SOLVATION MODEL
--------------------
CPCM parameters:
  Epsilon                                         ...      80.4000
  Refrac                                          ...       1.3300
  Rsolv                                           ...       1.3000
  Surface type                                    ... GAUSSIAN VDW
  Epsilon function type                           ...         CPCM
Radii:
 Radius for C  used is    3.8550 Bohr (=   2.0400 Ang.)
 Radius for N  used is    3.5149 Bohr (=   1.8600 Ang.)
 Radius for H  used is    2.4944 Bohr (=   1.3200 Ang.)
Calculating surface                               ...        done! (  0.0s)
GEPOL surface points                              ...          955
GEPOL Volume                                      ...     930.0105
GEPOL Surface-area                                ...     547.6748
Calculating surface distance matrix               ...        done! (  0.0s)
Performing Cholesky decomposition & store         ...        done! (  0.1s)
Overall time for CPCM initialization              ...                 0.1s
--------------
SCF ITERATIONS
--------------
ITER       Energy         Delta-E        Max-DP      RMS-DP      [F,P]     Damp
               ***  Starting incremental Fock matrix formation  ***
  0   -305.8882226490   0.000000000000 0.02461385  0.00037125  0.1420362 0.8500
  1   -305.9198075351  -0.031584886092 0.03078961  0.00038181  0.1155324 0.8500
                               ***Turning on DIIS***
  2   -305.9439470299  -0.024139494855 0.02867167  0.00032610  0.0898107 0.8500
  3   -305.9619435590  -0.017996529113 0.02359961  0.00025289  0.0689934 0.8500
  4   -305.9758859121  -0.013942353084 0.01958566  0.00020633  0.0552483 0.8500
  5   -305.9869147715  -0.011028859379 0.01672878  0.00017596  0.0457443 0.8500
  6   -305.9959092845  -0.008994512972 0.01454633  0.00015270  0.0385099 0.8500
  7   -306.0033723163  -0.007463031882 0.01287795  0.00013420  0.0326585 0.8500
  8   -306.0096283392  -0.006256022896 0.07614746  0.00078344  0.0276903 0.0000
  9   -306.0435880391  -0.033959699858 0.00304192  0.00003905  0.0015423 0.0000
                      *** Initiating the SOSCF procedure ***
                           *** Shutting down DIIS ***
                      *** Re-Reading the Fockian *** 
                      *** Removing any level shift *** 
ITER      Energy       Delta-E        Grad      Rot      Max-DP    RMS-DP
 10   -306.04360788  -0.0000198444  0.000494  0.000494  0.001866  0.000024
               *** Restarting incremental Fock matrix formation ***
 11   -306.04363678  -0.0000288924  0.000322  0.000639  0.001362  0.000023
 12   -306.04363836  -0.0000015816  0.000124  0.000514  0.000810  0.000017
 13   -306.04363866  -0.0000003049  0.000044  0.000099  0.000246  0.000005
 14   -306.04363874  -0.0000000792  0.000006  0.000011  0.000037  0.000001
 15   -306.04363874   0.0000000021  0.000003  0.000007  0.000014  0.000000
                  ***Gradient check signals convergence***
              ***Rediagonalizing the Fockian in SOSCF/NRSCF***

               *****************************************************
               *                     SUCCESS                       *
               *           SCF CONVERGED AFTER  16 CYCLES          *
               *****************************************************

Old exchange energy                            =    -13.837135170 Eh
New exchange energy                            =    -13.837137854 Eh
Exchange energy change after final integration =     -0.000002684 Eh
Total energy after final integration           =   -306.043641425 Eh
Final COS-X integration done in                =    12.559 sec

----------------
TOTAL SCF ENERGY
----------------

Total Energy       :         -306.04364143 Eh           -8327.87086 eV

Components:
Nuclear Repulsion  :          313.43040550 Eh            8528.87493 eV
Electronic Energy  :         -619.47404693 Eh          -16856.74580 eV
One Electron Energy:        -1033.28253876 Eh          -28117.04732 eV
Two Electron Energy:          413.80849183 Eh           11260.30153 eV
Max COSX asymmetry :            0.00000088 Eh               0.00002 eV
CPCM Dielectric    :           -0.01556813 Eh              -0.42363 eV

Virial components:
Potential Energy   :         -610.55062447 Eh          -16613.92713 eV
Kinetic Energy     :          304.50698304 Eh            8286.05626 eV
Virial Ratio       :            2.00504638


DFT components:
N(Alpha)           :       26.999980123883 electrons
N(Beta)            :       26.999980123883 electrons
N(Total)           :       53.999960247765 electrons
E(XC)              :      -30.822976614846 Eh       
DFET-embed. en.    :        0.000000000000 Eh       
CPCM Solvation Model Properties:
Surface-charge          :           -0.02879212
Charge-correction       :           -0.00068777 Eh              -0.01872 eV
Free-energy (cav+disp)  :  This term is not implemented in the current solvation scheme

---------------
SCF CONVERGENCE
---------------

  Last Energy change         ...   -1.4492e-09  Tolerance :   1.0000e-08
  Last MAX-Density change    ...    5.9674e-16  Tolerance :   1.0000e-07
  Last RMS-Density change    ...    1.3856e-17  Tolerance :   5.0000e-09
  Last Orbital Gradient      ...    1.0328e-06  Tolerance :   1.0000e-05
  Last Orbital Rotation      ...    2.3724e-06  Tolerance :   1.0000e-05

             **** THE GBW FILE WAS UPDATED (9_deprot.gbw) ****
             **** DENSITY 9_deprot.scfp WAS UPDATED ****
             **** ENERGY FILE WAS UPDATED (9_deprot.en.tmp) ****
             **** THE GBW FILE WAS UPDATED (9_deprot.gbw) ****
             **** DENSITY 9_deprot.scfp WAS UPDATED ****
----------------
ORBITAL ENERGIES
----------------

  NO   OCC          E(Eh)            E(eV) 
   0   2.0000     -14.411553      -392.1583 
   1   2.0000     -14.411518      -392.1574 
   2   2.0000     -10.287004      -279.9236 
   3   2.0000     -10.286832      -279.9189 
   4   2.0000     -10.277157      -279.6557 
   5   2.0000     -10.277152      -279.6555 
   6   2.0000     -10.275316      -279.6056 
   7   2.0000      -1.126514       -30.6540 
   8   2.0000      -1.026991       -27.9458 
   9   2.0000      -0.890101       -24.2209 
  10   2.0000      -0.852725       -23.2038 
  11   2.0000      -0.796638       -21.6776 
  12   2.0000      -0.731429       -19.9032 
  13   2.0000      -0.664675       -18.0867 
  14   2.0000      -0.612515       -16.6674 
  15   2.0000      -0.610505       -16.6127 
  16   2.0000      -0.568665       -15.4742 
  17   2.0000      -0.550091       -14.9687 
  18   2.0000      -0.523678       -14.2500 
  19   2.0000      -0.516158       -14.0454 
  20   2.0000      -0.516136       -14.0448 
  21   2.0000      -0.474962       -12.9244 
  22   2.0000      -0.468419       -12.7463 
  23   2.0000      -0.462286       -12.5794 
  24   2.0000      -0.424480       -11.5507 
  25   2.0000      -0.328322        -8.9341 
  26   2.0000      -0.307721        -8.3735 
  27   0.0000       0.107871         2.9353 
  28   0.0000       0.120977         3.2920 
  29   0.0000       0.137017         3.7284 
  30   0.0000       0.168139         4.5753 
  31   0.0000       0.176593         4.8053 
  32   0.0000       0.186320         5.0700 
  33   0.0000       0.195125         5.3096 
  34   0.0000       0.204653         5.5689 
  35   0.0000       0.206363         5.6154 
  36   0.0000       0.211022         5.7422 
  37   0.0000       0.220105         5.9893 
  38   0.0000       0.222464         6.0536 
  39   0.0000       0.223020         6.0687 
  40   0.0000       0.249604         6.7921 
  41   0.0000       0.260002         7.0750 
  42   0.0000       0.268540         7.3073 
  43   0.0000       0.269074         7.3219 
  44   0.0000       0.305523         8.3137 
  45   0.0000       0.315634         8.5888 
  46   0.0000       0.327248         8.9049 
  47   0.0000       0.352983         9.6052 
  48   0.0000       0.354813         9.6549 
  49   0.0000       0.359575         9.7845 
  50   0.0000       0.367198         9.9920 
  51   0.0000       0.369086        10.0433 
  52   0.0000       0.414451        11.2778 
  53   0.0000       0.429639        11.6911 
  54   0.0000       0.439722        11.9655 
  55   0.0000       0.458385        12.4733 
  56   0.0000       0.466872        12.7042 
  57   0.0000       0.482629        13.1330 
  58   0.0000       0.482974        13.1424 
  59   0.0000       0.503299        13.6954 
  60   0.0000       0.513390        13.9701 
  61   0.0000       0.517952        14.0942 
  62   0.0000       0.549223        14.9451 
  63   0.0000       0.553321        15.0566 
  64   0.0000       0.554830        15.0977 
  65   0.0000       0.568294        15.4641 
  66   0.0000       0.570903        15.5351 
  67   0.0000       0.585218        15.9246 
  68   0.0000       0.587747        15.9934 
  69   0.0000       0.593818        16.1586 
  70   0.0000       0.603486        16.4217 
  71   0.0000       0.636576        17.3221 
  72   0.0000       0.644192        17.5294 
  73   0.0000       0.649327        17.6691 
  74   0.0000       0.664255        18.0753 
  75   0.0000       0.692642        18.8477 
  76   0.0000       0.701302        19.0834 
  77   0.0000       0.714358        19.4387 
  78   0.0000       0.735236        20.0068 
  79   0.0000       0.736892        20.0518 
  80   0.0000       0.763153        20.7665 
  81   0.0000       0.779102        21.2004 
  82   0.0000       0.813574        22.1385 
  83   0.0000       0.839973        22.8568 
  84   0.0000       0.842241        22.9185 
  85   0.0000       0.925028        25.1713 
  86   0.0000       0.934216        25.4213 
  87   0.0000       0.960940        26.1485 
  88   0.0000       0.986490        26.8438 
  89   0.0000       1.018381        27.7115 
  90   0.0000       1.023018        27.8377 
  91   0.0000       1.051419        28.6106 
  92   0.0000       1.065623        28.9971 
  93   0.0000       1.098479        29.8911 
  94   0.0000       1.109017        30.1779 
  95   0.0000       1.129241        30.7282 
  96   0.0000       1.151303        31.3286 
  97   0.0000       1.160621        31.5821 
  98   0.0000       1.167325        31.7645 
  99   0.0000       1.185204        32.2510 
 100   0.0000       1.196823        32.5672 
 101   0.0000       1.219952        33.1966 
 102   0.0000       1.239429        33.7266 
 103   0.0000       1.283466        34.9249 
 104   0.0000       1.303174        35.4612 
 105   0.0000       1.306411        35.5492 
 106   0.0000       1.358518        36.9672 
 107   0.0000       1.457850        39.6701 
 108   0.0000       1.460785        39.7500 
 109   0.0000       1.473404        40.0934 
 110   0.0000       1.526240        41.5311 
 111   0.0000       1.547754        42.1165 
 112   0.0000       1.557444        42.3802 
 113   0.0000       1.586238        43.1637 
 114   0.0000       1.609017        43.7836 
 115   0.0000       1.612458        43.8772 
 116   0.0000       1.629408        44.3384 
 117   0.0000       1.635704        44.5098 
 118   0.0000       1.648167        44.8489 
 119   0.0000       1.669349        45.4253 
 120   0.0000       1.682895        45.7939 
 121   0.0000       1.691801        46.0363 
 122   0.0000       1.695930        46.1486 
 123   0.0000       1.723470        46.8980 
 124   0.0000       1.723772        46.9062 
 125   0.0000       1.732174        47.1348 
 126   0.0000       1.750904        47.6445 
 127   0.0000       1.756003        47.7833 
 128   0.0000       1.763871        47.9974 
 129   0.0000       1.774337        48.2822 
 130   0.0000       1.776296        48.3355 
 131   0.0000       1.825716        49.6803 
 132   0.0000       1.862876        50.6914 
 133   0.0000       1.901142        51.7327 
 134   0.0000       1.963221        53.4220 
 135   0.0000       1.964774        53.4642 
 136   0.0000       1.981965        53.9320 
 137   0.0000       1.998408        54.3794 
 138   0.0000       2.067372        56.2561 
 139   0.0000       2.078779        56.5664 
 140   0.0000       2.090783        56.8931 
 141   0.0000       2.108277        57.3691 
 142   0.0000       2.126354        57.8610 
 143   0.0000       2.176266        59.2192 
 144   0.0000       2.176513        59.2259 
 145   0.0000       2.213678        60.2372 
 146   0.0000       2.258003        61.4434 
 147   0.0000       2.270140        61.7736 
 148   0.0000       2.317446        63.0609 
 149   0.0000       2.342486        63.7423 
 150   0.0000       2.343272        63.7637 
 151   0.0000       2.360829        64.2414 
 152   0.0000       2.377361        64.6913 
 153   0.0000       2.395926        65.1964 
 154   0.0000       2.439610        66.3852 
 155   0.0000       2.440176        66.4006 
 156   0.0000       2.458464        66.8982 
 157   0.0000       2.463871        67.0453 
 158   0.0000       2.483552        67.5809 
 159   0.0000       2.508426        68.2577 
 160   0.0000       2.521098        68.6026 
 161   0.0000       2.558717        69.6262 
 162   0.0000       2.562912        69.7404 
 163   0.0000       2.585343        70.3508 
 164   0.0000       2.590027        70.4782 
 165   0.0000       2.630508        71.5798 
 166   0.0000       2.649045        72.0842 
 167   0.0000       2.660415        72.3936 
 168   0.0000       2.675136        72.7942 
 169   0.0000       2.684761        73.0561 
 170   0.0000       2.690819        73.2209 
 171   0.0000       2.734748        74.4163 
 172   0.0000       2.737856        74.5009 
 173   0.0000       2.749296        74.8121 
 174   0.0000       2.790854        75.9430 
 175   0.0000       2.817215        76.6603 
 176   0.0000       2.827367        76.9366 
 177   0.0000       2.860785        77.8459 
 178   0.0000       2.938799        79.9688 
 179   0.0000       2.976505        80.9948 
 180   0.0000       2.995074        81.5001 
 181   0.0000       3.013085        81.9902 
 182   0.0000       3.025460        82.3270 
 183   0.0000       3.091680        84.1289 
 184   0.0000       3.105554        84.5064 
 185   0.0000       3.112029        84.6826 
 186   0.0000       3.136359        85.3447 
 187   0.0000       3.153104        85.8003 
 188   0.0000       3.177208        86.4562 
 189   0.0000       3.178345        86.4872 
 190   0.0000       3.183973        86.6403 
 191   0.0000       3.199871        87.0729 
 192   0.0000       3.226948        87.8097 
 193   0.0000       3.232546        87.9621 
 194   0.0000       3.272771        89.0566 
 195   0.0000       3.287895        89.4682 
 196   0.0000       3.305416        89.9449 
 197   0.0000       3.307557        90.0032 
 198   0.0000       3.342466        90.9531 
 199   0.0000       3.354693        91.2858 
 200   0.0000       3.377782        91.9141 
 201   0.0000       3.394003        92.3555 
 202   0.0000       3.424218        93.1777 
 203   0.0000       3.427327        93.2623 
 204   0.0000       3.436213        93.5041 
 205   0.0000       3.461638        94.1960 
 206   0.0000       3.484837        94.8272 
 207   0.0000       3.531998        96.1105 
 208   0.0000       3.554326        96.7181 
 209   0.0000       3.591581        97.7319 
 210   0.0000       3.591959        97.7422 
 211   0.0000       3.614187        98.3470 
 212   0.0000       3.635456        98.9258 
 213   0.0000       3.663713        99.6947 
 214   0.0000       3.676337       100.0382 
 215   0.0000       3.705010       100.8184 
 216   0.0000       3.715415       101.1016 
 217   0.0000       3.756995       102.2330 
 218   0.0000       3.790371       103.1413 
 219   0.0000       3.811560       103.7178 
 220   0.0000       3.821011       103.9750 
 221   0.0000       3.821772       103.9957 
 222   0.0000       3.892977       105.9333 
 223   0.0000       3.898631       106.0871 
 224   0.0000       3.923890       106.7745 
 225   0.0000       3.964540       107.8806 
 226   0.0000       3.983068       108.3848 
 227   0.0000       4.019993       109.3896 
 228   0.0000       4.109399       111.8224 
 229   0.0000       4.117274       112.0367 
 230   0.0000       4.145199       112.7966 
 231   0.0000       4.197774       114.2272 
 232   0.0000       4.219023       114.8054 
 233   0.0000       4.264507       116.0431 
 234   0.0000       4.299958       117.0078 
 235   0.0000       4.302581       117.0792 
 236   0.0000       4.363115       118.7264 
 237   0.0000       4.379154       119.1628 
 238   0.0000       4.449233       121.0698 
 239   0.0000       4.462264       121.4244 
 240   0.0000       4.485199       122.0485 
 241   0.0000       4.540961       123.5658 
 242   0.0000       4.559563       124.0720 
 243   0.0000       4.594616       125.0259 
 244   0.0000       4.814040       130.9967 
 245   0.0000       4.894153       133.1767 
 246   0.0000       4.954779       134.8264 
 247   0.0000       5.006243       136.2268 
 248   0.0000       5.034956       137.0081 
 249   0.0000       5.057484       137.6211 
 250   0.0000       5.129169       139.5718 
 251   0.0000       5.153800       140.2420 
 252   0.0000       5.211718       141.8181 
 253   0.0000       5.266265       143.3024 
 254   0.0000       5.279216       143.6548 
 255   0.0000       5.328785       145.0036 
 256   0.0000       5.340150       145.3129 
 257   0.0000       5.347991       145.5262 
 258   0.0000       5.404207       147.0559 
 259   0.0000       5.444335       148.1479 
 260   0.0000       5.445644       148.1835 
 261   0.0000       5.556532       151.2009 
 262   0.0000       5.633072       153.2837 
 263   0.0000       5.757171       156.6606 
 264   0.0000       5.803471       157.9205 
 265   0.0000       5.850878       159.2105 
 266   0.0000       5.881312       160.0386 
 267   0.0000       6.002273       163.3302 
 268   0.0000       6.042529       164.4256 
 269   0.0000       6.125264       166.6769 
 270   0.0000      22.393848       609.3676 
 271   0.0000      22.487107       611.9053 
 272   0.0000      22.495480       612.1331 
 273   0.0000      22.581298       614.4684 
 274   0.0000      22.684738       617.2831 
 275   0.0000      32.748604       891.1348 
 276   0.0000      33.015482       898.3969 

                    ********************************
                    * MULLIKEN POPULATION ANALYSIS *
                    ********************************

-----------------------
MULLIKEN ATOMIC CHARGES
-----------------------
   0 C :   -0.143793
   1 C :   -0.143757
   2 N :   -0.111515
   3 N :   -0.111541
   4 C :   -0.275373
   5 H :    0.137764
   6 H :    0.137755
   7 C :   -0.280867
   8 C :   -0.280852
   9 H :    0.136374
  10 H :    0.136373
  11 H :    0.141843
  12 H :    0.141840
  13 H :    0.131865
  14 H :    0.131862
  15 H :    0.126012
  16 H :    0.126012
Sum of atomic charges:    0.0000000

--------------------------------
MULLIKEN REDUCED ORBITAL CHARGES
--------------------------------
  0 C s       :     3.235262  s :     3.235262
      pz      :     0.799244  p :     2.802806
      px      :     1.062812
      py      :     0.940751
      dz2     :     0.016701  d :     0.097879
      dxz     :     0.031108
      dyz     :     0.022845
      dx2y2   :     0.008830
      dxy     :     0.018396
      f0      :     0.002038  f :     0.007846
      f+1     :     0.001790
      f-1     :     0.001301
      f+2     :     0.000789
      f-2     :     0.000333
      f+3     :     0.000777
      f-3     :     0.000817
  1 C s       :     3.235251  s :     3.235251
      pz      :     0.799226  p :     2.802784
      px      :     1.062807
      py      :     0.940751
      dz2     :     0.016699  d :     0.097876
      dxz     :     0.031105
      dyz     :     0.022844
      dx2y2   :     0.008831
      dxy     :     0.018396
      f0      :     0.002038  f :     0.007846
      f+1     :     0.001790
      f-1     :     0.001302
      f+2     :     0.000789
      f-2     :     0.000333
      f+3     :     0.000777
      f-3     :     0.000817
  2 N s       :     3.428721  s :     3.428721
      pz      :     1.017676  p :     3.585428
      px      :     1.537978
      py      :     1.029774
      dz2     :     0.027586  d :     0.092124
      dxz     :     0.009819
      dyz     :     0.026215
      dx2y2   :     0.014495
      dxy     :     0.014009
      f0      :     0.000713  f :     0.005243
      f+1     :     0.000508
      f-1     :     0.001297
      f+2     :     0.000773
      f-2     :     0.000246
      f+3     :     0.000854
      f-3     :     0.000853
  3 N s       :     3.428736  s :     3.428736
      pz      :     1.017671  p :     3.585437
      px      :     1.537976
      py      :     1.029791
      dz2     :     0.027585  d :     0.092125
      dxz     :     0.009818
      dyz     :     0.026217
      dx2y2   :     0.014496
      dxy     :     0.014009
      f0      :     0.000713  f :     0.005243
      f+1     :     0.000508
      f-1     :     0.001297
      f+2     :     0.000773
      f-2     :     0.000246
      f+3     :     0.000854
      f-3     :     0.000853
  4 C s       :     3.628493  s :     3.628493
      pz      :     1.220765  p :     2.506727
      px      :     0.605664
      py      :     0.680298
      dz2     :     0.014536  d :     0.125689
      dxz     :     0.021395
      dyz     :     0.032442
      dx2y2   :     0.011724
      dxy     :     0.045593
      f0      :     0.001259  f :     0.014464
      f+1     :     0.000378
      f-1     :     0.003522
      f+2     :     0.002009
      f-2     :     0.004304
      f+3     :     0.001838
      f-3     :     0.001155
  5 H s       :     0.840519  s :     0.840519
      pz      :     0.006508  p :     0.021717
      px      :     0.009786
      py      :     0.005423
  6 H s       :     0.840528  s :     0.840528
      pz      :     0.006508  p :     0.021717
      px      :     0.009786
      py      :     0.005423
  7 C s       :     3.291404  s :     3.291404
      pz      :     1.060361  p :     2.911708
      px      :     1.069145
      py      :     0.782202
      dz2     :     0.012636  d :     0.072263
      dxz     :     0.003636
      dyz     :     0.012797
      dx2y2   :     0.006479
      dxy     :     0.036716
      f0      :     0.000987  f :     0.005492
      f+1     :     0.000013
      f-1     :     0.000736
      f+2     :     0.000602
      f-2     :     0.000397
      f+3     :     0.001577
      f-3     :     0.001180
  8 C s       :     3.291375  s :     3.291375
      pz      :     1.060363  p :     2.911722
      px      :     1.069145
      py      :     0.782213
      dz2     :     0.012636  d :     0.072263
      dxz     :     0.003636
      dyz     :     0.012797
      dx2y2   :     0.006480
      dxy     :     0.036715
      f0      :     0.000987  f :     0.005492
      f+1     :     0.000013
      f-1     :     0.000736
      f+2     :     0.000602
      f-2     :     0.000396
      f+3     :     0.001577
      f-3     :     0.001180
  9 H s       :     0.842531  s :     0.842531
      pz      :     0.005200  p :     0.021095
      px      :     0.010260
      py      :     0.005635
 10 H s       :     0.842533  s :     0.842533
      pz      :     0.005200  p :     0.021095
      px      :     0.010260
      py      :     0.005635
 11 H s       :     0.836278  s :     0.836278
      pz      :     0.014551  p :     0.021879
      px      :     0.004106
      py      :     0.003222
 12 H s       :     0.836281  s :     0.836281
      pz      :     0.014552  p :     0.021879
      px      :     0.004106
      py      :     0.003222
 13 H s       :     0.847067  s :     0.847067
      pz      :     0.004318  p :     0.021069
      px      :     0.010482
      py      :     0.006268
 14 H s       :     0.847070  s :     0.847070
      pz      :     0.004318  p :     0.021069
      px      :     0.010482
      py      :     0.006268
 15 H s       :     0.852190  s :     0.852190
      pz      :     0.005016  p :     0.021799
      px      :     0.011269
      py      :     0.005513
 16 H s       :     0.852189  s :     0.852189
      pz      :     0.005016  p :     0.021799
      px      :     0.011269
      py      :     0.005513


                     *******************************
                     * LOEWDIN POPULATION ANALYSIS *
                     *******************************

----------------------
LOEWDIN ATOMIC CHARGES
----------------------
   0 C :   -0.236161
   1 C :   -0.236161
   2 N :    0.119198
   3 N :    0.119198
   4 C :   -0.421891
   5 H :    0.136716
   6 H :    0.136715
   7 C :   -0.302796
   8 C :   -0.302796
   9 H :    0.118647
  10 H :    0.118647
  11 H :    0.124043
  12 H :    0.124043
  13 H :    0.116786
  14 H :    0.116786
  15 H :    0.134512
  16 H :    0.134512

-------------------------------
LOEWDIN REDUCED ORBITAL CHARGES
-------------------------------
  0 C s       :     2.787063  s :     2.787063
      pz      :     0.889581  p :     2.961956
      px      :     1.054739
      py      :     1.017637
      dz2     :     0.094392  d :     0.432474
      dxz     :     0.114648
      dyz     :     0.088321
      dx2y2   :     0.058847
      dxy     :     0.076267
      f0      :     0.014311  f :     0.054668
      f+1     :     0.009748
      f-1     :     0.010513
      f+2     :     0.005259
      f-2     :     0.005155
      f+3     :     0.005379
      f-3     :     0.004302
  1 C s       :     2.787063  s :     2.787063
      pz      :     0.889581  p :     2.961956
      px      :     1.054739
      py      :     1.017637
      dz2     :     0.094392  d :     0.432473
      dxz     :     0.114647
      dyz     :     0.088320
      dx2y2   :     0.058847
      dxy     :     0.076267
      f0      :     0.014311  f :     0.054668
      f+1     :     0.009748
      f-1     :     0.010513
      f+2     :     0.005259
      f-2     :     0.005155
      f+3     :     0.005379
      f-3     :     0.004302
  2 N s       :     2.886373  s :     2.886373
      pz      :     1.145562  p :     3.652023
      px      :     1.342221
      py      :     1.164241
      dz2     :     0.098098  d :     0.320491
      dxz     :     0.032792
      dyz     :     0.102369
      dx2y2   :     0.045845
      dxy     :     0.041386
      f0      :     0.002622  f :     0.021915
      f+1     :     0.002031
      f-1     :     0.007802
      f+2     :     0.002880
      f-2     :     0.001615
      f+3     :     0.002547
      f-3     :     0.002418
  3 N s       :     2.886373  s :     2.886373
      pz      :     1.145562  p :     3.652023
      px      :     1.342220
      py      :     1.164241
      dz2     :     0.098098  d :     0.320491
      dxz     :     0.032792
      dyz     :     0.102369
      dx2y2   :     0.045845
      dxy     :     0.041386
      f0      :     0.002622  f :     0.021915
      f+1     :     0.002031
      f-1     :     0.007802
      f+2     :     0.002881
      f-2     :     0.001615
      f+3     :     0.002547
      f-3     :     0.002418
  4 C s       :     3.026056  s :     3.026056
      pz      :     1.325199  p :     2.806869
      px      :     0.626731
      py      :     0.854939
      dz2     :     0.074582  d :     0.496178
      dxz     :     0.037154
      dyz     :     0.144429
      dx2y2   :     0.090195
      dxy     :     0.149818
      f0      :     0.009337  f :     0.092788
      f+1     :     0.001235
      f-1     :     0.027268
      f+2     :     0.015112
      f-2     :     0.026162
      f+3     :     0.006916
      f-3     :     0.006759
  5 H s       :     0.805045  s :     0.805045
      pz      :     0.016626  p :     0.058239
      px      :     0.026945
      py      :     0.014668
  6 H s       :     0.805045  s :     0.805045
      pz      :     0.016626  p :     0.058239
      px      :     0.026945
      py      :     0.014668
  7 C s       :     2.837143  s :     2.837143
      pz      :     1.078081  p :     3.095940
      px      :     1.091956
      py      :     0.925903
      dz2     :     0.069262  d :     0.329492
      dxz     :     0.015332
      dyz     :     0.057447
      dx2y2   :     0.053470
      dxy     :     0.133982
      f0      :     0.004912  f :     0.040221
      f+1     :     0.000635
      f-1     :     0.005413
      f+2     :     0.007382
      f-2     :     0.006112
      f+3     :     0.008512
      f-3     :     0.007256
  8 C s       :     2.837143  s :     2.837143
      pz      :     1.078081  p :     3.095941
      px      :     1.091956
      py      :     0.925903
      dz2     :     0.069262  d :     0.329492
      dxz     :     0.015331
      dyz     :     0.057447
      dx2y2   :     0.053470
      dxy     :     0.133981
      f0      :     0.004912  f :     0.040221
      f+1     :     0.000635
      f-1     :     0.005413
      f+2     :     0.007382
      f-2     :     0.006112
      f+3     :     0.008511
      f-3     :     0.007256
  9 H s       :     0.822171  s :     0.822171
      pz      :     0.016292  p :     0.059181
      px      :     0.028228
      py      :     0.014662
 10 H s       :     0.822172  s :     0.822172
      pz      :     0.016292  p :     0.059182
      px      :     0.028228
      py      :     0.014661
 11 H s       :     0.815745  s :     0.815745
      pz      :     0.037811  p :     0.060212
      px      :     0.013071
      py      :     0.009330
 12 H s       :     0.815745  s :     0.815745
      pz      :     0.037811  p :     0.060212
      px      :     0.013071
      py      :     0.009330
 13 H s       :     0.824019  s :     0.824019
      pz      :     0.013955  p :     0.059194
      px      :     0.028976
      py      :     0.016263
 14 H s       :     0.824019  s :     0.824019
      pz      :     0.013955  p :     0.059194
      px      :     0.028976
      py      :     0.016263
 15 H s       :     0.807552  s :     0.807552
      pz      :     0.013287  p :     0.057935
      px      :     0.029912
      py      :     0.014737
 16 H s       :     0.807552  s :     0.807552
      pz      :     0.013287  p :     0.057935
      px      :     0.029912
      py      :     0.014737


                      *****************************
                      * MAYER POPULATION ANALYSIS *
                      *****************************

  NA   - Mulliken gross atomic population
  ZA   - Total nuclear charge
  QA   - Mulliken gross atomic charge
  VA   - Mayer's total valence
  BVA  - Mayer's bonded valence
  FA   - Mayer's free valence

  ATOM       NA         ZA         QA         VA         BVA        FA
  0 C      6.1438     6.0000    -0.1438     3.9064     3.9064    -0.0000
  1 C      6.1438     6.0000    -0.1438     3.9064     3.9064     0.0000
  2 N      7.1115     7.0000    -0.1115     3.0619     3.0619    -0.0000
  3 N      7.1115     7.0000    -0.1115     3.0620     3.0620     0.0000
  4 C      6.2754     6.0000    -0.2754     2.6756     2.6756     0.0000
  5 H      0.8622     1.0000     0.1378     0.9628     0.9628    -0.0000
  6 H      0.8622     1.0000     0.1378     0.9628     0.9628     0.0000
  7 C      6.2809     6.0000    -0.2809     3.8402     3.8402    -0.0000
  8 C      6.2809     6.0000    -0.2809     3.8402     3.8402     0.0000
  9 H      0.8636     1.0000     0.1364     0.9562     0.9562    -0.0000
 10 H      0.8636     1.0000     0.1364     0.9562     0.9562     0.0000
 11 H      0.8582     1.0000     0.1418     0.9777     0.9777    -0.0000
 12 H      0.8582     1.0000     0.1418     0.9777     0.9777     0.0000
 13 H      0.8681     1.0000     0.1319     0.9578     0.9578     0.0000
 14 H      0.8681     1.0000     0.1319     0.9578     0.9578    -0.0000
 15 H      0.8740     1.0000     0.1260     0.9637     0.9637    -0.0000
 16 H      0.8740     1.0000     0.1260     0.9637     0.9637    -0.0000

  Mayer bond orders larger than 0.100000
B(  0-C ,  1-C ) :   1.0119 B(  0-C ,  2-N ) :   0.9130 B(  0-C ,  5-H ) :   0.9709 
B(  0-C , 15-H ) :   0.9628 B(  1-C ,  3-N ) :   0.9130 B(  1-C ,  6-H ) :   0.9709 
B(  1-C , 16-H ) :   0.9628 B(  2-N ,  4-C ) :   1.2486 B(  2-N ,  7-C ) :   0.9204 
B(  3-N ,  4-C ) :   1.2486 B(  3-N ,  8-C ) :   0.9204 B(  7-C ,  9-H ) :   0.9679 
B(  7-C , 11-H ) :   0.9715 B(  7-C , 13-H ) :   0.9686 B(  8-C , 10-H ) :   0.9679 
B(  8-C , 12-H ) :   0.9715 B(  8-C , 14-H ) :   0.9685 

-------
TIMINGS
-------

Total SCF time: 0 days 0 hours 1 min 39 sec 

Total time                  ....      99.576 sec
Sum of individual times     ....      98.597 sec  ( 99.0%)

Fock matrix formation       ....      95.943 sec  ( 96.4%)
  Split-RI-J                ....       4.045 sec  (  4.2% of F)
  Chain of spheres X        ....      74.309 sec  ( 77.5% of F)
  XC integration            ....       9.472 sec  (  9.9% of F)
    Basis function eval.    ....       2.148 sec  ( 22.7% of XC)
    Density eval.           ....       2.239 sec  ( 23.6% of XC)
    XC-Functional eval.     ....       0.807 sec  (  8.5% of XC)
    XC-Potential eval.      ....       3.154 sec  ( 33.3% of XC)
Diagonalization             ....       0.199 sec  (  0.2%)
Density matrix formation    ....       0.013 sec  (  0.0%)
Population analysis         ....       0.041 sec  (  0.0%)
Initial guess               ....       0.820 sec  (  0.8%)
Orbital Transformation      ....       0.000 sec  (  0.0%)
Orbital Orthonormalization  ....       0.000 sec  (  0.0%)
DIIS solution               ....       0.137 sec  (  0.1%)
SOSCF solution              ....       0.119 sec  (  0.1%)
Grid generation             ....       1.325 sec  (  1.3%)

Maximum memory used throughout the entire SCF-calculation: 77.8 MB


-------------------------------------------------------------------------------
                          DFT DISPERSION CORRECTION                            
                                                                               
                                 DFTD4 V2.5                                    
-------------------------------------------------------------------------------
The WB97X functional is recognized
Active option DFTDOPT                   ...         5   

Starting D4
-------------------------   ----------------
Dispersion correction           -0.001938064
-------------------------   ----------------


-------------------------   --------------------
FINAL SINGLE POINT ENERGY      -306.045579488765
-------------------------   --------------------



           ************************************************************
           *        Program running with 4 parallel MPI-processes     *
           *              working on a common directory               *
           ************************************************************
------------------------------------------------------------------------------
                         ORCA SCF GRADIENT CALCULATION
------------------------------------------------------------------------------

 ... reading COSX grid (gridx3)
Gradient of the Kohn-Sham DFT energy:
Kohn-Sham wavefunction type      ... RKS
Hartree-Fock exchange scaling    ...    0.158
Number of operators              ...    1
Number of atoms                  ...   17
Basis set dimensions             ...  277
Integral neglect threshold       ... 2.5e-11
Integral primitive cutoff        ... 2.5e-12
SHARK Integral package           ... ON

Nuc. rep. gradient       (SHARK) ... done (  0.0 sec)
HCore & Overlap gradient (SHARK) ... done (  0.2 sec)
RI-J gradient            (SHARK) ... done (  0.9 sec)
COSX-gradient                    ... done ( 13.9 sec)
Exchange-correlation gradient    ... done
Dispersion correction            ... Starting D4
Starting D4
Starting D4
Starting D4


------------------- 
Dispersion Gradient 
------------------- 
   1  :    0.000000447    0.000013361   -0.000024656
   2  :   -0.000000447   -0.000013361   -0.000024656
   3  :   -0.000001434    0.000013177    0.000000712
   4  :    0.000001433   -0.000013177    0.000000712
   5  :    0.000000000    0.000000000    0.000007581
   6  :    0.000000191    0.000002167   -0.000000454
   7  :   -0.000000191   -0.000002167   -0.000000454
   8  :   -0.000003263    0.000044960    0.000011822
   9  :    0.000003263   -0.000044960    0.000011822
  10  :    0.000000373    0.000006774    0.000003628
  11  :   -0.000000373   -0.000006774    0.000003628
  12  :   -0.000000671    0.000007810    0.000001794
  13  :    0.000000671   -0.000007810    0.000001794
  14  :   -0.000001941    0.000006685    0.000003420
  15  :    0.000001941   -0.000006685    0.000003420
  16  :   -0.000001292    0.000001847   -0.000000058
  17  :    0.000001292   -0.000001847   -0.000000058

  |G| =    0.000071444

done

------------------
CARTESIAN GRADIENT
------------------

   1   C   :   -0.000611785   -0.003494873    0.005041608
   2   C   :    0.000612113    0.003494947    0.005041713
   3   N   :    0.000138637    0.002610238   -0.002965160
   4   N   :   -0.000138831   -0.002610029   -0.002965298
   5   C   :    0.000000273   -0.000000014    0.008149967
   6   H   :   -0.004594960    0.002637968   -0.003766781
   7   H   :    0.004594946   -0.002637853   -0.003766675
   8   C   :    0.000450581   -0.005700483   -0.002302088
   9   C   :   -0.000450240    0.005700533   -0.002301618
  10   H   :   -0.004650925    0.003363097   -0.002142479
  11   H   :    0.004650946   -0.003362938   -0.002142434
  12   H   :   -0.000491594    0.000122360    0.006134848
  13   H   :    0.000491578   -0.000122337    0.006134557
  14   H   :    0.004643278    0.003584757   -0.001210276
  15   H   :   -0.004643645   -0.003585193   -0.001210449
  16   H   :    0.005072162    0.002697030   -0.002775315
  17   H   :   -0.005072438   -0.002697148   -0.002775357

Difference to translation invariance:
           :    0.0000000947    0.0000000641    0.0001787637

Difference to rotation invariance:
           :    0.0000001228    0.0000003424   -0.0020833386

Norm of the cartesian gradient     ...    0.0252628809
RMS gradient                       ...    0.0035375109
MAX gradient                       ...    0.0081499669

-------
TIMINGS
-------

Total SCF gradient time            ...       18.843 sec

One electron gradient       ....       0.180 sec  (  1.0%)
RI-J Coulomb gradient       ....       0.929 sec  (  4.9%)
COSX gradient               ....      13.866 sec  ( 73.6%)
XC gradient                 ....       2.291 sec  ( 12.2%)
CPCM gradient               ....       0.390 sec  (  2.1%)
   A-Matrix (El+Nuc)        ....       0.047 sec  (  0.2%)
   Potential                ....       0.344 sec  (  1.8%)

Maximum memory used throughout the entire SCFGRAD-calculation: 50.2 MB
------------------------------------------------------------------------------
                         ORCA GEOMETRY RELAXATION STEP
------------------------------------------------------------------------------

Reading the OPT-File                    .... done
Getting information on internals        .... done
Copying old internal coords+grads       .... done
Making the new internal coordinates     .... (new redundants).... done
Validating the new internal coordinates .... (new redundants).... done
Calculating the B-matrix                .... done
Calculating the G,G- and P matrices     .... done
Transforming gradient to internals      .... done
Projecting the internal gradient        .... done
Number of atoms                         ....  17
Number of internal coordinates          ....  85
Current Energy                          ....  -306.045579489 Eh
Current gradient norm                   ....     0.025262881 Eh/bohr
Maximum allowed component of the step   ....  0.300
Current trust radius                    ....  0.300
Evaluating the initial hessian          ....  (Almloef) done
Projecting the Hessian                  .... done
[...]
     26       0.020323   0.010514  -0.006309   0.001272  -0.005598   0.004681
     27       0.319795  -0.155666  -0.124549  -0.179857  -0.190332   0.277675
     28       0.285517  -0.180125  -0.160547  -0.292026  -0.314217  -0.156585
     29      -0.174945   0.071729   0.058992   0.027770  -0.006637   0.147866
     30      -0.319796  -0.155672   0.124555   0.179867  -0.190331   0.277668
     31      -0.285504  -0.180126   0.160551   0.292036  -0.314209  -0.156583
     32      -0.174951  -0.071733   0.058995   0.027770   0.006637  -0.147864
     33       0.017362   0.019605   0.023574   0.020278   0.003584   0.031240
     34      -0.029423   0.085082   0.123568   0.123810   0.050036  -0.001969
     35       0.012341  -0.005711  -0.003444   0.003966   0.010544  -0.231275
     36      -0.017379   0.019603  -0.023575  -0.020280   0.003584   0.031242
     37       0.029418   0.085083  -0.123571  -0.123813   0.050032  -0.001970
     38       0.012343   0.005712  -0.003444   0.003966  -0.010544   0.231274
     39      -0.275906   0.135552   0.106083   0.169277   0.194096  -0.477134
     40       0.293179  -0.160281  -0.132017  -0.257002  -0.311482  -0.269014
     41      -0.218391   0.132882   0.121170   0.100919   0.039896   0.131835
     42       0.275897   0.135552  -0.106084  -0.169281   0.194090  -0.477140
     43      -0.293178  -0.160284   0.132021   0.257010  -0.311477  -0.269012
     44      -0.218375  -0.132884   0.121175   0.100924  -0.039896  -0.131832
     45      -0.048504  -0.224032  -0.239487   0.143048   0.113041  -0.047179
     46       0.123200   0.230431   0.264509  -0.062989   0.000318  -0.018292
     47       0.055139  -0.283717  -0.261120   0.305804   0.296459   0.018643
     48       0.048507  -0.224029   0.239486  -0.143052   0.113039  -0.047178
     49      -0.123204   0.230428  -0.264509   0.062990   0.000318  -0.018291
     50       0.055136   0.283716  -0.261120   0.305813  -0.296453  -0.018642
                 42         43         44         45         46         47    
      0       0.002562   0.028136   0.038913   0.006597  -0.005328   0.053764
      1       0.002882   0.029429   0.028380  -0.004416   0.002302  -0.019141
      2      -0.002366  -0.029182  -0.023881   0.005366  -0.003287   0.026213
      3      -0.002562   0.028136  -0.038913  -0.006455  -0.005500  -0.053760
      4      -0.002882   0.029428  -0.028381   0.004354   0.002417   0.019141
      5      -0.002366   0.029181  -0.023881   0.005278   0.003427   0.026212
      6      -0.000065  -0.000105  -0.000114  -0.000256   0.000180  -0.000295
      7      -0.000634   0.000275   0.000118   0.000048   0.000010  -0.000551
      8       0.000050  -0.001793  -0.001276   0.000073  -0.000182  -0.000000
      9       0.000065  -0.000105   0.000114   0.000251   0.000187   0.000295
     10       0.000634   0.000275  -0.000118  -0.000048   0.000009   0.000551
     11       0.000050   0.001793  -0.001276   0.000068   0.000184  -0.000000
     12      -0.000000   0.000514  -0.000000   0.000007  -0.000502   0.000000
     13       0.000000  -0.002224   0.000000   0.000009  -0.000662   0.000000
     14      -0.000896   0.000000   0.001185  -0.000261  -0.000003  -0.000774
     15       0.020979   0.224746   0.133268  -0.085530   0.057395  -0.502804
     16      -0.010138  -0.107143  -0.059421   0.044877  -0.029859   0.270235
     17       0.012600   0.152415   0.083268  -0.063497   0.043464  -0.365135
     18      -0.020979   0.224741  -0.133274   0.083989   0.059621   0.502774
     19       0.010138  -0.107141   0.059424  -0.044076  -0.031027  -0.270219
     20       0.012600  -0.152412   0.083272  -0.062330  -0.045117  -0.365113
     21      -0.014057   0.000911   0.004139   0.064244  -0.063144  -0.010290
     22      -0.035136  -0.003081   0.003083  -0.006974   0.006573   0.000407
     23       0.004395   0.000081  -0.000410   0.004111  -0.004029  -0.000368
     24       0.014058   0.000911  -0.004139  -0.062560  -0.064813   0.010289
     25       0.035136  -0.003081  -0.003083   0.006800   0.006755  -0.000407
     26       0.004394  -0.000081  -0.000410   0.004004   0.004136  -0.000368
     27      -0.277767  -0.035797   0.005056  -0.442280   0.432075   0.063315
     28       0.157516   0.020496  -0.002706   0.270214  -0.263687  -0.036868
     29      -0.147850  -0.020435   0.001161  -0.256052   0.250269   0.038116
     30       0.277760  -0.035796  -0.005057   0.430753   0.443571  -0.063308
     31      -0.157514   0.020496   0.002707  -0.263184  -0.270715   0.036864
     32      -0.147849   0.020435   0.001161  -0.249380  -0.256929   0.038112
     33      -0.031279  -0.003119   0.002176  -0.001586   0.001304  -0.000730
     34       0.002107  -0.000501  -0.001334   0.001944  -0.001755   0.000572
     35       0.231454   0.025487  -0.013783   0.108618  -0.105226  -0.014346
     36       0.031281  -0.003120  -0.002176   0.001552   0.001347   0.000730
     37      -0.002107  -0.000501   0.001334  -0.001898  -0.001805  -0.000572
     38       0.231454  -0.025487  -0.013782   0.105818   0.108058  -0.014345
     39       0.475846   0.028431  -0.057657  -0.321023   0.318041   0.058577
     40       0.269153   0.013633  -0.036433  -0.191491   0.189790   0.034061
     41      -0.131346  -0.008868   0.014943   0.098492  -0.097415  -0.017773
     42      -0.475853   0.028433   0.057656   0.312539   0.326382  -0.058570
     43      -0.269152   0.013634   0.036431   0.186425   0.194762  -0.034056
     44      -0.131344   0.008868   0.014942   0.095891   0.099972  -0.017770
     45      -0.050845  -0.561979  -0.596837   0.008101   0.007539  -0.133059
     46      -0.022179  -0.231012  -0.247996   0.002826   0.003474  -0.063775
     47       0.015623   0.198059   0.214527   0.000107  -0.005274   0.055789
     48       0.050845  -0.561965   0.596852  -0.008297   0.007324   0.133041
     49       0.022179  -0.231006   0.248001  -0.002917   0.003399   0.063767
     50       0.015623  -0.198053   0.214532  -0.000032   0.005275   0.055783
                 48         49         50    
      0       0.060279   0.000164  -0.000048
      1      -0.012651  -0.000046  -0.000117
      2       0.021452   0.000597   0.000445
      3       0.060282   0.000162   0.000056
      4      -0.012653  -0.000052   0.000114
      5      -0.021453  -0.000619   0.000413
      6      -0.000236   0.000061   0.000095
      7       0.000049   0.000474   0.000620
      8       0.000245  -0.000598  -0.000389
      9      -0.000236   0.000065  -0.000092
     10       0.000049   0.000505  -0.000595
     11      -0.000245   0.000617  -0.000357
     12       0.000334  -0.000119  -0.000003
     13       0.000574   0.000316   0.000008
     14       0.000000  -0.000003   0.000128
     15      -0.474788  -0.004042  -0.001986
     16       0.255530   0.002458   0.001589
     17      -0.345903  -0.002619  -0.000429
     18      -0.474820  -0.004138   0.001775
     19       0.255548   0.002537  -0.001460
     20       0.345928   0.002638  -0.000293
     21      -0.007188   0.002294   0.002413
     22       0.000236   0.010679   0.011242
     23       0.000057  -0.062249  -0.065525
     24      -0.007188   0.002415  -0.002292
     25       0.000236   0.011241  -0.010681
     26      -0.000057   0.065523  -0.062251
     27       0.043597   0.160735   0.168961
     28      -0.025244  -0.090760  -0.095303
     29       0.026585   0.081608   0.085742
     30       0.043601   0.169179  -0.160510
     31      -0.025247  -0.095525   0.090533
     32      -0.026588  -0.085895   0.081453
     33      -0.000303  -0.077516  -0.081577
     34       0.000198   0.010772   0.011303
     35      -0.012996   0.638385   0.672040
     36      -0.000303  -0.081597   0.077504
     37       0.000198   0.011337  -0.010737
     38       0.012996  -0.671961   0.638465
     39       0.041712  -0.109964  -0.115932
     40       0.023295  -0.058475  -0.061715
     41      -0.013003   0.021527   0.022717
     42       0.041715  -0.115756   0.110147
     43       0.023297  -0.061557   0.058638
     44       0.013004  -0.022661   0.021584
     45      -0.241540   0.001344   0.001665
     46      -0.109939   0.000871   0.001233
     47       0.094870  -0.000090  -0.000064
     48      -0.241549   0.001427  -0.001594
     49      -0.109943   0.000933  -0.001187
     50      -0.094873   0.000094  -0.000059


-----------
IR SPECTRUM
-----------

 Mode   freq       eps      Int      T**2         TX        TY        TZ
       cm**-1   L/(mol*cm) km/mol    a.u.
----------------------------------------------------------------------------
  6:    116.62   0.003178   16.06  0.008505  ( 0.087003 -0.030584  0.000000)
  7:    121.71   0.000004    0.02  0.000010  ( 0.000020 -0.000008 -0.003158)
  8:    168.62   0.000002    0.01  0.000003  ( 0.000001 -0.000001  0.001771)
  9:    202.62   0.003291   16.63  0.005068  (-0.070750  0.007897  0.000000)
 10:    230.96   0.000036    0.18  0.000049  ( 0.000001  0.000000  0.006995)
 11:    294.21   0.000414    2.09  0.000439  (-0.000000 -0.000000  0.020950)
 12:    422.53   0.001911    9.66  0.001411  (-0.009439  0.036358 -0.000000)
 13:    467.71   0.002849   14.40  0.001901  ( 0.009403  0.042575  0.000000)
 14:    617.87   0.000085    0.43  0.000043  ( 0.000000 -0.000000 -0.006564)
 15:    648.63   0.007432   37.56  0.003575  (-0.002311  0.059751 -0.000000)
 16:    848.52   0.000254    1.28  0.000093  ( 0.004594  0.008498 -0.000000)
 17:    928.78   0.003311   16.73  0.001113  (-0.000000  0.000000 -0.033356)
 18:    962.57   0.000491    2.48  0.000159  (-0.011283  0.005637  0.000000)
 19:   1019.90   0.000027    0.14  0.000008  ( 0.000000 -0.000000 -0.002863)
 20:   1096.31   0.009701   49.03  0.002761  ( 0.011660 -0.051239  0.000000)
 21:   1100.04   0.001018    5.15  0.000289  ( 0.000000 -0.000001 -0.016998)
 22:   1112.61   0.000006    0.03  0.000002  ( 0.000000 -0.000000 -0.001311)
 23:   1153.70   0.001322    6.68  0.000358  (-0.000407 -0.018906  0.000000)
 24:   1172.20   0.000002    0.01  0.000001  (-0.000000  0.000001  0.000796)
 25:   1208.40   0.003128   15.81  0.000808  (-0.028375  0.001615  0.000000)
 26:   1246.47   0.000354    1.79  0.000089  (-0.000000  0.000000 -0.009414)
 27:   1256.04   0.015521   78.43  0.003856  ( 0.014519 -0.060376  0.000000)
 28:   1324.75   0.030857  155.94  0.007269  ( 0.004917 -0.085116  0.000000)
 29:   1337.21   0.000277    1.40  0.000065  ( 0.000000  0.000000 -0.008047)
 30:   1353.80   0.004991   25.22  0.001151  (-0.000000  0.000000  0.033919)
 31:   1439.56   0.024892  125.79  0.005396  (-0.002016  0.073430 -0.000000)
 32:   1454.74   0.000801    4.05  0.000172  ( 0.000000  0.000001  0.013105)
 33:   1472.96   0.011024   55.71  0.002335  ( 0.038434 -0.029297 -0.000000)
 34:   1473.67   0.000115    0.58  0.000024  ( 0.000001  0.000000 -0.004934)
 35:   1481.10   0.016699   84.39  0.003519  (-0.003234 -0.059229 -0.000000)
 36:   1486.11   0.002627   13.28  0.000552  (-0.000000  0.000000 -0.023486)
 37:   1506.11   0.000015    0.08  0.000003  ( 0.001759 -0.000226 -0.000000)
 38:   1517.59   0.001048    5.30  0.000215  ( 0.000000 -0.000000  0.014679)
 39:   1543.88   0.003056   15.44  0.000618  ( 0.000000  0.000001  0.024853)
 40:   1554.89   0.050946  257.46  0.010225  ( 0.004584 -0.101014  0.000000)
 41:   3041.01   0.045458  229.72  0.004665  ( 0.012868  0.067076 -0.000000)
 42:   3043.58   0.000096    0.48  0.000010  ( 0.000000  0.000000 -0.003134)
 43:   3054.51   0.013984   70.67  0.001429  ( 0.025750  0.027670 -0.000000)
 44:   3057.28   0.010818   54.67  0.001104  (-0.000000 -0.000000 -0.033230)
 45:   3104.05   0.000545    2.75  0.000055  ( 0.000617 -0.000125  0.007376)
 46:   3104.08   0.022712  114.78  0.002283  (-0.046818  0.009562  0.000097)
 47:   3118.73   0.004292   21.69  0.000429  ( 0.000001 -0.000000  0.020722)
 48:   3128.95   0.008079   40.83  0.000806  ( 0.027504 -0.007023 -0.000001)
 49:   3174.25   0.000290    1.47  0.000029  ( 0.001834  0.004974  0.000660)
 50:   3174.26   0.006755   34.14  0.000664  ( 0.000047  0.000127 -0.025770)

* The epsilon (eps) is given for a Dirac delta lineshape.
** The dipole moment derivative (T) already includes vibrational overlap.

The first frequency considered to be a vibration is 6
The total number of vibrations considered is 45


--------------------------
THERMOCHEMISTRY AT 298.15K
--------------------------

Temperature         ... 298.15 K
Pressure            ... 1.00 atm
Total Mass          ... 98.15 AMU

Throughout the following assumptions are being made:
  (1) The electronic state is orbitally nondegenerate
  (2) There are no thermally accessible electronically excited states
  (3) Hindered rotations indicated by low frequency modes are not
      treated as such but are treated as vibrations and this may
      cause some error
  (4) All equations used are the standard statistical mechanics
      equations for an ideal gas
  (5) All vibrations are strictly harmonic

freq.     116.62  E(vib)   ...       0.44 
freq.     121.71  E(vib)   ...       0.44 
freq.     168.62  E(vib)   ...       0.38 
freq.     202.62  E(vib)   ...       0.35 
freq.     230.96  E(vib)   ...       0.32 
freq.     294.21  E(vib)   ...       0.27 
freq.     422.53  E(vib)   ...       0.18 
freq.     467.71  E(vib)   ...       0.16 
freq.     617.87  E(vib)   ...       0.09 
freq.     648.63  E(vib)   ...       0.08 
freq.     848.52  E(vib)   ...       0.04 
freq.     928.78  E(vib)   ...       0.03 
freq.     962.57  E(vib)   ...       0.03 
freq.    1019.90  E(vib)   ...       0.02 
freq.    1096.31  E(vib)   ...       0.02 
freq.    1100.04  E(vib)   ...       0.02 
freq.    1112.61  E(vib)   ...       0.01 
freq.    1153.70  E(vib)   ...       0.01 
freq.    1172.20  E(vib)   ...       0.01 
freq.    1208.40  E(vib)   ...       0.01 
freq.    1246.47  E(vib)   ...       0.01 
freq.    1256.04  E(vib)   ...       0.01 
freq.    1324.75  E(vib)   ...       0.01 
freq.    1337.21  E(vib)   ...       0.01 
freq.    1353.80  E(vib)   ...       0.01 
freq.    1439.56  E(vib)   ...       0.00 
freq.    1454.74  E(vib)   ...       0.00 
freq.    1472.96  E(vib)   ...       0.00 
freq.    1473.67  E(vib)   ...       0.00 
freq.    1481.10  E(vib)   ...       0.00 
freq.    1486.11  E(vib)   ...       0.00 
freq.    1506.11  E(vib)   ...       0.00 
freq.    1517.59  E(vib)   ...       0.00 
freq.    1543.88  E(vib)   ...       0.00 
freq.    1554.89  E(vib)   ...       0.00 
freq.    3041.01  E(vib)   ...       0.00 
freq.    3043.58  E(vib)   ...       0.00 
freq.    3054.51  E(vib)   ...       0.00 
freq.    3057.28  E(vib)   ...       0.00 
freq.    3104.05  E(vib)   ...       0.00 
freq.    3104.08  E(vib)   ...       0.00 
freq.    3118.73  E(vib)   ...       0.00 
freq.    3128.95  E(vib)   ...       0.00 
freq.    3174.25  E(vib)   ...       0.00 
freq.    3174.26  E(vib)   ...       0.00 

------------
INNER ENERGY
------------

The inner energy is: U= E(el) + E(ZPE) + E(vib) + E(rot) + E(trans)
    E(el)   - is the total energy from the electronic structure calculation
              = E(kin-el) + E(nuc-el) + E(el-el) + E(nuc-nuc)
    E(ZPE)  - the the zero temperature vibrational energy from the frequency calculation
    E(vib)  - the the finite temperature correction to E(ZPE) due to population
              of excited vibrational states
    E(rot)  - is the rotational thermal energy
    E(trans)- is the translational thermal energy

Summary of contributions to the inner energy U:
Electronic energy                ...   -306.04629833 Eh
Zero point energy                ...      0.15114303 Eh      94.84 kcal/mol
Thermal vibrational correction   ...      0.00475629 Eh       2.98 kcal/mol
Thermal rotational correction    ...      0.00141627 Eh       0.89 kcal/mol
Thermal translational correction ...      0.00141627 Eh       0.89 kcal/mol
-----------------------------------------------------------------------
Total thermal energy                   -305.88756646 Eh


Summary of corrections to the electronic energy:
(perhaps to be used in another calculation)
Total thermal correction                  0.00758883 Eh       4.76 kcal/mol
Non-thermal (ZPE) correction              0.15114303 Eh      94.84 kcal/mol
-----------------------------------------------------------------------
Total correction                          0.15873187 Eh      99.61 kcal/mol


--------
ENTHALPY
--------

The enthalpy is H = U + kB*T
                kB is Boltzmann's constant
Total free energy                 ...   -305.88756646 Eh 
Thermal Enthalpy correction       ...      0.00094421 Eh       0.59 kcal/mol
-----------------------------------------------------------------------
Total Enthalpy                    ...   -305.88662225 Eh


Note: Rotational entropy computed according to Herzberg 
Infrared and Raman Spectra, Chapter V,1, Van Nostrand Reinhold, 1945 
Point Group:  C2, Symmetry Number:   2  
Rotational constants in cm-1:     0.201727     0.067769     0.052845 

Vibrational entropy computed according to the QRRHO of S. Grimme
Chem.Eur.J. 2012 18 9955


-------
ENTROPY
-------

The entropy contributions are T*S = T*(S(el)+S(vib)+S(rot)+S(trans))
     S(el)   - electronic entropy
     S(vib)  - vibrational entropy
     S(rot)  - rotational entropy
     S(trans)- translational entropy
The entropies will be listed as multiplied by the temperature to get
units of energy

Electronic entropy                ...      0.00000000 Eh      0.00 kcal/mol
Vibrational entropy               ...      0.00822790 Eh      5.16 kcal/mol
Rotational entropy                ...      0.01227092 Eh      7.70 kcal/mol
Translational entropy             ...      0.01884478 Eh     11.83 kcal/mol
-----------------------------------------------------------------------
Final entropy term                ...      0.03934360 Eh     24.69 kcal/mol

In case the symmetry of your molecule has not been determined correctly
or in case you have a reason to use a different symmetry number we print 
out the resulting rotational entropy values for sn=1,12 :
 --------------------------------------------------------
|  sn= 1 | S(rot)=       0.01292538 Eh      8.11 kcal/mol|
|  sn= 2 | S(rot)=       0.01227092 Eh      7.70 kcal/mol|
|  sn= 3 | S(rot)=       0.01188809 Eh      7.46 kcal/mol|
|  sn= 4 | S(rot)=       0.01161647 Eh      7.29 kcal/mol|
|  sn= 5 | S(rot)=       0.01140578 Eh      7.16 kcal/mol|
|  sn= 6 | S(rot)=       0.01123364 Eh      7.05 kcal/mol|
|  sn= 7 | S(rot)=       0.01108809 Eh      6.96 kcal/mol|
|  sn= 8 | S(rot)=       0.01096201 Eh      6.88 kcal/mol|
|  sn= 9 | S(rot)=       0.01085080 Eh      6.81 kcal/mol|
|  sn=10 | S(rot)=       0.01075132 Eh      6.75 kcal/mol|
|  sn=11 | S(rot)=       0.01066133 Eh      6.69 kcal/mol|
|  sn=12 | S(rot)=       0.01057918 Eh      6.64 kcal/mol|
 --------------------------------------------------------


-------------------
GIBBS FREE ENERGY
-------------------

The Gibbs free energy is G = H - T*S

Total enthalpy                    ...   -305.88662225 Eh 
Total entropy correction          ...     -0.03934360 Eh    -24.69 kcal/mol
-----------------------------------------------------------------------
Final Gibbs free energy         ...   -305.92596586 Eh

For completeness - the Gibbs free energy minus the electronic energy
G-E(el)                           ...      0.12033247 Eh     75.51 kcal/mol


Timings for individual modules:

Sum of individual times         ...     1382.093 sec (=  23.035 min)
GTO integral calculation        ...        6.332 sec (=   0.106 min)   0.5 %
SCF iterations                  ...      639.624 sec (=  10.660 min)  46.3 %
SCF Gradient evaluation         ...      172.876 sec (=   2.881 min)  12.5 %
Geometry relaxation             ...        0.403 sec (=   0.007 min)   0.0 %
Analytical frequency calculation...      562.857 sec (=   9.381 min)  40.7 %
                             ****ORCA TERMINATED NORMALLY****
TOTAL RUN TIME: 0 days 0 hours 23 minutes 5 seconds 900 msec
