
                                 *****************
                                 * O   R   C   A *
                                 *****************

                                            #,                                       
                                            ###                                      
                                            ####                                     
                                            #####                                    
                                            ######                                   
                                           ########,                                 
                                     ,,################,,,,,                         
                               ,,#################################,,                 
                          ,,##########################################,,             
                       ,#########################################, ''#####,          
                    ,#############################################,,   '####,        
                  ,##################################################,,,,####,       
                ,###########''''           ''''###############################       
              ,#####''   ,,,,##########,,,,          '''####'''          '####       
            ,##' ,,,,###########################,,,                        '##       
           ' ,,###''''                  '''############,,,                           
         ,,##''                                '''############,,,,        ,,,,,,###''
      ,#''                                            '''#######################'''  
     '                                                          ''''####''''         
             ,#######,   #######,   ,#######,      ##                                
            ,#'     '#,  ##    ##  ,#'     '#,    #''#        ######   ,####,        
            ##       ##  ##   ,#'  ##            #'  '#       #        #'  '#        
            ##       ##  #######   ##           ,######,      #####,   #    #        
            '#,     ,#'  ##    ##  '#,     ,#' ,#      #,         ##   #,  ,#        
             '#######'   ##     ##  '#######'  #'      '#     #####' # '####'        



                  #######################################################
                  #                        -***-                        #
                  #          Department of theory and spectroscopy      #
                  #    Directorship and core code : Frank Neese         #
                  #        Max Planck Institute fuer Kohlenforschung    #
                  #                Kaiser Wilhelm Platz 1               #
                  #                 D-45470 Muelheim/Ruhr               #
                  #                      Germany                        #
                  #                                                     #
                  #                  All rights reserved                #
                  #                        -***-                        #
                  #######################################################


                         Program Version 5.0.4 -  RELEASE  -


 With contributions from (in alphabetic order):
   Daniel Aravena         : Magnetic Suceptibility
   Michael Atanasov       : Ab Initio Ligand Field Theory (pilot matlab implementation)
   Alexander A. Auer      : GIAO ZORA, VPT2 properties, NMR spectrum
   Ute Becker             : Parallelization
   Giovanni Bistoni       : ED, misc. LED, open-shell LED, HFLD
   Martin Brehm           : Molecular dynamics
   Dmytro Bykov           : SCF Hessian
   Vijay G. Chilkuri      : MRCI spin determinant printing, contributions to CSF-ICE
   Dipayan Datta          : RHF DLPNO-CCSD density
   Achintya Kumar Dutta   : EOM-CC, STEOM-CC
   Dmitry Ganyushin       : Spin-Orbit,Spin-Spin,Magnetic field MRCI
   Miquel Garcia          : C-PCM and meta-GGA Hessian, CC/C-PCM, Gaussian charge scheme
   Yang Guo               : DLPNO-NEVPT2, F12-NEVPT2, CIM, IAO-localization
   Andreas Hansen         : Spin unrestricted coupled pair/coupled cluster methods
   Benjamin Helmich-Paris : MC-RPA, TRAH-SCF, COSX integrals
   Lee Huntington         : MR-EOM, pCC
   Robert Izsak           : Overlap fitted RIJCOSX, COSX-SCS-MP3, EOM
   Marcus Kettner         : VPT2
   Christian Kollmar      : KDIIS, OOCD, Brueckner-CCSD(T), CCSD density, CASPT2, CASPT2-K
   Simone Kossmann        : Meta GGA functionals, TD-DFT gradient, OOMP2, MP2 Hessian
   Martin Krupicka        : Initial AUTO-CI
   Lucas Lang             : DCDCAS
   Marvin Lechner         : AUTO-CI (C++ implementation), FIC-MRCC
   Dagmar Lenk            : GEPOL surface, SMD
   Dimitrios Liakos       : Extrapolation schemes; Compound Job, initial MDCI parallelization
   Dimitrios Manganas     : Further ROCIS development; embedding schemes
   Dimitrios Pantazis     : SARC Basis sets
   Anastasios Papadopoulos: AUTO-CI, single reference methods and gradients
   Taras Petrenko         : DFT Hessian,TD-DFT gradient, ASA, ECA, R-Raman, ABS, FL, XAS/XES, NRVS
   Peter Pinski           : DLPNO-MP2, DLPNO-MP2 Gradient
   Christoph Reimann      : Effective Core Potentials
   Marius Retegan         : Local ZFS, SOC
   Christoph Riplinger    : Optimizer, TS searches, QM/MM, DLPNO-CCSD(T), (RO)-DLPNO pert. Triples
   Tobias Risthaus        : Range-separated hybrids, TD-DFT gradient, RPA, STAB
   Michael Roemelt        : Original ROCIS implementation
   Masaaki Saitow         : Open-shell DLPNO-CCSD energy and density
   Barbara Sandhoefer     : DKH picture change effects
   Avijit Sen             : IP-ROCIS
   Kantharuban Sivalingam : CASSCF convergence, NEVPT2, FIC-MRCI
   Bernardo de Souza      : ESD, SOC TD-DFT
   Georgi Stoychev        : AutoAux, RI-MP2 NMR, DLPNO-MP2 response
   Willem Van den Heuvel  : Paramagnetic NMR
   Boris Wezisla          : Elementary symmetry handling
   Frank Wennmohs         : Technical directorship


 We gratefully acknowledge several colleagues who have allowed us to
 interface, adapt or use parts of their codes:
   Stefan Grimme, W. Hujo, H. Kruse, P. Pracht,  : VdW corrections, initial TS optimization,
                  C. Bannwarth, S. Ehlert          DFT functionals, gCP, sTDA/sTD-DF
   Ed Valeev, F. Pavosevic, A. Kumar             : LibInt (2-el integral package), F12 methods
   Garnet Chan, S. Sharma, J. Yang, R. Olivares  : DMRG
   Ulf Ekstrom                                   : XCFun DFT Library
   Mihaly Kallay                                 : mrcc  (arbitrary order and MRCC methods)
   Jiri Pittner, Ondrej Demel                    : Mk-CCSD
   Frank Weinhold                                : gennbo (NPA and NBO analysis)
   Christopher J. Cramer and Donald G. Truhlar   : smd solvation model
   Lars Goerigk                                  : TD-DFT with DH, B97 family of functionals
   V. Asgeirsson, H. Jonsson                     : NEB implementation
   FAccTs GmbH                                   : IRC, NEB, NEB-TS, DLPNO-Multilevel, CI-OPT
                                                   MM, QMMM, 2- and 3-layer-ONIOM, Crystal-QMMM,
                                                   LR-CPCM, SF, NACMEs, symmetry and pop. for TD-DFT,
                                                   nearIR, NL-DFT gradient (VV10), updates on ESD,
                                                   ML-optimized integration grids
   S Lehtola, MJT Oliveira, MAL Marques          : LibXC Library
   Liviu Ungur et al                             : ANISO software


 Your calculation uses the libint2 library for the computation of 2-el integrals
 For citations please refer to: http://libint.valeyev.net

 Your ORCA version has been built with support for libXC version: 5.1.0
 For citations please refer to: https://tddft.org/programs/libxc/

 This ORCA versions uses:
   CBLAS   interface :  Fast vector & matrix operations
   LAPACKE interface :  Fast linear algebra routines
   SCALAPACK package :  Parallel linear algebra routines
   Shared memory     :  Shared parallel matrices
   BLAS/LAPACK       :  OpenBLAS 0.3.15  USE64BITINT DYNAMIC_ARCH NO_AFFINITY SkylakeX SINGLE_THREADED
        Core in use  :  SkylakeX
   Copyright (c) 2011-2014, The OpenBLAS Project




***************************************
The coordinates will be read from file: 11+.xyz
***************************************


Your calculation utilizes the atom-pairwise dispersion correction
based on tight binding partial charges (D4)
Cite in your paper:
E.Caldeweyher, C.Bannwarth, S.Grimme, J.Chem.Phys., (2017), 147, 034112.
E.Caldeweyher, S.Ehlert, A.Hansen, H.Neugebauer, S.Grimme, J.Chem.Phys., (2018), in progress.
   

XCFun DFT library Copyright 2009-2010 Ulf Ekstrom and contributors.
See http://admol.org/xcfun for more information.
This is free software; see the source code for copying conditions.
There is ABSOLUTELY NO WARRANTY; not even for MERCHANTABILITY or FITNESS FOR A PARTICULAR PURPOSE.
For details see the documentation.
Scientific users of this library should cite U. Ekstrom, L. Visscher, R. Bast, A. J. Thorvaldsen and K. Ruud;
J.Chem.Theor.Comp. 2010, DOI: 10.1021/ct100117s
XCFun Version 0.99 

================================================================================

----- Orbital basis set information -----
Your calculation utilizes the basis: def2-SVP
   F. Weigend and R. Ahlrichs, Phys. Chem. Chem. Phys. 7, 3297 (2005).

----- AuxJ basis set information -----
Your calculation utilizes the auxiliary basis: def2/J
   F. Weigend, Phys. Chem. Chem. Phys. 8, 1057 (2006).

================================================================================
                                        WARNINGS
                       Please study these warnings very carefully!
================================================================================


WARNING: Geometry Optimization
  ===> : Switching off AutoStart
         For restart on a previous wavefunction, please use MOREAD

INFO   : the flag for use of the SHARK integral package has been found!

================================================================================
                                       INPUT FILE
================================================================================
NAME = 11+_Gas.inp
|  1> # ORCAForces - ../2023_04/pKa_prediction/extra_carbenes/Gas/11+_Gas.inp
|  2> # Basic Mode
|  3> #
|  4> ! Opt FREQ wB97X D4 Def2-SVP SlowConv TightSCF DEFGRID2 Def2/J RIJCOSX 
|  5> 
|  6> %maxcore 4500
|  7> 
|  8> %PAL NPROCS 4 END
|  9> 
| 10> %geom 
| 11> Maxiter 150
| 12> END
| 13> 
| 14> * xyzfile 1 1 11+.xyz
| 15> 
| 16>                          ****END OF INPUT****
================================================================================

                       *****************************
                       * Geometry Optimization Run *
                       *****************************

Geometry optimization settings:
Update method            Update   .... BFGS
Choice of coordinates    CoordSys .... Z-matrix Internals
Initial Hessian          InHess   .... Almoef's Model

Convergence Tolerances:
Energy Change            TolE     ....  5.0000e-06 Eh
Max. Gradient            TolMAXG  ....  3.0000e-04 Eh/bohr
RMS Gradient             TolRMSG  ....  1.0000e-04 Eh/bohr
Max. Displacement        TolMAXD  ....  4.0000e-03 bohr
RMS Displacement         TolRMSD  ....  2.0000e-03 bohr
Strict Convergence                ....  False
------------------------------------------------------------------------------
                        ORCA OPTIMIZATION COORDINATE SETUP
------------------------------------------------------------------------------

The optimization will be done in new redundant internal coordinates
Making redundant internal coordinates   ...  (new redundants) done
Evaluating the initial hessian          ...  (Almloef) done
Evaluating the coordinates              ...  done
Calculating the B-matrix                .... done
Calculating the G-matrix                .... done
Diagonalizing the G-matrix              .... done
Small eigenvalue found = 1.292e-02
The first mode is                       ....   30
The number of degrees of freedom        ....   54

    -----------------------------------------------------------------
                    Redundant Internal Coordinates


    -----------------------------------------------------------------
         Definition                    Initial Value    Approx d2E/dq
    -----------------------------------------------------------------
      1. B(N   1,C   0)                  1.3207         0.721709   
      2. B(N   2,C   0)                  1.3207         0.721709   
      3. B(C   3,N   1)                  1.4726         0.413097   
      4. B(C   4,N   2)                  1.4726         0.413097   
      5. B(H   5,C   3)                  1.0898         0.360378   
      6. B(H   6,C   4)                  1.0898         0.360378   
      7. B(H   7,C   3)                  1.0855         0.366142   
      8. B(H   8,C   4)                  1.0855         0.366142   
      9. B(H   9,C   3)                  1.0923         0.357130   
     10. B(H  10,C   4)                  1.0923         0.357130   
     11. B(C  11,N   1)                  1.4758         0.408266   
     12. B(C  12,N   2)                  1.4758         0.408266   
     13. B(H  13,C  11)                  1.0883         0.362364   
     14. B(H  14,C  12)                  1.0883         0.362364   
     15. B(H  15,C  11)                  1.0912         0.358484   
     16. B(H  16,C  12)                  1.0912         0.358484   
     17. B(H  17,C  11)                  1.0918         0.357693   
     18. B(H  18,C  12)                  1.0918         0.357693   
     19. B(H  19,C   0)                  1.0844         0.367542   
     20. A(N   1,C   0,N   2)          131.1954         0.452571   
     21. A(N   2,C   0,H  19)          114.4023         0.361150   
     22. A(N   1,C   0,H  19)          114.4023         0.361150   
     23. A(C   0,N   1,C   3)          126.9211         0.409439   
     24. A(C   0,N   1,C  11)          118.5776         0.408587   
     25. A(C   3,N   1,C  11)          114.4976         0.370673   
     26. A(C   0,N   2,C   4)          126.9211         0.409439   
     27. A(C   4,N   2,C  12)          114.4976         0.370673   
     28. A(C   0,N   2,C  12)          118.5776         0.408587   
     29. A(N   1,C   3,H   7)          111.0244         0.328656   
     30. A(H   7,C   3,H   9)          110.3461         0.291222   
     31. A(H   5,C   3,H   7)          108.0922         0.291636   
     32. A(N   1,C   3,H   9)          111.2442         0.327308   
     33. A(N   1,C   3,H   5)          107.5428         0.327797   
     34. A(H   5,C   3,H   9)          108.4617         0.290497   
     35. A(H   8,C   4,H  10)          110.3461         0.291222   
     36. A(H   6,C   4,H  10)          108.4617         0.290497   
     37. A(N   2,C   4,H  10)          111.2442         0.327308   
     38. A(N   2,C   4,H   6)          107.5428         0.327797   
     39. A(H   6,C   4,H   8)          108.0922         0.291636   
     40. A(N   2,C   4,H   8)          111.0244         0.328656   
     41. A(H  15,C  11,H  17)          109.2482         0.290328   
     42. A(H  13,C  11,H  17)          108.7310         0.290819   
     43. A(N   1,C  11,H  17)          109.4803         0.326760   
     44. A(H  13,C  11,H  15)          109.4400         0.290920   
     45. A(N   1,C  11,H  15)          109.5721         0.326878   
     46. A(N   1,C  11,H  13)          110.3480         0.327459   
     47. A(H  16,C  12,H  18)          109.2482         0.290328   
     48. A(H  14,C  12,H  18)          108.7310         0.290819   
     49. A(N   2,C  12,H  18)          109.4803         0.326760   
     50. A(H  14,C  12,H  16)          109.4400         0.290920   
     51. A(N   2,C  12,H  16)          109.5721         0.326878   
     52. A(N   2,C  12,H  14)          110.3480         0.327459   
     53. D(C  11,N   1,C   0,H  19)     -9.6362         0.043375   
     54. D(C  11,N   1,C   0,N   2)    170.3638         0.043375   
     55. D(C   3,N   1,C   0,N   2)    -10.3769         0.043375   
     56. D(C   3,N   1,C   0,H  19)    169.6231         0.043375   
     57. D(C  12,N   2,C   0,N   1)    170.3638         0.043375   
     58. D(C   4,N   2,C   0,N   1)    -10.3769         0.043375   
     59. D(C   4,N   2,C   0,H  19)    169.6231         0.043375   
     60. D(C  12,N   2,C   0,H  19)     -9.6362         0.043375   
     61. D(H   7,C   3,N   1,C   0)    -26.8513         0.014555   
     62. D(H   7,C   3,N   1,C  11)    152.4339         0.014555   
     63. D(H   9,C   3,N   1,C   0)     96.4519         0.014555   
     64. D(H   5,C   3,N   1,C  11)     34.3720         0.014555   
     65. D(H   9,C   3,N   1,C  11)    -84.2629         0.014555   
     66. D(H   5,C   3,N   1,C   0)   -144.9132         0.014555   
     67. D(H   6,C   4,N   2,C   0)   -144.9132         0.014555   
     68. D(H  10,C   4,N   2,C  12)    -84.2629         0.014555   
     69. D(H  10,C   4,N   2,C   0)     96.4519         0.014555   
     70. D(H   8,C   4,N   2,C  12)    152.4339         0.014555   
     71. D(H   8,C   4,N   2,C   0)    -26.8513         0.014555   
     72. D(H   6,C   4,N   2,C  12)     34.3720         0.014555   
     73. D(H  17,C  11,N   1,C   3)     61.4059         0.014221   
     74. D(H  17,C  11,N   1,C   0)   -119.2449         0.014221   
     75. D(H  15,C  11,N   1,C   3)    -58.3883         0.014221   
     76. D(H  15,C  11,N   1,C   0)    120.9609         0.014221   
     77. D(H  13,C  11,N   1,C   3)   -178.9586         0.014221   
     78. D(H  13,C  11,N   1,C   0)      0.3907         0.014221   
     79. D(H  16,C  12,N   2,C   4)    -58.3883         0.014221   
     80. D(H  16,C  12,N   2,C   0)    120.9609         0.014221   
     81. D(H  14,C  12,N   2,C   4)   -178.9586         0.014221   
     82. D(H  18,C  12,N   2,C   0)   -119.2449         0.014221   
     83. D(H  14,C  12,N   2,C   0)      0.3907         0.014221   
     84. D(H  18,C  12,N   2,C   4)     61.4059         0.014221   
    -----------------------------------------------------------------

Number of atoms                         .... 20
Number of degrees of freedom            .... 84

         *************************************************************
         *                GEOMETRY OPTIMIZATION CYCLE   1            *
         *************************************************************
---------------------------------
CARTESIAN COORDINATES (ANGSTROEM)
---------------------------------
  C      0.000000    0.000000    0.647106
  N      0.000000    1.202762    0.101451
  N      0.000000   -1.202762    0.101451
  C      0.212060    1.529924   -1.318627
  C     -0.212060   -1.529924   -1.318627
  H      0.754886    2.473964   -1.360714
  H     -0.754886   -2.473964   -1.360714
  H      0.816106    0.771692   -1.806949
  H     -0.816106   -0.771692   -1.806949
  H     -0.738363    1.653782   -1.842435
  H      0.738363   -1.653782   -1.842435
  C     -0.216944    2.373544    0.973386
  C      0.216944   -2.373544    0.973386
  H     -0.347414    2.057033    2.006431
  H      0.347414   -2.057033    2.006431
  H      0.640912    3.044464    0.904686
  H     -0.640912   -3.044464    0.904686
  H     -1.115656    2.904457    0.653182
  H      1.115656   -2.904457    0.653182
  H      0.000000    0.000000    1.731538

----------------------------
CARTESIAN COORDINATES (A.U.)
----------------------------
  NO LB      ZA    FRAG     MASS         X           Y           Z
   0 C     6.0000    0    12.011    0.000000    0.000000    1.222853
   1 N     7.0000    0    14.007    0.000000    2.272891    0.191715
   2 N     7.0000    0    14.007    0.000000   -2.272891    0.191715
   3 C     6.0000    0    12.011    0.400735    2.891137   -2.491844
   4 C     6.0000    0    12.011   -0.400735   -2.891137   -2.491844
   5 H     1.0000    0     1.008    1.426528    4.675114   -2.571377
   6 H     1.0000    0     1.008   -1.426528   -4.675114   -2.571377
   7 H     1.0000    0     1.008    1.542217    1.458287   -3.414639
   8 H     1.0000    0     1.008   -1.542217   -1.458287   -3.414639
   9 H     1.0000    0     1.008   -1.395304    3.125195   -3.481698
  10 H     1.0000    0     1.008    1.395304   -3.125195   -3.481698
  11 C     6.0000    0    12.011   -0.409965    4.485348    1.839433
  12 C     6.0000    0    12.011    0.409965   -4.485348    1.839433
  13 H     1.0000    0     1.008   -0.656517    3.887229    3.791605
  14 H     1.0000    0     1.008    0.656517   -3.887229    3.791605
  15 H     1.0000    0     1.008    1.211148    5.753203    1.709609
  16 H     1.0000    0     1.008   -1.211148   -5.753203    1.709609
  17 H     1.0000    0     1.008   -2.108284    5.488628    1.234335
  18 H     1.0000    0     1.008    2.108284   -5.488628    1.234335
  19 H     1.0000    0     1.008    0.000000    0.000000    3.272133

--------------------------------
INTERNAL COORDINATES (ANGSTROEM)
--------------------------------
 C      0   0   0     0.000000000000     0.00000000     0.00000000
 N      1   0   0     1.320748199949     0.00000000     0.00000000
 N      1   2   0     1.320748199949   131.19542043     0.00000000
 C      2   1   3     1.472625527392   126.92110532   349.62310819
 C      3   1   2     1.472625527392   126.92110532   349.62310819
 H      4   2   1     1.089790302510   107.54282629   215.08679943
 H      5   3   1     1.089790302510   107.54282629   215.08679943
 H      4   2   1     1.085470272105   111.02444351   333.14873850
 H      5   3   1     1.085470272105   111.02444351   333.14873850
 H      4   2   1     1.092254322013   111.24419959    96.45186257
 H      5   3   1     1.092254322013   111.24419959    96.45186257
 C      2   1   3     1.475827169720   118.57764183   170.36380366
 C      3   1   2     1.475827169720   118.57764183   170.36380366
 H     12   2   1     1.088293896907   110.34802168     0.39067535
 H     13   3   1     1.088293896907   110.34802168     0.39067535
 H     12   2   1     1.091224199299   109.57211788   120.96093192
 H     13   3   1     1.091224199299   109.57211788   120.96093192
 H     12   2   1     1.091825294692   109.48032297   240.75512756
 H     13   3   1     1.091825294692   109.48032297   240.75512756
 H      1   2   3     1.084432000000   114.40228978   180.00000000

---------------------------
INTERNAL COORDINATES (A.U.)
---------------------------
 C      0   0   0     0.000000000000     0.00000000     0.00000000
 N      1   0   0     2.495852389773     0.00000000     0.00000000
 N      1   2   0     2.495852389773   131.19542043     0.00000000
 C      2   1   3     2.782858944593   126.92110532   349.62310819
 C      3   1   2     2.782858944593   126.92110532   349.62310819
 H      4   2   1     2.059405215147   107.54282629   215.08679943
 H      5   3   1     2.059405215147   107.54282629   215.08679943
 H      4   2   1     2.051241540792   111.02444351   333.14873850
 H      5   3   1     2.051241540792   111.02444351   333.14873850
 H      4   2   1     2.064061537197   111.24419959    96.45186257
 H      5   3   1     2.064061537197   111.24419959    96.45186257
 C      2   1   3     2.788909171772   118.57764183   170.36380366
 C      3   1   2     2.788909171772   118.57764183   170.36380366
 H     12   2   1     2.056577418373   110.34802168     0.39067535
 H     13   3   1     2.056577418373   110.34802168     0.39067535
 H     12   2   1     2.062114887383   109.57211788   120.96093192
 H     13   3   1     2.062114887383   109.57211788   120.96093192
 H     12   2   1     2.063250793056   109.48032297   240.75512756
 H     13   3   1     2.063250793056   109.48032297   240.75512756
 H      1   2   3     2.049279490860   114.40228978   180.00000000

---------------------
BASIS SET INFORMATION
---------------------
There are 3 groups of distinct atoms

 Group   1 Type C   : 7s4p1d contracted to 3s2p1d pattern {511/31/1}
 Group   2 Type N   : 7s4p1d contracted to 3s2p1d pattern {511/31/1}
 Group   3 Type H   : 4s1p contracted to 2s1p pattern {31/1}

Atom   0C    basis set group =>   1
Atom   1N    basis set group =>   2
Atom   2N    basis set group =>   2
Atom   3C    basis set group =>   1
Atom   4C    basis set group =>   1
Atom   5H    basis set group =>   3
Atom   6H    basis set group =>   3
Atom   7H    basis set group =>   3
Atom   8H    basis set group =>   3
Atom   9H    basis set group =>   3
Atom  10H    basis set group =>   3
Atom  11C    basis set group =>   1
Atom  12C    basis set group =>   1
Atom  13H    basis set group =>   3
Atom  14H    basis set group =>   3
Atom  15H    basis set group =>   3
Atom  16H    basis set group =>   3
Atom  17H    basis set group =>   3
Atom  18H    basis set group =>   3
Atom  19H    basis set group =>   3
---------------------------------
AUXILIARY/J BASIS SET INFORMATION
---------------------------------
There are 3 groups of distinct atoms

 Group   1 Type C   : 12s5p4d2f1g contracted to 6s4p3d1f1g pattern {711111/2111/211/2/1}
 Group   2 Type N   : 12s5p4d2f1g contracted to 6s4p3d1f1g pattern {711111/2111/211/2/1}
 Group   3 Type H   : 5s2p1d contracted to 3s1p1d pattern {311/2/1}

Atom   0C    basis set group =>   1
Atom   1N    basis set group =>   2
Atom   2N    basis set group =>   2
Atom   3C    basis set group =>   1
Atom   4C    basis set group =>   1
Atom   5H    basis set group =>   3
Atom   6H    basis set group =>   3
Atom   7H    basis set group =>   3
Atom   8H    basis set group =>   3
Atom   9H    basis set group =>   3
Atom  10H    basis set group =>   3
Atom  11C    basis set group =>   1
Atom  12C    basis set group =>   1
Atom  13H    basis set group =>   3
Atom  14H    basis set group =>   3
Atom  15H    basis set group =>   3
Atom  16H    basis set group =>   3
Atom  17H    basis set group =>   3
Atom  18H    basis set group =>   3
Atom  19H    basis set group =>   3


           ************************************************************
           *        Program running with 4 parallel MPI-processes     *
           *              working on a common directory               *
           ************************************************************
------------------------------------------------------------------------------
                           ORCA GTO INTEGRAL CALCULATION
                           -- RI-GTO INTEGRALS CHOSEN --
------------------------------------------------------------------------------
------------------------------------------------------------------------------
                   ___                                                        
                  /   \      - P O W E R E D   B Y -                         
                 /     \                                                     
                 |  |  |   _    _      __       _____    __    __             
                 |  |  |  | |  | |    /  \     |  _  \  |  |  /  |          
                  \  \/   | |  | |   /    \    | | | |  |  | /  /          
                 / \  \   | |__| |  /  /\  \   | |_| |  |  |/  /          
                |  |  |   |  __  | /  /__\  \  |    /   |      \           
                |  |  |   | |  | | |   __   |  |    \   |  |\   \          
                \     /   | |  | | |  |  |  |  | |\  \  |  | \   \       
                 \___/    |_|  |_| |__|  |__|  |_| \__\ |__|  \__/        
                                                                              
                      - O R C A' S   B I G   F R I E N D -                    
                                      &                                       
                       - I N T E G R A L  F E E D E R -                       
                                                                              
 v1 FN, 2020, v2 2021                                                         
------------------------------------------------------------------------------


Reading SHARK input file 11+_Gas.SHARKINP.tmp ... ok
----------------------
SHARK INTEGRAL PACKAGE
----------------------

Number of atoms                             ...     20
Number of basis functions                   ...    163
Number of shells                            ...     81
Maximum angular momentum                    ...      2
Integral batch strategy                     ... SHARK/LIBINT Hybrid
RI-J (if used) integral strategy            ... SPLIT-RIJ (Revised 2003 algorithm where possible)
Printlevel                                  ...      1
Contraction scheme used                     ... SEGMENTED contraction
Coulomb Range Separation                    ... NOT USED
Exchange Range Separation                   ... Long Range
   Mu parameter                             ...  0.300000
   Scaling (regular/separated)              ...  0.157706  0.842294
Finite Nucleus Model                        ... NOT USED
Auxiliary Coulomb fitting basis             ... AVAILABLE
   # of basis functions in Aux-J            ...    486
   # of shells in Aux-J                     ...    170
   Maximum angular momentum in Aux-J        ...      4
Auxiliary J/K fitting basis                 ... NOT available
Auxiliary Correlation fitting basis         ... NOT available
Auxiliary 'external' fitting basis          ... NOT available
Integral threshold                          ...     2.500000e-11
Primitive cut-off                           ...     2.500000e-12
Primitive pair pre-selection threshold      ...     2.500000e-12

Calculating pre-screening integrals         ... done (  0.0 sec) Dimension = 81
Organizing shell pair data                  ... done (  0.1 sec)
Shell pair information
Total number of shell pairs                 ...      3321
Shell pairs after pre-screening             ...      3131
Total number of primitive shell pairs       ...     11305
Primitive shell pairs kept                  ...      7959
          la=0 lb=0:   1077 shell pairs
          la=1 lb=0:   1193 shell pairs
          la=1 lb=1:    345 shell pairs
          la=2 lb=0:    313 shell pairs
          la=2 lb=1:    175 shell pairs
          la=2 lb=2:     28 shell pairs

Calculating one electron integrals          ... done (  0.0 sec)
Calculating RI/J V-Matrix + Cholesky decomp.... done (  0.0 sec)
Calculating Nuclear repulsion               ... done (  0.0 sec) ENN=    331.188940863883 Eh

SHARK setup successfully completed in   1.1 seconds

Maximum memory used throughout the entire GTOINT-calculation: 11.7 MB


           ************************************************************
           *        Program running with 4 parallel MPI-processes     *
           *              working on a common directory               *
           ************************************************************
-------------------------------------------------------------------------------
                                 ORCA SCF
-------------------------------------------------------------------------------

------------
SCF SETTINGS
------------
Hamiltonian:
 Density Functional     Method          .... DFT(GTOs)
 Exchange Functional    Exchange        .... WB97X
 Correlation Functional Correlation     .... WB97X
 Gradients option       PostSCFGGA      .... off
 Hybrid DFT is turned on
   Fraction HF Exchange ScalHFX         ....  0.157706
   Scaling of DF-GGA-X  ScalDFX         ....  0.000000
   Scaling of DF-GGA-C  ScalDFC         ....  1.000000
   Scaling of DF-LDA-C  ScalLDAC        ....  1.000000
   Perturbative correction              ....  0.000000
   Density functional embedding theory  .... OFF
 Long-range corrected/Screened/Range-Separated Hybrid DFT is turned on
   Amount of maximum screened exact exchange              ....  0.842294
   Range separation parameter mu (erf(mu*r12)/r12)        ....  0.300000
 RI-approximation to the Coulomb term is turned on
   Number of AuxJ basis functions       .... 486
   RIJ-COSX (HFX calculated with COS-X)).... on


General Settings:
 Integral files         IntName         .... 11+_Gas
 Hartree-Fock type      HFTyp           .... RHF
 Total Charge           Charge          ....    1
 Multiplicity           Mult            ....    1
 Number of Electrons    NEL             ....   56
 Basis Dimension        Dim             ....  163
 Nuclear Repulsion      ENuc            ....    331.1889408639 Eh

Convergence Acceleration:
 DIIS                   CNVDIIS         .... on
   Start iteration      DIISMaxIt       ....     0
   Startup error        DIISStart       ....  0.200000
   # of expansion vecs  DIISMaxEq       ....     5
   Bias factor          DIISBfac        ....   1.050
   Max. coefficient     DIISMaxC        ....  10.000
 Trust-Rad. Augm. Hess. CNVTRAH         .... auto
   Auto Start mean grad. ratio tolernc. ....  1.125000
   Auto Start start iteration           ....    20
   Auto Start num. interpolation iter.  ....    10
   Max. Number of Micro iterations      ....    16
   Max. Number of Macro iterations      .... Maxiter - #DIIS iter
   Number of Davidson start vectors     ....     2
   Converg. threshold I  (grad. norm)   ....   1.000e-05
   Converg. threshold II (energy diff.) ....   1.000e-08
   Grad. Scal. Fac. for Micro threshold ....   0.100
   Minimum threshold for Micro iter.    ....   0.010
   NR start threshold (gradient norm)   ....   0.001
   Initial trust radius                 ....   0.400
   Minimum AH scaling param. (alpha)    ....   1.000
   Maximum AH scaling param. (alpha)    .... 1000.000
   Orbital update algorithm             .... Taylor
   White noise on init. David. guess    .... on
   Maximum white noise                  ....   0.010
   Quad. conv. algorithm                .... NR
 SOSCF                  CNVSOSCF        .... on
   Start iteration      SOSCFMaxIt      ....   150
   Startup grad/error   SOSCFStart      ....  0.001000
 Level Shifting         CNVShift        .... on
   Level shift para.    LevelShift      ....    0.2500
   Turn off err/grad.   ShiftErr        ....    0.0000
 Zerner damping         CNVZerner       .... off
 Static damping         CNVDamp         .... on
   Fraction old density DampFac         ....    0.8500
   Max. Damping (<1)    DampMax         ....    0.9800
   Min. Damping (>=0)   DampMin         ....    0.0000
   Turn off err/grad.   DampErr         ....    0.0300
 Fernandez-Rico         CNVRico         .... off

SCF Procedure:
 Maximum # iterations   MaxIter         ....   125
 SCF integral mode      SCFMode         .... Direct
   Integral package                     .... SHARK and LIBINT hybrid scheme
 Reset frequency        DirectResetFreq ....    20
 Integral Threshold     Thresh          ....  2.500e-11 Eh
 Primitive CutOff       TCut            ....  2.500e-12 Eh

Convergence Tolerance:
 Convergence Check Mode ConvCheckMode   .... Total+1el-Energy
 Convergence forced     ConvForced      .... 0
 Energy Change          TolE            ....  1.000e-08 Eh
 1-El. energy change                    ....  1.000e-05 Eh
 Orbital Gradient       TolG            ....  1.000e-05
 Orbital Rotation angle TolX            ....  1.000e-05
 DIIS Error             TolErr          ....  5.000e-07


Diagonalization of the overlap matrix:
Smallest eigenvalue                        ... 4.642e-03
Time for diagonalization                   ...    0.004 sec
Threshold for overlap eigenvalues          ... 1.000e-08
Number of eigenvalues below threshold      ... 0
Time for construction of square roots      ...    0.003 sec
Total time needed                          ...    0.007 sec

Time for model grid setup =    0.082 sec

------------------------------
INITIAL GUESS: MODEL POTENTIAL
------------------------------
Loading Hartree-Fock densities                     ... done
Calculating cut-offs                               ... done
Initializing the effective Hamiltonian             ... done
Setting up the integral package (SHARK)            ... done
Starting the Coulomb interaction                   ... done (   0.0 sec)
Reading the grid                                   ... done
Mapping shells                                     ... done
Starting the XC term evaluation                    ... done (   0.1 sec)
  promolecular density results
     # of electrons  =     56.989853824
     EX              =    -42.524985101
     EC              =     -1.867668089
     EX+EC           =    -44.392653190
Transforming the Hamiltonian                       ... done (   0.0 sec)
Diagonalizing the Hamiltonian                      ... done (   0.0 sec)
Back transforming the eigenvectors                 ... done (   0.0 sec)
Now organizing SCF variables                       ... done
                      ------------------
                      INITIAL GUESS DONE (   0.2 sec)
                      ------------------
-------------------
DFT GRID GENERATION
-------------------

General Integration Accuracy     IntAcc      ... 4.388
Radial Grid Type                 RadialGrid  ... OptM3 with GC (2021)
Angular Grid (max. ang.)         AngularGrid ... 4 (Lebedev-302)
Angular grid pruning method      GridPruning ... 4 (adaptive)
Weight generation scheme         WeightScheme... Becke
Basis function cutoff            BFCut       ... 1.0000e-11
Integration weight cutoff        WCut        ... 1.0000e-14
Angular grids for H and He will be reduced by one unit
Partially contracted basis set               ... off
Rotationally invariant grid construction     ... off

Total number of grid points                  ...    83811
Total number of batches                      ...     1318
Average number of points per batch           ...       63
Average number of grid points per atom       ...     4191
Time for grid setup =    0.401 sec

--------------------
COSX GRID GENERATION
--------------------

GRIDX 1
-------
General Integration Accuracy     IntAcc      ... 3.816
Radial Grid Type                 RadialGrid  ... OptM3 with GC (2021)
Angular Grid (max. ang.)         AngularGrid ... 1 (Lebedev-50)
Angular grid pruning method      GridPruning ... 4 (adaptive)
Weight generation scheme         WeightScheme... Becke
Basis function cutoff            BFCut       ... 1.0000e-11
Integration weight cutoff        WCut        ... 1.0000e-14
Angular grids for H and He will be reduced by one unit
Partially contracted basis set               ... on
Rotationally invariant grid construction     ... off

Total number of grid points                  ...    10798
Total number of batches                      ...      183
Average number of points per batch           ...       59
Average number of grid points per atom       ...      540
UseSFitting                                  ... on

GRIDX 2
-------
General Integration Accuracy     IntAcc      ... 4.020
Radial Grid Type                 RadialGrid  ... OptM3 with GC (2021)
Angular Grid (max. ang.)         AngularGrid ... 2 (Lebedev-110)
Angular grid pruning method      GridPruning ... 4 (adaptive)
Weight generation scheme         WeightScheme... Becke
Basis function cutoff            BFCut       ... 1.0000e-11
Integration weight cutoff        WCut        ... 1.0000e-14
Angular grids for H and He will be reduced by one unit
Partially contracted basis set               ... on
Rotationally invariant grid construction     ... off

Total number of grid points                  ...    22370
Total number of batches                      ...      358
Average number of points per batch           ...       62
Average number of grid points per atom       ...     1118
UseSFitting                                  ... on

GRIDX 3
-------
General Integration Accuracy     IntAcc      ... 4.338
Radial Grid Type                 RadialGrid  ... OptM3 with GC (2021)
Angular Grid (max. ang.)         AngularGrid ... 3 (Lebedev-194)
Angular grid pruning method      GridPruning ... 4 (adaptive)
Weight generation scheme         WeightScheme... Becke
Basis function cutoff            BFCut       ... 1.0000e-11
Integration weight cutoff        WCut        ... 1.0000e-14
Angular grids for H and He will be reduced by one unit
Partially contracted basis set               ... on
Rotationally invariant grid construction     ... off

Total number of grid points                  ...    48812
Total number of batches                      ...      773
Average number of points per batch           ...       63
Average number of grid points per atom       ...     2441
UseSFitting                                  ... on

Time for X-Grid setup             =    0.392 sec

--------------
SCF ITERATIONS
--------------
ITER       Energy         Delta-E        Max-DP      RMS-DP      [F,P]     Damp
               ***  Starting incremental Fock matrix formation  ***
  0   -307.2241008767   0.000000000000 0.02383348  0.00063699  0.1070947 0.8500
  1   -307.2451097447  -0.021008868000 0.02168118  0.00059097  0.0868438 0.8500
                               ***Turning on DIIS***
  2   -307.2611055792  -0.015995834497 0.01714204  0.00047823  0.0673083 0.8500
  3   -307.2730740940  -0.011968514800 0.01110467  0.00033873  0.0516194 0.8500
  4   -307.2823685466  -0.009294452564 0.00764298  0.00025981  0.0414190 0.8500
  5   -307.2897218892  -0.007353342655 0.00590326  0.00021417  0.0344426 0.8500
  6   -307.2957210927  -0.005999203507 0.03236520  0.00120816  0.0290918 0.0000
  7   -307.3273534318  -0.031632339040 0.00168224  0.00004442  0.0010280 0.0000
                      *** Initiating the SOSCF procedure ***
                           *** Shutting down DIIS ***
                      *** Re-Reading the Fockian *** 
                      *** Removing any level shift *** 
ITER      Energy       Delta-E        Grad      Rot      Max-DP    RMS-DP
  8   -307.32736831  -0.0000148821  0.000542  0.000542  0.000809  0.000019
               *** Restarting incremental Fock matrix formation ***
  9   -307.32737510  -0.0000067863  0.000177  0.000259  0.000430  0.000013
 10   -307.32737575  -0.0000006525  0.000153  0.000333  0.000323  0.000007
 11   -307.32737591  -0.0000001616  0.000025  0.000047  0.000041  0.000002
 12   -307.32737593  -0.0000000154  0.000004  0.000004  0.000017  0.000000
 13   -307.32737593  -0.0000000013  0.000003  0.000006  0.000007  0.000000
                  ***Gradient check signals convergence***
              ***Rediagonalizing the Fockian in SOSCF/NRSCF***

               *****************************************************
               *                     SUCCESS                       *
               *           SCF CONVERGED AFTER  14 CYCLES          *
               *****************************************************

Old exchange energy                            =    -14.228522940 Eh
New exchange energy                            =    -14.228548041 Eh
Exchange energy change after final integration =     -0.000025101 Eh
Total energy after final integration           =   -307.327401028 Eh
Final COS-X integration done in                =     9.378 sec

----------------
TOTAL SCF ENERGY
----------------

Total Energy       :         -307.32740103 Eh           -8362.80374 eV

Components:
Nuclear Repulsion  :          331.18894086 Eh            9012.10925 eV
Electronic Energy  :         -638.51634189 Eh          -17374.91299 eV
One Electron Energy:        -1058.49343854 Eh          -28803.07078 eV
Two Electron Energy:          419.97709665 Eh           11428.15780 eV
Max COSX asymmetry :            0.00000253 Eh               0.00007 eV

Virial components:
Potential Energy   :         -610.92708253 Eh          -16624.17107 eV
Kinetic Energy     :          303.59968150 Eh            8261.36733 eV
Virial Ratio       :            2.01227840


DFT components:
N(Alpha)           :       27.999920467523 electrons
N(Beta)            :       27.999920467523 electrons
N(Total)           :       55.999840935046 electrons
E(XC)              :      -31.198682391648 Eh       
DFET-embed. en.    :        0.000000000000 Eh       

---------------
SCF CONVERGENCE
---------------

  Last Energy change         ...    4.3939e-09  Tolerance :   1.0000e-08
  Last MAX-Density change    ...    2.6645e-15  Tolerance :   1.0000e-07
  Last RMS-Density change    ...    4.3814e-17  Tolerance :   5.0000e-09
  Last Orbital Gradient      ...    4.3153e-07  Tolerance :   1.0000e-05
  Last Orbital Rotation      ...    1.0527e-06  Tolerance :   1.0000e-05

             **** THE GBW FILE WAS UPDATED (11+_Gas.gbw) ****
             **** DENSITY 11+_Gas.scfp WAS UPDATED ****
             **** ENERGY FILE WAS UPDATED (11+_Gas.en.tmp) ****
             **** THE GBW FILE WAS UPDATED (11+_Gas.gbw) ****
             **** DENSITY 11+_Gas.scfp WAS UPDATED ****
----------------
ORBITAL ENERGIES
----------------

  NO   OCC          E(Eh)            E(eV) 
   0   2.0000     -14.644134      -398.4871 
   1   2.0000     -14.644133      -398.4871 
   2   2.0000     -10.560228      -287.3584 
   3   2.0000     -10.473609      -285.0014 
   4   2.0000     -10.473599      -285.0011 
   5   2.0000     -10.469990      -284.9029 
   6   2.0000     -10.469977      -284.9026 
   7   2.0000      -1.306855       -35.5613 
   8   2.0000      -1.242726       -33.8163 
   9   2.0000      -1.054264       -28.6880 
  10   2.0000      -1.027407       -27.9572 
  11   2.0000      -1.012976       -27.5645 
  12   2.0000      -0.964915       -26.2567 
  13   2.0000      -0.869253       -23.6536 
  14   2.0000      -0.812459       -22.1081 
  15   2.0000      -0.807705       -21.9788 
  16   2.0000      -0.781733       -21.2720 
  17   2.0000      -0.744689       -20.2640 
  18   2.0000      -0.733054       -19.9474 
  19   2.0000      -0.706931       -19.2366 
  20   2.0000      -0.690481       -18.7889 
  21   2.0000      -0.683393       -18.5961 
  22   2.0000      -0.675117       -18.3709 
  23   2.0000      -0.674521       -18.3546 
  24   2.0000      -0.666512       -18.1367 
  25   2.0000      -0.645104       -17.5542 
  26   2.0000      -0.628762       -17.1095 
  27   2.0000      -0.515443       -14.0259 
  28   0.0000      -0.098181        -2.6716 
  29   0.0000      -0.021968        -0.5978 
  30   0.0000       0.009607         0.2614 
  31   0.0000       0.017161         0.4670 
  32   0.0000       0.036607         0.9961 
  33   0.0000       0.040554         1.1035 
  34   0.0000       0.047661         1.2969 
  35   0.0000       0.069557         1.8927 
  36   0.0000       0.075022         2.0415 
  37   0.0000       0.077288         2.1031 
  38   0.0000       0.083120         2.2618 
  39   0.0000       0.097299         2.6476 
  40   0.0000       0.103649         2.8204 
  41   0.0000       0.107168         2.9162 
  42   0.0000       0.108172         2.9435 
  43   0.0000       0.144897         3.9428 
  44   0.0000       0.154414         4.2018 
  45   0.0000       0.164497         4.4762 
  46   0.0000       0.214296         5.8313 
  47   0.0000       0.260137         7.0787 
  48   0.0000       0.305309         8.3079 
  49   0.0000       0.333901         9.0859 
  50   0.0000       0.342327         9.3152 
  51   0.0000       0.356608         9.7038 
  52   0.0000       0.374277        10.1846 
  53   0.0000       0.400954        10.9105 
  54   0.0000       0.409607        11.1460 
  55   0.0000       0.413344        11.2477 
  56   0.0000       0.467748        12.7281 
  57   0.0000       0.510580        13.8936 
  58   0.0000       0.516239        14.0476 
  59   0.0000       0.523975        14.2581 
  60   0.0000       0.541975        14.7479 
  61   0.0000       0.559075        15.2132 
  62   0.0000       0.560484        15.2516 
  63   0.0000       0.573303        15.6004 
  64   0.0000       0.592012        16.1095 
  65   0.0000       0.600563        16.3421 
  66   0.0000       0.605691        16.4817 
  67   0.0000       0.614772        16.7288 
  68   0.0000       0.615292        16.7429 
  69   0.0000       0.631610        17.1870 
  70   0.0000       0.633037        17.2258 
  71   0.0000       0.641034        17.4434 
  72   0.0000       0.644353        17.5337 
  73   0.0000       0.651803        17.7365 
  74   0.0000       0.663725        18.0609 
  75   0.0000       0.667706        18.1692 
  76   0.0000       0.689782        18.7699 
  77   0.0000       0.708849        19.2887 
  78   0.0000       0.733113        19.9490 
  79   0.0000       0.790821        21.5193 
  80   0.0000       0.799520        21.7560 
  81   0.0000       0.846388        23.0314 
  82   0.0000       0.899771        24.4840 
  83   0.0000       0.946856        25.7653 
  84   0.0000       1.013811        27.5872 
  85   0.0000       1.029195        28.0058 
  86   0.0000       1.057367        28.7724 
  87   0.0000       1.111618        30.2487 
  88   0.0000       1.129925        30.7468 
  89   0.0000       1.153214        31.3806 
  90   0.0000       1.180649        32.1271 
  91   0.0000       1.200286        32.6615 
  92   0.0000       1.302498        35.4428 
  93   0.0000       1.341290        36.4984 
  94   0.0000       1.361904        37.0593 
  95   0.0000       1.423931        38.7471 
  96   0.0000       1.459418        39.7128 
  97   0.0000       1.476670        40.1822 
  98   0.0000       1.477013        40.1916 
  99   0.0000       1.480370        40.2829 
 100   0.0000       1.483386        40.3650 
 101   0.0000       1.500511        40.8310 
 102   0.0000       1.507969        41.0339 
 103   0.0000       1.602454        43.6050 
 104   0.0000       1.611049        43.8389 
 105   0.0000       1.690982        46.0139 
 106   0.0000       1.697065        46.1795 
 107   0.0000       1.702016        46.3142 
 108   0.0000       1.705132        46.3990 
 109   0.0000       1.717740        46.7421 
 110   0.0000       1.730979        47.1023 
 111   0.0000       1.736654        47.2568 
 112   0.0000       1.755182        47.7609 
 113   0.0000       1.764375        48.0111 
 114   0.0000       1.774602        48.2894 
 115   0.0000       1.788188        48.6591 
 116   0.0000       1.822032        49.5800 
 117   0.0000       1.841292        50.1041 
 118   0.0000       1.846217        50.2381 
 119   0.0000       1.849243        50.3205 
 120   0.0000       1.928181        52.4685 
 121   0.0000       1.944046        52.9002 
 122   0.0000       1.945442        52.9382 
 123   0.0000       1.982371        53.9431 
 124   0.0000       1.984168        53.9919 
 125   0.0000       1.998231        54.3746 
 126   0.0000       2.014389        54.8143 
 127   0.0000       2.042625        55.5826 
 128   0.0000       2.110333        57.4251 
 129   0.0000       2.117132        57.6101 
 130   0.0000       2.185229        59.4631 
 131   0.0000       2.186573        59.4997 
 132   0.0000       2.226522        60.5867 
 133   0.0000       2.244642        61.0798 
 134   0.0000       2.315104        62.9972 
 135   0.0000       2.340934        63.7001 
 136   0.0000       2.346845        63.8609 
 137   0.0000       2.377351        64.6910 
 138   0.0000       2.391442        65.0744 
 139   0.0000       2.415754        65.7360 
 140   0.0000       2.543225        69.2047 
 141   0.0000       2.547706        69.3266 
 142   0.0000       2.563270        69.7501 
 143   0.0000       2.572902        70.0122 
 144   0.0000       2.611005        71.0491 
 145   0.0000       2.637518        71.7705 
 146   0.0000       2.644953        71.9728 
 147   0.0000       2.725215        74.1569 
 148   0.0000       2.731028        74.3150 
 149   0.0000       2.742184        74.6186 
 150   0.0000       2.825131        76.8757 
 151   0.0000       2.858289        77.7780 
 152   0.0000       2.861924        77.8769 
 153   0.0000       2.864241        77.9400 
 154   0.0000       2.890682        78.6594 
 155   0.0000       2.892248        78.7021 
 156   0.0000       2.905742        79.0693 
 157   0.0000       2.930701        79.7484 
 158   0.0000       2.957319        80.4727 
 159   0.0000       3.029327        82.4322 
 160   0.0000       3.049289        82.9754 
 161   0.0000       3.251742        88.4844 
 162   0.0000       3.405406        92.6658 

                    ********************************
                    * MULLIKEN POPULATION ANALYSIS *
                    ********************************

-----------------------
MULLIKEN ATOMIC CHARGES
-----------------------
   0 C :    0.231254
   1 N :   -0.314134
   2 N :   -0.314134
   3 C :    0.057825
   4 C :    0.057825
   5 H :    0.087232
   6 H :    0.087232
   7 H :    0.078934
   8 H :    0.078934
   9 H :    0.100345
  10 H :    0.100345
  11 C :    0.065588
  12 C :    0.065588
  13 H :    0.078528
  14 H :    0.078528
  15 H :    0.094126
  16 H :    0.094126
  17 H :    0.094187
  18 H :    0.094187
  19 H :    0.083484
Sum of atomic charges:    1.0000000

--------------------------------
MULLIKEN REDUCED ORBITAL CHARGES
--------------------------------
  0 C s       :     3.058342  s :     3.058342
      pz      :     0.966743  p :     2.633490
      px      :     0.815324
      py      :     0.851423
      dz2     :     0.013438  d :     0.076913
      dxz     :     0.003079
      dyz     :     0.018537
      dx2y2   :     0.013309
      dxy     :     0.028550
  1 N s       :     3.413985  s :     3.413985
      pz      :     1.206421  p :     3.871675
      px      :     1.549722
      py      :     1.115531
      dz2     :     0.006704  d :     0.028474
      dxz     :     0.003785
      dyz     :     0.008773
      dx2y2   :     0.003818
      dxy     :     0.005395
  2 N s       :     3.413985  s :     3.413985
      pz      :     1.206421  p :     3.871674
      px      :     1.549722
      py      :     1.115532
      dz2     :     0.006704  d :     0.028474
      dxz     :     0.003785
      dyz     :     0.008773
      dx2y2   :     0.003818
      dxy     :     0.005395
  3 C s       :     3.023289  s :     3.023289
      pz      :     0.752129  p :     2.881714
      px      :     1.062736
      py      :     1.066849
      dz2     :     0.012526  d :     0.037172
      dxz     :     0.009477
      dyz     :     0.005571
      dx2y2   :     0.003643
      dxy     :     0.005954
  4 C s       :     3.023290  s :     3.023290
      pz      :     0.752129  p :     2.881714
      px      :     1.062736
      py      :     1.066849
      dz2     :     0.012526  d :     0.037172
      dxz     :     0.009477
      dyz     :     0.005571
      dx2y2   :     0.003643
      dxy     :     0.005954
  5 H s       :     0.888943  s :     0.888943
      pz      :     0.002619  p :     0.023824
      px      :     0.007851
      py      :     0.013355
  6 H s       :     0.888943  s :     0.888943
      pz      :     0.002619  p :     0.023824
      px      :     0.007851
      py      :     0.013355
  7 H s       :     0.896879  s :     0.896879
      pz      :     0.005634  p :     0.024187
      px      :     0.008670
      py      :     0.009883
  8 H s       :     0.896879  s :     0.896879
      pz      :     0.005634  p :     0.024187
      px      :     0.008670
      py      :     0.009883
  9 H s       :     0.876206  s :     0.876206
      pz      :     0.005538  p :     0.023449
      px      :     0.013052
      py      :     0.004859
 10 H s       :     0.876206  s :     0.876206
      pz      :     0.005538  p :     0.023449
      px      :     0.013052
      py      :     0.004859
 11 C s       :     3.033225  s :     3.033225
      pz      :     0.942605  p :     2.863817
      px      :     1.072312
      py      :     0.848900
      dz2     :     0.006983  d :     0.037369
      dxz     :     0.002968
      dyz     :     0.010629
      dx2y2   :     0.005847
      dxy     :     0.010943
 12 C s       :     3.033225  s :     3.033225
      pz      :     0.942605  p :     2.863817
      px      :     1.072312
      py      :     0.848900
      dz2     :     0.006983  d :     0.037369
      dxz     :     0.002968
      dyz     :     0.010629
      dx2y2   :     0.005847
      dxy     :     0.010943
 13 H s       :     0.897545  s :     0.897545
      pz      :     0.014911  p :     0.023927
      px      :     0.005184
      py      :     0.003832
 14 H s       :     0.897545  s :     0.897545
      pz      :     0.014911  p :     0.023927
      px      :     0.005184
      py      :     0.003832
 15 H s       :     0.882402  s :     0.882402
      pz      :     0.003783  p :     0.023472
      px      :     0.011706
      py      :     0.007983
 16 H s       :     0.882402  s :     0.882402
      pz      :     0.003783  p :     0.023472
      px      :     0.011706
      py      :     0.007983
 17 H s       :     0.882310  s :     0.882310
      pz      :     0.004568  p :     0.023503
      px      :     0.012686
      py      :     0.006250
 18 H s       :     0.882310  s :     0.882310
      pz      :     0.004568  p :     0.023503
      px      :     0.012686
      py      :     0.006250
 19 H s       :     0.894264  s :     0.894264
      pz      :     0.017542  p :     0.022252
      px      :     0.003103
      py      :     0.001607


                     *******************************
                     * LOEWDIN POPULATION ANALYSIS *
                     *******************************

----------------------
LOEWDIN ATOMIC CHARGES
----------------------
   0 C :    0.162417
   1 N :    0.007643
   2 N :    0.007643
   3 C :    0.047702
   4 C :    0.047701
   5 H :    0.051639
   6 H :    0.051639
   7 H :    0.042192
   8 H :    0.042192
   9 H :    0.046709
  10 H :    0.046709
  11 C :    0.058772
  12 C :    0.058772
  13 H :    0.043443
  14 H :    0.043443
  15 H :    0.046593
  16 H :    0.046593
  17 H :    0.048518
  18 H :    0.048518
  19 H :    0.051160

-------------------------------
LOEWDIN REDUCED ORBITAL CHARGES
-------------------------------
  0 C s       :     2.829174  s :     2.829174
      pz      :     1.033196  p :     2.827282
      px      :     0.833072
      py      :     0.961014
      dz2     :     0.037312  d :     0.181127
      dxz     :     0.005308
      dyz     :     0.046935
      dx2y2   :     0.034286
      dxy     :     0.057285
  1 N s       :     3.062593  s :     3.062593
      pz      :     1.206070  p :     3.866543
      px      :     1.482441
      py      :     1.178032
      dz2     :     0.015443  d :     0.063221
      dxz     :     0.006421
      dyz     :     0.022972
      dx2y2   :     0.009283
      dxy     :     0.009102
  2 N s       :     3.062593  s :     3.062593
      pz      :     1.206070  p :     3.866543
      px      :     1.482441
      py      :     1.178032
      dz2     :     0.015443  d :     0.063221
      dxz     :     0.006421
      dyz     :     0.022972
      dx2y2   :     0.009283
      dxy     :     0.009102
  3 C s       :     2.830198  s :     2.830198
      pz      :     0.856033  p :     3.029734
      px      :     1.090357
      py      :     1.083344
      dz2     :     0.030717  d :     0.092366
      dxz     :     0.023817
      dyz     :     0.013319
      dx2y2   :     0.009048
      dxy     :     0.015465
  4 C s       :     2.830199  s :     2.830199
      pz      :     0.856033  p :     3.029734
      px      :     1.090357
      py      :     1.083344
      dz2     :     0.030717  d :     0.092366
      dxz     :     0.023817
      dyz     :     0.013319
      dx2y2   :     0.009048
      dxy     :     0.015465
  5 H s       :     0.881183  s :     0.881183
      pz      :     0.008416  p :     0.067178
      px      :     0.021554
      py      :     0.037208
  6 H s       :     0.881183  s :     0.881183
      pz      :     0.008416  p :     0.067178
      px      :     0.021554
      py      :     0.037208
  7 H s       :     0.889368  s :     0.889368
      pz      :     0.016888  p :     0.068440
      px      :     0.023945
      py      :     0.027607
  8 H s       :     0.889368  s :     0.889368
      pz      :     0.016888  p :     0.068440
      px      :     0.023945
      py      :     0.027607
  9 H s       :     0.885987  s :     0.885987
      pz      :     0.017459  p :     0.067304
      px      :     0.036281
      py      :     0.013563
 10 H s       :     0.885987  s :     0.885987
      pz      :     0.017459  p :     0.067304
      px      :     0.036281
      py      :     0.013563
 11 C s       :     2.833327  s :     2.833327
      pz      :     0.996968  p :     3.015283
      px      :     1.094362
      py      :     0.923952
      dz2     :     0.018606  d :     0.092617
      dxz     :     0.006252
      dyz     :     0.025926
      dx2y2   :     0.012940
      dxy     :     0.028894
 12 C s       :     2.833327  s :     2.833327
      pz      :     0.996968  p :     3.015283
      px      :     1.094362
      py      :     0.923952
      dz2     :     0.018606  d :     0.092617
      dxz     :     0.006252
      dyz     :     0.025926
      dx2y2   :     0.012940
      dxy     :     0.028894
 13 H s       :     0.889460  s :     0.889460
      pz      :     0.041801  p :     0.067097
      px      :     0.014045
      py      :     0.011250
 14 H s       :     0.889460  s :     0.889460
      pz      :     0.041801  p :     0.067097
      px      :     0.014045
      py      :     0.011250
 15 H s       :     0.886513  s :     0.886513
      pz      :     0.010928  p :     0.066894
      px      :     0.032386
      py      :     0.023580
 16 H s       :     0.886513  s :     0.886513
      pz      :     0.010928  p :     0.066894
      px      :     0.032386
      py      :     0.023580
 17 H s       :     0.884448  s :     0.884448
      pz      :     0.013200  p :     0.067033
      px      :     0.035172
      py      :     0.018661
 18 H s       :     0.884448  s :     0.884448
      pz      :     0.013200  p :     0.067033
      px      :     0.035172
      py      :     0.018661
 19 H s       :     0.880287  s :     0.880287
      pz      :     0.050838  p :     0.068553
      px      :     0.010234
      py      :     0.007480


                      *****************************
                      * MAYER POPULATION ANALYSIS *
                      *****************************

  NA   - Mulliken gross atomic population
  ZA   - Total nuclear charge
  QA   - Mulliken gross atomic charge
  VA   - Mayer's total valence
  BVA  - Mayer's bonded valence
  FA   - Mayer's free valence

  ATOM       NA         ZA         QA         VA         BVA        FA
  0 C      5.7687     6.0000     0.2313     4.0008     4.0008    -0.0000
  1 N      7.3141     7.0000    -0.3141     3.3792     3.3792     0.0000
  2 N      7.3141     7.0000    -0.3141     3.3792     3.3792    -0.0000
  3 C      5.9422     6.0000     0.0578     3.8782     3.8782    -0.0000
  4 C      5.9422     6.0000     0.0578     3.8782     3.8782     0.0000
  5 H      0.9128     1.0000     0.0872     0.9994     0.9994    -0.0000
  6 H      0.9128     1.0000     0.0872     0.9994     0.9994     0.0000
  7 H      0.9211     1.0000     0.0789     1.0010     1.0010     0.0000
  8 H      0.9211     1.0000     0.0789     1.0010     1.0010     0.0000
  9 H      0.8997     1.0000     0.1003     0.9861     0.9861     0.0000
 10 H      0.8997     1.0000     0.1003     0.9861     0.9861    -0.0000
 11 C      5.9344     6.0000     0.0656     3.8714     3.8714     0.0000
 12 C      5.9344     6.0000     0.0656     3.8714     3.8714     0.0000
 13 H      0.9215     1.0000     0.0785     0.9981     0.9981    -0.0000
 14 H      0.9215     1.0000     0.0785     0.9981     0.9981    -0.0000
 15 H      0.9059     1.0000     0.0941     0.9902     0.9902     0.0000
 16 H      0.9059     1.0000     0.0941     0.9902     0.9902    -0.0000
 17 H      0.9058     1.0000     0.0942     0.9887     0.9887     0.0000
 18 H      0.9058     1.0000     0.0942     0.9887     0.9887     0.0000
 19 H      0.9165     1.0000     0.0835     1.0121     1.0121    -0.0000

  Mayer bond orders larger than 0.100000
B(  0-C ,  1-N ) :   1.4470 B(  0-C ,  2-N ) :   1.4470 B(  0-C , 19-H ) :   0.9615 
B(  1-N ,  3-C ) :   0.9045 B(  1-N , 11-C ) :   0.9043 B(  2-N ,  4-C ) :   0.9045 
B(  2-N , 12-C ) :   0.9043 B(  3-C ,  5-H ) :   0.9673 B(  3-C ,  7-H ) :   0.9714 
B(  3-C ,  9-H ) :   0.9704 B(  4-C ,  6-H ) :   0.9673 B(  4-C ,  8-H ) :   0.9714 
B(  4-C , 10-H ) :   0.9704 B( 11-C , 13-H ) :   0.9706 B( 11-C , 15-H ) :   0.9731 
B( 11-C , 17-H ) :   0.9724 B( 12-C , 14-H ) :   0.9706 B( 12-C , 16-H ) :   0.9731 
B( 12-C , 18-H ) :   0.9724 

-------
TIMINGS
-------

Total SCF time: 0 days 0 hours 1 min 48 sec 

Total time                  ....     108.784 sec
Sum of individual times     ....     107.401 sec  ( 98.7%)

Fock matrix formation       ....      73.162 sec  ( 67.3%)
  Split-RI-J                ....      13.487 sec  ( 18.4% of F)
  Chain of spheres X        ....      32.959 sec  ( 45.0% of F)
  XC integration            ....       8.905 sec  ( 12.2% of F)
    Basis function eval.    ....       1.506 sec  ( 16.9% of XC)
    Density eval.           ....       0.828 sec  (  9.3% of XC)
    XC-Functional eval.     ....       0.555 sec  (  6.2% of XC)
    XC-Potential eval.      ....       0.869 sec  (  9.8% of XC)
Diagonalization             ....       0.049 sec  (  0.0%)
Density matrix formation    ....       0.004 sec  (  0.0%)
Population analysis         ....       0.008 sec  (  0.0%)
Initial guess               ....       0.112 sec  (  0.1%)
Orbital Transformation      ....       0.000 sec  (  0.0%)
Orbital Orthonormalization  ....       0.000 sec  (  0.0%)
DIIS solution               ....      26.780 sec  ( 24.6%)
SOSCF solution              ....       6.412 sec  (  5.9%)
Grid generation             ....       0.874 sec  (  0.8%)

Maximum memory used throughout the entire SCF-calculation: 53.6 MB


-------------------------------------------------------------------------------
                          DFT DISPERSION CORRECTION                            
                                                                               
                                 DFTD4 V2.5                                    
-------------------------------------------------------------------------------
The WB97X functional is recognized
Active option DFTDOPT                   ...         5   

Starting D4
-------------------------   ----------------
Dispersion correction           -0.002056269
-------------------------   ----------------


-------------------------   --------------------
FINAL SINGLE POINT ENERGY      -307.329457296174
-------------------------   --------------------



           ************************************************************
           *        Program running with 4 parallel MPI-processes     *
           *              working on a common directory               *
           ************************************************************
------------------------------------------------------------------------------
                         ORCA SCF GRADIENT CALCULATION
------------------------------------------------------------------------------

 ... reading COSX grid (gridx3)
Gradient of the Kohn-Sham DFT energy:
Kohn-Sham wavefunction type      ... RKS
Hartree-Fock exchange scaling    ...    0.158
Number of operators              ...    1
Number of atoms                  ...   20
Basis set dimensions             ...  163
Integral neglect threshold       ... 2.5e-11
Integral primitive cutoff        ... 2.5e-12
SHARK Integral package           ... ON

Nuc. rep. gradient       (SHARK) ... done (  0.0 sec)
HCore & Overlap gradient (SHARK) ... done (  0.1 sec)
RI-J gradient            (SHARK) ... done (  0.3 sec)
COSX-gradient                    ... done (  9.1 sec)
Exchange-correlation gradient    ... Starting D4
done
Dispersion correction            ... Starting D4
Starting D4
Starting D4


------------------- 
Dispersion Gradient 
------------------- 
   1  :    0.000000000   -0.000000000    0.000008898
   2  :   -0.000000119    0.000018553    0.000000610
   3  :    0.000000119   -0.000018553    0.000000610
   4  :    0.000002803    0.000022484   -0.000023927
   5  :   -0.000002803   -0.000022484   -0.000023927
   6  :    0.000000716    0.000006950   -0.000002275
   7  :   -0.000000716   -0.000006950   -0.000002275
   8  :    0.000001340    0.000006011   -0.000002709
   9  :   -0.000001340   -0.000006011   -0.000002709
  10  :    0.000000112    0.000007231   -0.000002906
  11  :   -0.000000112   -0.000007231   -0.000002906
  12  :   -0.000003229    0.000036563    0.000015844
  13  :    0.000003229   -0.000036563    0.000015844
  14  :   -0.000000995    0.000010419    0.000003871
  15  :    0.000000995   -0.000010419    0.000003871
  16  :   -0.000000952    0.000006963    0.000002860
  17  :    0.000000952   -0.000006963    0.000002860
  18  :   -0.000000097    0.000007391    0.000003056
  19  :    0.000000097   -0.000007391    0.000003056
  20  :    0.000000000   -0.000000000    0.000002256

  |G| =    0.000071519

done

------------------
CARTESIAN GRADIENT
------------------

   1   C   :   -0.000000016   -0.000000033    0.010538201
   2   N   :    0.000682360   -0.001378692    0.000814728
   3   N   :   -0.000682341    0.001378698    0.000814719
   4   C   :    0.002796318    0.002930944   -0.011227861
   5   C   :   -0.002796298   -0.002930947   -0.011227900
   6   H   :   -0.002921985   -0.004740469    0.000178790
   7   H   :    0.002921985    0.004740464    0.000178782
   8   H   :   -0.003759373    0.004542262    0.002799290
   9   H   :    0.003759370   -0.004542274    0.002799303
  10   H   :    0.004882285   -0.000399499    0.002695268
  11   H   :   -0.004882288    0.000399502    0.002695277
  12   C   :   -0.001900126    0.008627742    0.007194618
  13   C   :    0.001900134   -0.008627746    0.007194654
  14   H   :    0.000624753    0.001768821   -0.005599363
  15   H   :   -0.000624756   -0.001768818   -0.005599368
  16   H   :   -0.004393352   -0.003447456    0.000196080
  17   H   :    0.004393353    0.003447454    0.000196088
  18   H   :    0.004361680   -0.002578966    0.001613702
  19   H   :   -0.004361678    0.002578967    0.001613700
  20   H   :   -0.000000009   -0.000000005   -0.008153685

Difference to translation invariance:
           :    0.0000000172   -0.0000000507   -0.0002849760

Difference to rotation invariance:
           :   -0.0000000539   -0.0000000870    0.0004358642

Norm of the cartesian gradient     ...    0.0335667924
RMS gradient                       ...    0.0043334543
MAX gradient                       ...    0.0112279002

-------
TIMINGS
-------

Total SCF gradient time            ...       13.914 sec

One electron gradient       ....       0.059 sec  (  0.4%)
RI-J Coulomb gradient       ....       0.305 sec  (  2.2%)
COSX gradient               ....       9.066 sec  ( 65.2%)
XC gradient                 ....       2.912 sec  ( 20.9%)

Maximum memory used throughout the entire SCFGRAD-calculation: 41.5 MB
------------------------------------------------------------------------------
                         ORCA GEOMETRY RELAXATION STEP
------------------------------------------------------------------------------

Reading the OPT-File                    .... done
Getting information on internals        .... done
Copying old internal coords+grads       .... done
Making the new internal coordinates     .... (new redundants).... done
Validating the new internal coordinates .... (new redundants).... done
Calculating the B-matrix                .... done
Calculating the G,G- and P matrices     .... done
Transforming gradient to internals      .... done
Projecting the internal gradient        .... done
Number of atoms                         ....  20
Number of internal coordinates          ....  84
Current Energy                          ....  -307.329457296 Eh
Current gradient norm                   ....     0.033566792 Eh/bohr
Maximum allowed component of the step   ....  0.300
Current trust radius                    ....  0.300
Evaluating the initial hessian          ....  (Almloef) done
Projecting the Hessian                  .... done
Forming the augmented Hessian           .... done
Diagonalizing the augmented Hessian     .... done
Last element of RFO vector              ....  0.997413604
Lowest eigenvalues of augmented Hessian:
 -0.001802801  0.014221052  0.014221421  0.014555224  0.014558592
Length of the computed step             ....  0.072061985
The final length of the internal step   ....  0.072061985
Converting the step to cartesian space:
 Initial RMS(Int)=    0.0078626072
Transforming coordinates:
 Iter   0:  RMS(Cart)=    0.0230004857 RMS(Int)=    0.0078739094
 Iter   1:  RMS(Cart)=    0.0001218490 RMS(Int)=    0.0000622604
 Iter   2:  RMS(Cart)=    0.0000011612 RMS(Int)=    0.0000006969
 Iter   3:  RMS(Cart)=    0.0000000108 RMS(Int)=    0.0000000078
done
Storing new coordinates                 .... done

                                .--------------------.
          ----------------------|Geometry convergence|-------------------------
          Item                value                   Tolerance       Converged
          ---------------------------------------------------------------------
          RMS gradient        0.0028858105            0.0001000000      NO
          MAX gradient        0.0081394360            0.0003000000      NO
          RMS step            0.0078626072            0.0020000000      NO
          MAX step            0.0220375233            0.0040000000      NO
          ........................................................
          Max(Bonds)      0.0117      Max(Angles)    0.56
          Max(Dihed)        0.39      Max(Improp)    0.00
          ---------------------------------------------------------------------

The optimization has not yet converged - more geometry cycles are needed


    ---------------------------------------------------------------------------
                         Redundant Internal Coordinates
                            (Angstroem and degrees)

        Definition                    Value    dE/dq     Step     New-Value
    ----------------------------------------------------------------------------
     1. B(N   1,C   0)                1.3207  0.005347 -0.0039    1.3168   
     2. B(N   2,C   0)                1.3207  0.005347 -0.0039    1.3168   
     3. B(C   3,N   1)                1.4726  0.005965 -0.0076    1.4650   
     4. B(C   4,N   2)                1.4726  0.005965 -0.0076    1.4650   
     5. B(H   5,C   3)                1.0898 -0.005568  0.0081    1.0979   
     6. B(H   6,C   4)                1.0898 -0.005568  0.0081    1.0979   
     7. B(H   7,C   3)                1.0855 -0.006528  0.0094    1.0949   
     8. B(H   8,C   4)                1.0855 -0.006528  0.0094    1.0949   
     9. B(H   9,C   3)                1.0923 -0.005597  0.0083    1.1005   
    10. B(H  10,C   4)                1.0923 -0.005597  0.0083    1.1005   
    11. B(C  11,N   1)                1.4758  0.005703 -0.0074    1.4685   
    12. B(C  12,N   2)                1.4758  0.005703 -0.0074    1.4685   
    13. B(H  13,C  11)                1.0883 -0.005892  0.0086    1.0969   
    14. B(H  14,C  12)                1.0883 -0.005892  0.0086    1.0969   
    15. B(H  15,C  11)                1.0912 -0.005581  0.0082    1.0994   
    16. B(H  16,C  12)                1.0912 -0.005581  0.0082    1.0994   
    17. B(H  17,C  11)                1.0918 -0.005327  0.0078    1.0997   
    18. B(H  18,C  12)                1.0918 -0.005327  0.0078    1.0997   
    19. B(H  19,C   0)                1.0844 -0.008139  0.0117    1.0961   
    20. A(N   1,C   0,N   2)          131.20  0.004135   -0.56    130.64   
    21. A(N   2,C   0,H  19)          114.40 -0.002068    0.28    114.68   
    22. A(N   1,C   0,H  19)          114.40 -0.002068    0.28    114.68   
    23. A(C   0,N   1,C   3)          126.92  0.002217   -0.31    126.61   
    24. A(C   0,N   1,C  11)          118.58 -0.001280    0.17    118.75   
    25. A(C   3,N   1,C  11)          114.50 -0.000937    0.14    114.64   
    26. A(C   0,N   2,C   4)          126.92  0.002217   -0.31    126.61   
    27. A(C   4,N   2,C  12)          114.50 -0.000937    0.14    114.64   
    28. A(C   0,N   2,C  12)          118.58 -0.001280    0.17    118.75   
    29. A(N   1,C   3,H   7)          111.02  0.000213   -0.05    110.97   
    30. A(H   7,C   3,H   9)          110.35 -0.000041   -0.00    110.34   
    31. A(H   5,C   3,H   7)          108.09  0.000051   -0.03    108.06   
    32. A(N   1,C   3,H   9)          111.24 -0.000036    0.02    111.26   
    33. A(N   1,C   3,H   5)          107.54 -0.000021    0.01    107.55   
    34. A(H   5,C   3,H   9)          108.46 -0.000172    0.07    108.53   
    35. A(H   8,C   4,H  10)          110.35 -0.000041   -0.00    110.34   
    36. A(H   6,C   4,H  10)          108.46 -0.000172    0.07    108.53   
    37. A(N   2,C   4,H  10)          111.24 -0.000036    0.02    111.26   
    38. A(N   2,C   4,H   6)          107.54 -0.000021    0.01    107.55   
    39. A(H   6,C   4,H   8)          108.09  0.000051   -0.03    108.06   
    40. A(N   2,C   4,H   8)          111.02  0.000213   -0.05    110.97   
    41. A(H  15,C  11,H  17)          109.25  0.000001    0.01    109.26   
    42. A(H  13,C  11,H  17)          108.73 -0.000095    0.02    108.75   
    43. A(N   1,C  11,H  17)          109.48  0.000067   -0.01    109.47   
    44. A(H  13,C  11,H  15)          109.44  0.000077   -0.02    109.42   
    45. A(N   1,C  11,H  15)          109.57 -0.000173    0.03    109.60   
    46. A(N   1,C  11,H  13)          110.35  0.000124   -0.03    110.32   
    47. A(H  16,C  12,H  18)          109.25  0.000001    0.01    109.26   
    48. A(H  14,C  12,H  18)          108.73 -0.000095    0.02    108.75   
    49. A(N   2,C  12,H  18)          109.48  0.000067   -0.01    109.47   
    50. A(H  14,C  12,H  16)          109.44  0.000077   -0.02    109.42   
    51. A(N   2,C  12,H  16)          109.57 -0.000173    0.03    109.60   
    52. A(N   2,C  12,H  14)          110.35  0.000124   -0.03    110.32   
    53. D(C  11,N   1,C   0,H  19)     -9.64 -0.000278    0.39     -9.25   
    54. D(C  11,N   1,C   0,N   2)    170.36 -0.000278    0.39    170.75   
    55. D(C   3,N   1,C   0,N   2)    -10.38 -0.000231    0.26    -10.12   
    56. D(C   3,N   1,C   0,H  19)    169.62 -0.000231    0.26    169.88   
    57. D(C  12,N   2,C   0,N   1)    170.36 -0.000278    0.39    170.75   
    58. D(C   4,N   2,C   0,N   1)    -10.38 -0.000231    0.26    -10.12   
    59. D(C   4,N   2,C   0,H  19)    169.62 -0.000231    0.26    169.88   
    60. D(C  12,N   2,C   0,H  19)     -9.64 -0.000278    0.39     -9.25   
    61. D(H   7,C   3,N   1,C   0)    -26.85  0.000079   -0.19    -27.04   
    62. D(H   7,C   3,N   1,C  11)    152.43  0.000121   -0.31    152.12   
    63. D(H   9,C   3,N   1,C   0)     96.45  0.000152   -0.22     96.23   
    64. D(H   5,C   3,N   1,C  11)     34.37 -0.000048   -0.25     34.13   
    65. D(H   9,C   3,N   1,C  11)    -84.26  0.000194   -0.34    -84.60   
    66. D(H   5,C   3,N   1,C   0)   -144.91 -0.000090   -0.12   -145.04   
    67. D(H   6,C   4,N   2,C   0)   -144.91 -0.000090   -0.12   -145.04   
    68. D(H  10,C   4,N   2,C  12)    -84.26  0.000194   -0.34    -84.60   
    69. D(H  10,C   4,N   2,C   0)     96.45  0.000152   -0.22     96.23   
    70. D(H   8,C   4,N   2,C  12)    152.43  0.000121   -0.31    152.12   
    71. D(H   8,C   4,N   2,C   0)    -26.85  0.000079   -0.19    -27.04   
    72. D(H   6,C   4,N   2,C  12)     34.37 -0.000048   -0.25     34.13   
    73. D(H  17,C  11,N   1,C   3)     61.41 -0.000032   -0.01     61.39   
[...]
     28      -0.002444  -0.035912   0.033176   0.011889  -0.007333   0.032654
     29       0.016992   0.254244  -0.257257  -0.077013   0.047597  -0.201899
     30      -0.032819   0.447351   0.452576   0.132948   0.081581   0.354809
     31       0.002443  -0.035912  -0.033178  -0.011893  -0.007325  -0.032655
     32       0.016985  -0.254236  -0.257264  -0.077039  -0.047547  -0.201896
     33       0.003903  -0.000692   0.000874   0.061807  -0.064601  -0.024204
     34      -0.032178   0.002591  -0.002376   0.001863  -0.001976  -0.002159
     35      -0.013748   0.001286  -0.001383   0.013115  -0.013430  -0.002570
     36      -0.003902  -0.000692  -0.000874  -0.061846  -0.064565   0.024202
     37       0.032169   0.002591   0.002376  -0.001864  -0.001975   0.002159
     38      -0.013744  -0.001286  -0.001383   0.013123   0.013422  -0.002569
     39      -0.046251   0.003432  -0.003188   0.010475  -0.010704  -0.001239
     40      -0.099492   0.006901  -0.006519   0.009385  -0.009185   0.003150
     41       0.320499  -0.025143   0.024142  -0.029847   0.028572  -0.012292
     42       0.046238   0.003431   0.003188  -0.010481  -0.010698   0.001239
     43       0.099465   0.006900   0.006519  -0.009390  -0.009179  -0.003150
     44       0.320412   0.025140   0.024142  -0.029864  -0.028554  -0.012292
     45       0.353485  -0.025415   0.022384  -0.355147   0.370880   0.144617
     46       0.261929  -0.019867   0.017858  -0.270513   0.282153   0.108590
     47      -0.024530   0.001362  -0.000745   0.029190  -0.030811  -0.012885
     48      -0.353389  -0.025412  -0.022383   0.355367   0.370673  -0.144607
     49      -0.261858  -0.019865  -0.017857   0.270681   0.281995  -0.108583
     50      -0.024524  -0.001362  -0.000745   0.029208   0.030795  -0.012884
     51      -0.352707   0.028139  -0.027160  -0.387090   0.404132   0.141908
     52       0.210874  -0.017327   0.016981   0.238923  -0.249349  -0.087201
     53      -0.135227   0.009965  -0.009092  -0.152417   0.159267   0.056613
     54       0.352612   0.028136   0.027160   0.387330   0.403906  -0.141898
     55      -0.210817  -0.017326  -0.016981  -0.239071  -0.249209   0.087195
     56      -0.135190  -0.009964  -0.009092  -0.152511  -0.159178   0.056609
     57      -0.000000   0.000215  -0.000000   0.000000  -0.000041   0.000000
     58      -0.000000   0.001146   0.000000  -0.000000  -0.000551  -0.000000
     59      -0.020849   0.000000  -0.017459  -0.003177   0.000000   0.039428
                 54         55         56         57         58         59    
      0       0.000271   0.000000  -0.000104   0.000000  -0.000175  -0.000000
      1       0.000330  -0.000000  -0.000355  -0.000000  -0.000089  -0.000000
      2       0.000000   0.048135  -0.000000   0.074666  -0.000000   0.003328
      3      -0.000396  -0.000154   0.000124  -0.000008  -0.000303   0.000421
      4      -0.000290   0.001752  -0.000336   0.001718   0.000288   0.000130
      5       0.000282  -0.000433  -0.000171  -0.001380   0.000549  -0.000641
      6      -0.000396   0.000154   0.000124   0.000008  -0.000303  -0.000421
      7      -0.000290  -0.001752  -0.000336  -0.001718   0.000288  -0.000130
      8      -0.000282  -0.000433   0.000171  -0.001380  -0.000549  -0.000641
      9       0.054144   0.003544  -0.002784   0.001429   0.036604  -0.032627
     10       0.033951   0.000971  -0.000317  -0.000381  -0.054763   0.055726
     11       0.012549  -0.000201  -0.000433  -0.001276  -0.013415   0.015456
     12       0.054145  -0.003545  -0.002784  -0.001429   0.036601   0.032630
     13       0.033952  -0.000971  -0.000317   0.000381  -0.054759  -0.055730
     14      -0.012549  -0.000201   0.000433  -0.001276   0.013414   0.015457
     15      -0.250670  -0.012053   0.008219  -0.000894   0.114791  -0.126981
     16      -0.481765  -0.022899   0.015107  -0.003450   0.199689  -0.226439
     17       0.018998   0.001806  -0.001698  -0.001028  -0.008383   0.007645
     18      -0.250676   0.012053   0.008219   0.000895   0.114783   0.126989
     19      -0.481775   0.022899   0.015106   0.003450   0.199672   0.226452
     20      -0.018998   0.001806   0.001698  -0.001028   0.008382   0.007645
     21      -0.030688  -0.011982   0.009157  -0.010411  -0.366984   0.369166
     22       0.047586   0.014308  -0.010467   0.013824   0.441125  -0.443357
     23       0.028488   0.009176  -0.006997   0.007806   0.264262  -0.264940
     24      -0.030689   0.011983   0.009157   0.010411  -0.366957  -0.369190
     25       0.047588  -0.014308  -0.010468  -0.013823   0.441095   0.443388
     26      -0.028488   0.009177   0.006998   0.007805  -0.264245  -0.264958
     27      -0.357553  -0.017218   0.017404  -0.001431  -0.180136   0.135209
     28       0.033450   0.001371  -0.001507  -0.000045   0.005295  -0.005330
     29      -0.202555  -0.009016   0.009641  -0.000254  -0.103017   0.079544
     30      -0.357562   0.017218   0.017404   0.001430  -0.180126  -0.135222
     31       0.033452  -0.001371  -0.001507   0.000045   0.005295   0.005331
     32       0.202560  -0.009016  -0.009641  -0.000254   0.103011   0.079551
     33      -0.015621   0.007651  -0.010118  -0.006565  -0.000111  -0.000162
     34      -0.001928   0.030785  -0.035937  -0.018421  -0.000621   0.000055
     35      -0.000711  -0.047127   0.056044   0.030185   0.001233  -0.000328
     36      -0.015620  -0.007651  -0.010118   0.006565  -0.000112   0.000162
     37      -0.001928  -0.030785  -0.035937   0.018421  -0.000621  -0.000055
     38       0.000711  -0.047127  -0.056044   0.030185  -0.001233  -0.000328
     39       0.000210  -0.070927   0.084699   0.046034   0.001815  -0.000498
     40       0.004573  -0.153324   0.183194   0.099437   0.004108  -0.001091
     41      -0.016817   0.487672  -0.584838  -0.320723  -0.011081   0.001406
     42       0.000210   0.070927   0.084697  -0.046034   0.001815   0.000498
     43       0.004573   0.153324   0.183193  -0.099437   0.004108   0.001092
     44       0.016817   0.487674   0.584837  -0.320724   0.011082   0.001408
     45       0.094834  -0.175954   0.209377   0.111451   0.004627  -0.000804
     46       0.070572  -0.128147   0.151549   0.079256   0.003589  -0.000928
     47      -0.008949   0.007938  -0.010767  -0.007494   0.000358  -0.000506
     48       0.094833   0.175954   0.209376  -0.111451   0.004627   0.000805
     49       0.070571   0.128147   0.151548  -0.079257   0.003589   0.000928
     50       0.008949   0.007939   0.010767  -0.007494  -0.000358  -0.000506
     51       0.087805   0.157206  -0.176398  -0.082496  -0.003903   0.001690
     52      -0.053738  -0.089524   0.099806   0.045859   0.002062  -0.000861
     53       0.035199   0.054497  -0.061224  -0.028829  -0.000592  -0.000089
     54       0.087804  -0.157207  -0.176397   0.082496  -0.003903  -0.001691
     55      -0.053738   0.089524   0.099805  -0.045859   0.002062   0.000861
     56      -0.035199   0.054497   0.061224  -0.028829   0.000592  -0.000088
     57       0.001836  -0.000000   0.000377  -0.000000   0.000440   0.000000
     58      -0.000402   0.000000   0.002208   0.000000   0.001192   0.000000
     59      -0.000001  -0.537784   0.000001  -0.839243   0.000002  -0.028479


-----------
IR SPECTRUM
-----------

 Mode   freq       eps      Int      T**2         TX        TY        TZ
       cm**-1   L/(mol*cm) km/mol    a.u.
----------------------------------------------------------------------------
  6:     62.76   0.000005    0.03  0.000027  (-0.000000 -0.000000 -0.005168)
  7:    139.99   0.000063    0.32  0.000141  ( 0.007969  0.008821 -0.000000)
  8:    143.35   0.000295    1.49  0.000643  (-0.022614 -0.011480  0.000000)
  9:    154.46   0.000003    0.02  0.000007  (-0.000003 -0.000001 -0.002597)
 10:    164.78   0.000000    0.00  0.000000  ( 0.000001  0.000001  0.000514)
 11:    220.59   0.000454    2.29  0.000642  (-0.024612 -0.006038  0.000000)
 12:    275.31   0.000004    0.02  0.000005  (-0.000000  0.000000 -0.002188)
 13:    321.85   0.000116    0.59  0.000112  ( 0.000000 -0.000000  0.010600)
 14:    349.74   0.000844    4.27  0.000753  (-0.026057  0.008613  0.000000)
 15:    407.72   0.000005    0.02  0.000004  (-0.000000  0.000000 -0.001879)
 16:    448.05   0.003194   16.14  0.002225  ( 0.042125 -0.021215 -0.000000)
 17:    497.52   0.001981   10.01  0.001243  ( 0.034197 -0.008566 -0.000000)
 18:    623.01   0.000204    1.03  0.000102  ( 0.000000 -0.000000  0.010116)
 19:    890.02   0.000999    5.05  0.000350  ( 0.000000 -0.000000 -0.018719)
 20:    907.99   0.003415   17.26  0.001174  ( 0.000529 -0.034254  0.000000)
 21:   1010.36   0.001579    7.98  0.000488  ( 0.008762 -0.020274  0.000000)
 22:   1082.67   0.003323   16.79  0.000958  ( 0.000001 -0.000002  0.030949)
 23:   1083.15   0.000993    5.02  0.000286  (-0.005188  0.016100  0.000004)
 24:   1107.36   0.000541    2.73  0.000152  (-0.000000  0.000000 -0.012348)
 25:   1121.75   0.000885    4.47  0.000246  (-0.009621  0.012395 -0.000000)
 26:   1123.54   0.000035    0.18  0.000010  ( 0.000000 -0.000000 -0.003120)
 27:   1164.15   0.001649    8.33  0.000442  ( 0.006204  0.020086  0.000000)
 28:   1165.37   0.000043    0.22  0.000012  (-0.000000 -0.000000  0.003394)
 29:   1187.73   0.012241   61.86  0.003216  ( 0.003043 -0.056630 -0.000000)
 30:   1237.58   0.000689    3.48  0.000174  ( 0.005534 -0.011965  0.000000)
 31:   1336.33   0.006458   32.64  0.001508  (-0.000000  0.000000 -0.038835)
 32:   1435.36   0.001961    9.91  0.000426  (-0.003575  0.020334  0.000000)
 33:   1444.00   0.000495    2.50  0.000107  (-0.000000  0.000000  0.010342)
 34:   1446.65   0.001987   10.04  0.000429  ( 0.009919  0.018173  0.000000)
 35:   1451.66   0.000106    0.53  0.000023  (-0.004743  0.000485 -0.000000)
 36:   1456.72   0.000348    1.76  0.000075  (-0.000000  0.000000  0.008632)
 37:   1462.99   0.011801   59.64  0.002517  (-0.003398 -0.050056  0.000000)
 38:   1466.91   0.010145   51.27  0.002158  ( 0.046454  0.000374 -0.000000)
 39:   1471.98   0.000090    0.45  0.000019  (-0.000000  0.000000 -0.004367)
 40:   1475.43   0.000789    3.99  0.000167  (-0.000000  0.000000 -0.012922)
 41:   1478.96   0.001824    9.22  0.000385  ( 0.000000 -0.000000  0.019620)
 42:   1488.80   0.004079   20.61  0.000855  ( 0.029209 -0.001324 -0.000000)
 43:   1492.76   0.001067    5.39  0.000223  (-0.000001 -0.000000 -0.014938)
 44:   1504.39   0.007349   37.14  0.001524  (-0.007644  0.038288 -0.000000)
 45:   1572.21   0.006280   31.74  0.001247  (-0.000000  0.000000  0.035307)
 46:   1814.99   0.146406  739.88  0.025173  (-0.001220  0.158654  0.000000)
 47:   3084.31   0.002467   12.47  0.000250  ( 0.001047 -0.015764  0.000001)
 48:   3084.57   0.000759    3.84  0.000077  ( 0.000000 -0.000002 -0.008763)
 49:   3090.25   0.000526    2.66  0.000053  (-0.000325  0.007279 -0.000000)
 50:   3094.48   0.001403    7.09  0.000142  (-0.000000  0.000000  0.011896)
 51:   3189.68   0.000003    0.02  0.000000  (-0.000002 -0.000001  0.000562)
 52:   3189.98   0.000442    2.23  0.000043  (-0.006107 -0.002430 -0.000000)
 53:   3193.57   0.000001    0.00  0.000000  (-0.000000 -0.000000  0.000288)
 54:   3195.36   0.000074    0.37  0.000007  ( 0.002604  0.000638 -0.000000)
 55:   3215.38   0.000276    1.40  0.000027  (-0.000000  0.000000 -0.005176)
 56:   3218.10   0.000210    1.06  0.000020  (-0.001256 -0.004332 -0.000000)
 57:   3225.44   0.000000    0.00  0.000000  (-0.000000  0.000000 -0.000046)
 58:   3237.00   0.000189    0.95  0.000018  ( 0.003800 -0.001940  0.000000)
 59:   3239.61   0.000067    0.34  0.000006  ( 0.000000 -0.000000  0.002533)

* The epsilon (eps) is given for a Dirac delta lineshape.
** The dipole moment derivative (T) already includes vibrational overlap.

The first frequency considered to be a vibration is 6
The total number of vibrations considered is 54


--------------------------
THERMOCHEMISTRY AT 298.15K
--------------------------

Temperature         ... 298.15 K
Pressure            ... 1.00 atm
Total Mass          ... 101.17 AMU

Throughout the following assumptions are being made:
  (1) The electronic state is orbitally nondegenerate
  (2) There are no thermally accessible electronically excited states
  (3) Hindered rotations indicated by low frequency modes are not
      treated as such but are treated as vibrations and this may
      cause some error
  (4) All equations used are the standard statistical mechanics
      equations for an ideal gas
  (5) All vibrations are strictly harmonic

freq.      62.76  E(vib)   ...       0.51 
freq.     139.99  E(vib)   ...       0.41 
freq.     143.35  E(vib)   ...       0.41 
freq.     154.46  E(vib)   ...       0.40 
freq.     164.78  E(vib)   ...       0.39 
freq.     220.59  E(vib)   ...       0.33 
freq.     275.31  E(vib)   ...       0.28 
freq.     321.85  E(vib)   ...       0.25 
freq.     349.74  E(vib)   ...       0.23 
freq.     407.72  E(vib)   ...       0.19 
freq.     448.05  E(vib)   ...       0.17 
freq.     497.52  E(vib)   ...       0.14 
freq.     623.01  E(vib)   ...       0.09 
freq.     890.02  E(vib)   ...       0.04 
freq.     907.99  E(vib)   ...       0.03 
freq.    1010.36  E(vib)   ...       0.02 
freq.    1082.67  E(vib)   ...       0.02 
freq.    1083.15  E(vib)   ...       0.02 
freq.    1107.36  E(vib)   ...       0.02 
freq.    1121.75  E(vib)   ...       0.01 
freq.    1123.54  E(vib)   ...       0.01 
freq.    1164.15  E(vib)   ...       0.01 
freq.    1165.37  E(vib)   ...       0.01 
freq.    1187.73  E(vib)   ...       0.01 
freq.    1237.58  E(vib)   ...       0.01 
freq.    1336.33  E(vib)   ...       0.01 
freq.    1435.36  E(vib)   ...       0.00 
freq.    1444.00  E(vib)   ...       0.00 
freq.    1446.65  E(vib)   ...       0.00 
freq.    1451.66  E(vib)   ...       0.00 
freq.    1456.72  E(vib)   ...       0.00 
freq.    1462.99  E(vib)   ...       0.00 
freq.    1466.91  E(vib)   ...       0.00 
freq.    1471.98  E(vib)   ...       0.00 
freq.    1475.43  E(vib)   ...       0.00 
freq.    1478.96  E(vib)   ...       0.00 
freq.    1488.80  E(vib)   ...       0.00 
freq.    1492.76  E(vib)   ...       0.00 
freq.    1504.39  E(vib)   ...       0.00 
freq.    1572.21  E(vib)   ...       0.00 
freq.    1814.99  E(vib)   ...       0.00 
freq.    3084.31  E(vib)   ...       0.00 
freq.    3084.57  E(vib)   ...       0.00 
freq.    3090.25  E(vib)   ...       0.00 
freq.    3094.48  E(vib)   ...       0.00 
freq.    3189.68  E(vib)   ...       0.00 
freq.    3189.98  E(vib)   ...       0.00 
freq.    3193.57  E(vib)   ...       0.00 
freq.    3195.36  E(vib)   ...       0.00 
freq.    3215.38  E(vib)   ...       0.00 
freq.    3218.10  E(vib)   ...       0.00 
freq.    3225.44  E(vib)   ...       0.00 
freq.    3237.00  E(vib)   ...       0.00 
freq.    3239.61  E(vib)   ...       0.00 

------------
INNER ENERGY
------------

The inner energy is: U= E(el) + E(ZPE) + E(vib) + E(rot) + E(trans)
    E(el)   - is the total energy from the electronic structure calculation
              = E(kin-el) + E(nuc-el) + E(el-el) + E(nuc-nuc)
    E(ZPE)  - the the zero temperature vibrational energy from the frequency calculation
    E(vib)  - the the finite temperature correction to E(ZPE) due to population
              of excited vibrational states
    E(rot)  - is the rotational thermal energy
    E(trans)- is the translational thermal energy

Summary of contributions to the inner energy U:
Electronic energy                ...   -307.33042120 Eh
Zero point energy                ...      0.18669273 Eh     117.15 kcal/mol
Thermal vibrational correction   ...      0.00648115 Eh       4.07 kcal/mol
Thermal rotational correction    ...      0.00141627 Eh       0.89 kcal/mol
Thermal translational correction ...      0.00141627 Eh       0.89 kcal/mol
-----------------------------------------------------------------------
Total thermal energy                   -307.13441477 Eh


Summary of corrections to the electronic energy:
(perhaps to be used in another calculation)
Total thermal correction                  0.00931369 Eh       5.84 kcal/mol
Non-thermal (ZPE) correction              0.18669273 Eh     117.15 kcal/mol
-----------------------------------------------------------------------
Total correction                          0.19600642 Eh     123.00 kcal/mol


--------
ENTHALPY
--------

The enthalpy is H = U + kB*T
                kB is Boltzmann's constant
Total free energy                 ...   -307.13441477 Eh 
Thermal Enthalpy correction       ...      0.00094421 Eh       0.59 kcal/mol
-----------------------------------------------------------------------
Total Enthalpy                    ...   -307.13347056 Eh


Note: Rotational entropy computed according to Herzberg 
Infrared and Raman Spectra, Chapter V,1, Van Nostrand Reinhold, 1945 
Point Group:  C2, Symmetry Number:   2  
Rotational constants in cm-1:     0.154796     0.055894     0.043051 

Vibrational entropy computed according to the QRRHO of S. Grimme
Chem.Eur.J. 2012 18 9955


-------
ENTROPY
-------

The entropy contributions are T*S = T*(S(el)+S(vib)+S(rot)+S(trans))
     S(el)   - electronic entropy
     S(vib)  - vibrational entropy
     S(rot)  - rotational entropy
     S(trans)- translational entropy
The entropies will be listed as multiplied by the temperature to get
units of energy

Electronic entropy                ...      0.00000000 Eh      0.00 kcal/mol
Vibrational entropy               ...      0.01133782 Eh      7.11 kcal/mol
Rotational entropy                ...      0.01258366 Eh      7.90 kcal/mol
Translational entropy             ...      0.01888776 Eh     11.85 kcal/mol
-----------------------------------------------------------------------
Final entropy term                ...      0.04280924 Eh     26.86 kcal/mol

In case the symmetry of your molecule has not been determined correctly
or in case you have a reason to use a different symmetry number we print 
out the resulting rotational entropy values for sn=1,12 :
 --------------------------------------------------------
|  sn= 1 | S(rot)=       0.01323811 Eh      8.31 kcal/mol|
|  sn= 2 | S(rot)=       0.01258366 Eh      7.90 kcal/mol|
|  sn= 3 | S(rot)=       0.01220082 Eh      7.66 kcal/mol|
|  sn= 4 | S(rot)=       0.01192920 Eh      7.49 kcal/mol|
|  sn= 5 | S(rot)=       0.01171851 Eh      7.35 kcal/mol|
|  sn= 6 | S(rot)=       0.01154637 Eh      7.25 kcal/mol|
|  sn= 7 | S(rot)=       0.01140082 Eh      7.15 kcal/mol|
|  sn= 8 | S(rot)=       0.01127474 Eh      7.07 kcal/mol|
|  sn= 9 | S(rot)=       0.01116353 Eh      7.01 kcal/mol|
|  sn=10 | S(rot)=       0.01106405 Eh      6.94 kcal/mol|
|  sn=11 | S(rot)=       0.01097406 Eh      6.89 kcal/mol|
|  sn=12 | S(rot)=       0.01089191 Eh      6.83 kcal/mol|
 --------------------------------------------------------


-------------------
GIBBS FREE ENERGY
-------------------

The Gibbs free energy is G = H - T*S

Total enthalpy                    ...   -307.13347056 Eh 
Total entropy correction          ...     -0.04280924 Eh    -26.86 kcal/mol
-----------------------------------------------------------------------
Final Gibbs free energy         ...   -307.17627980 Eh

For completeness - the Gibbs free energy minus the electronic energy
G-E(el)                           ...      0.15414140 Eh     96.72 kcal/mol


Timings for individual modules:

Sum of individual times         ...      858.046 sec (=  14.301 min)
GTO integral calculation        ...       22.515 sec (=   0.375 min)   2.6 %
SCF iterations                  ...      514.296 sec (=   8.572 min)  59.9 %
SCF Gradient evaluation         ...       72.771 sec (=   1.213 min)   8.5 %
Geometry relaxation             ...        0.268 sec (=   0.004 min)   0.0 %
Analytical frequency calculation...      248.196 sec (=   4.137 min)  28.9 %
                             ****ORCA TERMINATED NORMALLY****
TOTAL RUN TIME: 0 days 0 hours 14 minutes 43 seconds 747 msec
