
                                 *****************
                                 * O   R   C   A *
                                 *****************

                                            #,                                       
                                            ###                                      
                                            ####                                     
                                            #####                                    
                                            ######                                   
                                           ########,                                 
                                     ,,################,,,,,                         
                               ,,#################################,,                 
                          ,,##########################################,,             
                       ,#########################################, ''#####,          
                    ,#############################################,,   '####,        
                  ,##################################################,,,,####,       
                ,###########''''           ''''###############################       
              ,#####''   ,,,,##########,,,,          '''####'''          '####       
            ,##' ,,,,###########################,,,                        '##       
           ' ,,###''''                  '''############,,,                           
         ,,##''                                '''############,,,,        ,,,,,,###''
      ,#''                                            '''#######################'''  
     '                                                          ''''####''''         
             ,#######,   #######,   ,#######,      ##                                
            ,#'     '#,  ##    ##  ,#'     '#,    #''#        ######   ,####,        
            ##       ##  ##   ,#'  ##            #'  '#       #        #'  '#        
            ##       ##  #######   ##           ,######,      #####,   #    #        
            '#,     ,#'  ##    ##  '#,     ,#' ,#      #,         ##   #,  ,#        
             '#######'   ##     ##  '#######'  #'      '#     #####' # '####'        



                  #######################################################
                  #                        -***-                        #
                  #          Department of theory and spectroscopy      #
                  #    Directorship and core code : Frank Neese         #
                  #        Max Planck Institute fuer Kohlenforschung    #
                  #                Kaiser Wilhelm Platz 1               #
                  #                 D-45470 Muelheim/Ruhr               #
                  #                      Germany                        #
                  #                                                     #
                  #                  All rights reserved                #
                  #                        -***-                        #
                  #######################################################


                         Program Version 5.0.3 -  RELEASE  -


 With contributions from (in alphabetic order):
   Daniel Aravena         : Magnetic Suceptibility
   Michael Atanasov       : Ab Initio Ligand Field Theory (pilot matlab implementation)
   Alexander A. Auer      : GIAO ZORA, VPT2 properties, NMR spectrum
   Ute Becker             : Parallelization
   Giovanni Bistoni       : ED, misc. LED, open-shell LED, HFLD
   Martin Brehm           : Molecular dynamics
   Dmytro Bykov           : SCF Hessian
   Vijay G. Chilkuri      : MRCI spin determinant printing, contributions to CSF-ICE
   Dipayan Datta          : RHF DLPNO-CCSD density
   Achintya Kumar Dutta   : EOM-CC, STEOM-CC
   Dmitry Ganyushin       : Spin-Orbit,Spin-Spin,Magnetic field MRCI
   Miquel Garcia          : C-PCM and meta-GGA Hessian, CC/C-PCM, Gaussian charge scheme
   Yang Guo               : DLPNO-NEVPT2, F12-NEVPT2, CIM, IAO-localization
   Andreas Hansen         : Spin unrestricted coupled pair/coupled cluster methods
   Benjamin Helmich-Paris : MC-RPA, TRAH-SCF, COSX integrals
   Lee Huntington         : MR-EOM, pCC
   Robert Izsak           : Overlap fitted RIJCOSX, COSX-SCS-MP3, EOM
   Marcus Kettner         : VPT2
   Christian Kollmar      : KDIIS, OOCD, Brueckner-CCSD(T), CCSD density, CASPT2, CASPT2-K
   Simone Kossmann        : Meta GGA functionals, TD-DFT gradient, OOMP2, MP2 Hessian
   Martin Krupicka        : Initial AUTO-CI
   Lucas Lang             : DCDCAS
   Marvin Lechner         : AUTO-CI (C++ implementation), FIC-MRCC
   Dagmar Lenk            : GEPOL surface, SMD
   Dimitrios Liakos       : Extrapolation schemes; Compound Job, initial MDCI parallelization
   Dimitrios Manganas     : Further ROCIS development; embedding schemes
   Dimitrios Pantazis     : SARC Basis sets
   Anastasios Papadopoulos: AUTO-CI, single reference methods and gradients
   Taras Petrenko         : DFT Hessian,TD-DFT gradient, ASA, ECA, R-Raman, ABS, FL, XAS/XES, NRVS
   Peter Pinski           : DLPNO-MP2, DLPNO-MP2 Gradient
   Christoph Reimann      : Effective Core Potentials
   Marius Retegan         : Local ZFS, SOC
   Christoph Riplinger    : Optimizer, TS searches, QM/MM, DLPNO-CCSD(T), (RO)-DLPNO pert. Triples
   Tobias Risthaus        : Range-separated hybrids, TD-DFT gradient, RPA, STAB
   Michael Roemelt        : Original ROCIS implementation
   Masaaki Saitow         : Open-shell DLPNO-CCSD energy and density
   Barbara Sandhoefer     : DKH picture change effects
   Avijit Sen             : IP-ROCIS
   Kantharuban Sivalingam : CASSCF convergence, NEVPT2, FIC-MRCI
   Bernardo de Souza      : ESD, SOC TD-DFT
   Georgi Stoychev        : AutoAux, RI-MP2 NMR, DLPNO-MP2 response
   Willem Van den Heuvel  : Paramagnetic NMR
   Boris Wezisla          : Elementary symmetry handling
   Frank Wennmohs         : Technical directorship


 We gratefully acknowledge several colleagues who have allowed us to
 interface, adapt or use parts of their codes:
   Stefan Grimme, W. Hujo, H. Kruse, P. Pracht,  : VdW corrections, initial TS optimization,
                  C. Bannwarth, S. Ehlert          DFT functionals, gCP, sTDA/sTD-DF
   Ed Valeev, F. Pavosevic, A. Kumar             : LibInt (2-el integral package), F12 methods
   Garnet Chan, S. Sharma, J. Yang, R. Olivares  : DMRG
   Ulf Ekstrom                                   : XCFun DFT Library
   Mihaly Kallay                                 : mrcc  (arbitrary order and MRCC methods)
   Jiri Pittner, Ondrej Demel                    : Mk-CCSD
   Frank Weinhold                                : gennbo (NPA and NBO analysis)
   Christopher J. Cramer and Donald G. Truhlar   : smd solvation model
   Lars Goerigk                                  : TD-DFT with DH, B97 family of functionals
   V. Asgeirsson, H. Jonsson                     : NEB implementation
   FAccTs GmbH                                   : IRC, NEB, NEB-TS, DLPNO-Multilevel, CI-OPT
                                                   MM, QMMM, 2- and 3-layer-ONIOM, Crystal-QMMM,
                                                   LR-CPCM, SF, NACMEs, symmetry and pop. for TD-DFT,
                                                   nearIR, NL-DFT gradient (VV10), updates on ESD,
                                                   ML-optimized integration grids
   S Lehtola, MJT Oliveira, MAL Marques          : LibXC Library
   Liviu Ungur et al                             : ANISO software


 Your calculation uses the libint2 library for the computation of 2-el integrals
 For citations please refer to: http://libint.valeyev.net

 Your ORCA version has been built with support for libXC version: 5.1.0
 For citations please refer to: https://tddft.org/programs/libxc/

 This ORCA versions uses:
   CBLAS   interface :  Fast vector & matrix operations
   LAPACKE interface :  Fast linear algebra routines
   SCALAPACK package :  Parallel linear algebra routines
   Shared memory     :  Shared parallel matrices
   BLAS/LAPACK       :  OpenBLAS 0.3.15  USE64BITINT DYNAMIC_ARCH NO_AFFINITY SkylakeX SINGLE_THREADED
        Core in use  :  SkylakeX
   Copyright (c) 2011-2014, The OpenBLAS Project


Your calculation utilizes the atom-pairwise dispersion correction
based on tight binding partial charges (D4)
Cite in your paper:
E.Caldeweyher, C.Bannwarth, S.Grimme, J.Chem.Phys., (2017), 147, 034112.
E.Caldeweyher, S.Ehlert, A.Hansen, H.Neugebauer, S.Grimme, J.Chem.Phys., (2018), in progress.
   

XCFun DFT library Copyright 2009-2010 Ulf Ekstrom and contributors.
See http://admol.org/xcfun for more information.
This is free software; see the source code for copying conditions.
There is ABSOLUTELY NO WARRANTY; not even for MERCHANTABILITY or FITNESS FOR A PARTICULAR PURPOSE.
For details see the documentation.
Scientific users of this library should cite U. Ekstrom, L. Visscher, R. Bast, A. J. Thorvaldsen and K. Ruud;
J.Chem.Theor.Comp. 2010, DOI: 10.1021/ct100117s
XCFun Version 0.99 

================================================================================

----- Orbital basis set information -----
Your calculation utilizes the basis: def2-SVP
   F. Weigend and R. Ahlrichs, Phys. Chem. Chem. Phys. 7, 3297 (2005).

----- AuxJ basis set information -----
Your calculation utilizes the auxiliary basis: def2/J
   F. Weigend, Phys. Chem. Chem. Phys. 8, 1057 (2006).

================================================================================
                                        WARNINGS
                       Please study these warnings very carefully!
================================================================================


WARNING: Geometry Optimization
  ===> : Switching off AutoStart
         For restart on a previous wavefunction, please use MOREAD

INFO   : the flag for use of the SHARK integral package has been found!

================================================================================
                                       INPUT FILE
================================================================================
NAME = Min_72.inp
|  1> ! Opt FREQ wB97X D4 Def2-SVP SlowConv TightSCF DEFGRID2 Def2/J RIJCOSX
|  2> %MAXCORE 4000
|  3> %scf MaxIter 20000 end
|  4> %geom
|  5> MaxIter 500
|  6> end
|  7> %PAL NPROCS 8 END
|  8> 
|  9> * xyz 1 1
| 10> C 0.14742 0.66983 -1.20749
| 11> C 0.04633 -0.72698 -1.21449
| 12> N 0.13709 1.08361 0.08178
| 13> N -0.14957 -1.08225 0.06345
| 14> C 0.03662 -0.06146 0.82249
| 15> H 0.34554 1.33674 -2.04389
| 16> H 0.11203 -1.36249 -2.09025
| 17> C 0.15534 2.48979 0.58321
| 18> C -0.2392 -2.43687 0.50405
| 19> H 0.09973 2.4365 1.70336
| 20> H -0.35008 -2.37866 1.58998
| 21> H 0.02507 -0.12901 1.92077
| 22> C -1.14097 3.10767 0.03241
| 23> C -1.5032 -3.01378 -0.11397
| 24> C 1.05171 -3.17197 0.22732
| 25> C 1.46912 3.15234 0.11794
| 26> H -1.00897 3.23652 -1.06325
| 27> H -1.41646 -3.07364 -1.24536
| 28> H 1.31678 -3.06035 -0.82466
| 29> H 1.59917 3.01148 -0.98209
| 30> H -2.00352 2.36559 0.21864
| 31> H -2.39521 -2.40943 0.15592
| 32> H 1.88955 -2.80524 0.86534
| 33> H 2.34563 2.6846 0.63197
| 34> H -1.43181 4.0865 0.46645
| 35> H -1.64189 -4.06654 0.18163
| 36> H 0.96236 -4.26727 0.32392
| 37> H 1.45745 4.25721 0.27546
| 38> **                         ****END OF INPUT****
================================================================================

                       *****************************
                       * Geometry Optimization Run *
                       *****************************

Geometry optimization settings:
Update method            Update   .... BFGS
Choice of coordinates    CoordSys .... Z-matrix Internals
Initial Hessian          InHess   .... Almoef's Model

Convergence Tolerances:
Energy Change            TolE     ....  5.0000e-06 Eh
Max. Gradient            TolMAXG  ....  3.0000e-04 Eh/bohr
RMS Gradient             TolRMSG  ....  1.0000e-04 Eh/bohr
Max. Displacement        TolMAXD  ....  4.0000e-03 bohr
RMS Displacement         TolRMSD  ....  2.0000e-03 bohr
Strict Convergence                ....  False
------------------------------------------------------------------------------
                        ORCA OPTIMIZATION COORDINATE SETUP
------------------------------------------------------------------------------

The optimization will be done in new redundant internal coordinates
Making redundant internal coordinates   ...  (new redundants) done
Evaluating the initial hessian          ...  (Almloef) done
Evaluating the coordinates              ...  done
Calculating the B-matrix                .... done
Calculating the G-matrix                .... done
Diagonalizing the G-matrix              .... done
Small eigenvalue found = 1.898e-02
Small eigenvalue found = 2.088e-02
The first mode is                       ....   69
The number of degrees of freedom        ....   78

    -----------------------------------------------------------------
                    Redundant Internal Coordinates


    -----------------------------------------------------------------
         Definition                    Initial Value    Approx d2E/dq
    -----------------------------------------------------------------
      1. B(C   1,C   0)                  1.4005         0.601197   
      2. B(N   2,C   0)                  1.3541         0.638529   
      3. B(N   3,C   1)                  1.3408         0.670476   
      4. B(C   4,N   3)                  1.2856         0.821119   
      5. B(C   4,N   2)                  1.3675         0.607919   
      6. B(H   5,C   0)                  1.0879         0.362853   
      7. B(H   6,C   1)                  1.0840         0.368070   
      8. B(C   7,N   2)                  1.4930         0.383278   
      9. B(C   8,N   3)                  1.4273         0.487957   
     10. B(H   9,C   7)                  1.1228         0.319228   
     11. B(H  10,C   8)                  1.0931         0.355987   
     12. B(H  11,C   4)                  1.1004         0.346581   
     13. B(C  12,C   7)                  1.5380         0.362698   
     14. B(C  13,C   8)                  1.5207         0.386586   
     15. B(C  14,C   8)                  1.5111         0.400445   
     16. B(C  15,C   7)                  1.5432         0.355891   
     17. B(H  16,C  12)                  1.1111         0.333267   
     18. B(H  17,C  13)                  1.1363         0.303790   
     19. B(H  18,C  14)                  1.0906         0.359322   
     20. B(H  19,C  15)                  1.1166         0.326563   
     21. B(H  20,C  12)                  1.1530         0.285724   
     22. B(H  21,C  13)                  1.1107         0.333673   
     23. B(H  22,C  14)                  1.1151         0.328333   
     24. B(H  23,C  15)                  1.1186         0.324179   
     25. B(H  24,C  12)                  1.1095         0.335153   
     26. B(H  25,C  13)                  1.1022         0.344275   
     27. B(H  26,C  14)                  1.1032         0.343085   
     28. B(H  27,C  15)                  1.1161         0.327173   
     29. A(C   1,C   0,H   5)          128.3677         0.351528   
     30. A(C   1,C   0,N   2)          107.9982         0.431122   
     31. A(N   2,C   0,H   5)          123.0978         0.352942   
     32. A(C   0,C   1,N   3)          105.6677         0.434924   
     33. A(N   3,C   1,H   6)          128.5732         0.356739   
     34. A(C   0,C   1,H   6)          125.7584         0.352378   
     35. A(C   4,N   2,C   7)          127.4196         0.392050   
     36. A(C   0,N   2,C   7)          127.4080         0.395438   
     37. A(C   0,N   2,C   4)          105.0950         0.429162   
     38. A(C   1,N   3,C   8)          123.7025         0.416248   
     39. A(C   1,N   3,C   4)          109.3406         0.457159   
     40. A(C   4,N   3,C   8)          125.4799         0.431610   
     41. A(N   2,C   4,H  11)          126.3555         0.347327   
     42. A(N   2,C   4,N   3)          110.8372         0.449087   
     43. A(N   3,C   4,H  11)          122.6156         0.365516   
     44. A(N   2,C   7,H   9)          106.8431         0.317427   
     45. A(H   9,C   7,C  15)          111.3048         0.315489   
     46. A(N   2,C   7,C  15)          108.2710         0.359690   
     47. A(C  12,C   7,C  15)          115.9179         0.358548   
     48. A(H   9,C   7,C  12)          109.5480         0.316463   
     49. A(N   2,C   7,C  12)          104.3467         0.360854   
     50. A(N   3,C   8,H  10)          105.2181         0.336283   
     51. A(N   3,C   8,C  14)          110.5804         0.382631   
     52. A(C  13,C   8,C  14)          116.8149         0.369867   
     53. A(H  10,C   8,C  14)          107.1267         0.327427   
     54. A(H  10,C   8,C  13)          109.8540         0.325534   
     55. A(N   3,C   8,C  13)          106.6665         0.380300   
     56. A(C   7,C  12,H  16)          107.4339         0.318689   
     57. A(H  20,C  12,H  24)          107.9697         0.277455   
     58. A(H  16,C  12,H  24)          108.3363         0.284136   
     59. A(C   7,C  12,H  24)          115.8006         0.318983   
     60. A(H  16,C  12,H  20)          108.8321         0.277214   
     61. A(C   7,C  12,H  20)          108.3078         0.310825   
     62. A(C   8,C  13,H  17)          111.1735         0.317195   
     63. A(H  17,C  13,H  25)          103.0803         0.281253   
     64. A(H  21,C  13,H  25)          110.6991         0.285380   
     65. A(C   8,C  13,H  25)          110.9740         0.323749   
     66. A(H  17,C  13,H  21)          109.3841         0.279897   
     67. A(C   8,C  13,H  21)          111.2448         0.322093   
     68. A(C   8,C  14,H  18)          109.5419         0.327931   
     69. A(H  22,C  14,H  26)          109.7106         0.284510   
     70. A(H  18,C  14,H  26)          101.8745         0.288543   
     71. A(C   8,C  14,H  26)          113.4387         0.325443   
     72. A(H  18,C  14,H  22)          109.6101         0.286567   
     73. A(C   8,C  14,H  22)          112.1538         0.323103   
     74. A(C   7,C  15,H  19)          109.9996         0.316657   
     75. A(H  23,C  15,H  27)          110.9330         0.281864   
     76. A(H  19,C  15,H  27)          105.3750         0.282184   
     77. A(C   7,C  15,H  27)          111.9354         0.316753   
     78. A(H  19,C  15,H  23)          107.9805         0.281782   
     79. A(C   7,C  15,H  23)          110.4270         0.316280   
     80. D(H   6,C   1,C   0,N   2)   -174.5122         0.024922   
     81. D(H   6,C   1,C   0,H   5)     -2.8164         0.024922   
     82. D(N   3,C   1,C   0,H   5)    177.4637         0.024922   
     83. D(N   3,C   1,C   0,N   2)      5.7679         0.024922   
     84. D(C   7,N   2,C   0,H   5)     11.0477         0.033173   
     85. D(C   7,N   2,C   0,C   1)   -176.7208         0.033173   
     86. D(C   4,N   2,C   0,H   5)   -171.9824         0.033173   
     87. D(C   4,N   2,C   0,C   1)      0.2491         0.033173   
     88. D(C   8,N   3,C   1,C   0)   -176.7588         0.036892   
     89. D(C   4,N   3,C   1,H   6)    170.3135         0.036892   
     90. D(C   8,N   3,C   1,H   6)      3.5320         0.036892   
     91. D(C   4,N   3,C   1,C   0)     -9.9772         0.036892   
     92. D(H  11,C   4,N   2,C   0)    178.3257         0.029836   
     93. D(N   3,C   4,N   2,C   7)    170.3381         0.029836   
     94. D(N   3,C   4,N   2,C   0)     -6.6313         0.029836   
     95. D(H  11,C   4,N   3,C   8)     -7.6116         0.057857   
     96. D(H  11,C   4,N   3,C   1)   -174.1020         0.057857   
     97. D(N   2,C   4,N   3,C   8)    177.1274         0.057857   
     98. D(N   2,C   4,N   3,C   1)     10.6371         0.057857   
     99. D(H  11,C   4,N   2,C   7)     -4.7049         0.029836   
    100. D(C  15,C   7,N   2,C   4)    121.5731         0.012571   
    101. D(C  15,C   7,N   2,C   0)    -62.1114         0.012571   
    102. D(C  12,C   7,N   2,C   4)   -114.4024         0.012571   
    103. D(C  12,C   7,N   2,C   0)     61.9132         0.012571   
    104. D(H   9,C   7,N   2,C   4)      1.5916         0.012571   
    105. D(H   9,C   7,N   2,C   0)    177.9072         0.012571   
    106. D(C  13,C   8,N   3,C   4)    129.3934         0.020386   
    107. D(H  10,C   8,N   3,C   4)     12.7240         0.020386   
    108. D(H  10,C   8,N   3,C   1)    177.3596         0.020386   
    109. D(C  14,C   8,N   3,C   1)     62.0103         0.020386   
    110. D(C  13,C   8,N   3,C   1)    -65.9710         0.020386   
    111. D(C  14,C   8,N   3,C   4)   -102.6254         0.020386   
    112. D(H  24,C  12,C   7,C  15)    -73.6543         0.010543   
    113. D(H  24,C  12,C   7,H   9)     53.3025         0.010543   
    114. D(H  24,C  12,C   7,N   2)    167.3933         0.010543   
    115. D(H  20,C  12,C   7,C  15)    164.9534         0.010543   
    116. D(H  20,C  12,C   7,H   9)    -68.0899         0.010543   
    117. D(H  20,C  12,C   7,N   2)     46.0009         0.010543   
    118. D(H  16,C  12,C   7,C  15)     47.5482         0.010543   
    119. D(H  16,C  12,C   7,H   9)    174.5049         0.010543   
    120. D(H  16,C  12,C   7,N   2)    -71.4043         0.010543   
    121. D(H  25,C  13,C   8,C  14)     55.7088         0.011891   
    122. D(H  25,C  13,C   8,H  10)    -66.5223         0.011891   
    123. D(H  25,C  13,C   8,N   3)    179.9357         0.011891   
    124. D(H  21,C  13,C   8,C  14)    179.4317         0.011891   
    125. D(H  21,C  13,C   8,H  10)     57.2006         0.011891   
    126. D(H  21,C  13,C   8,N   3)    -56.3415         0.011891   
    127. D(H  17,C  13,C   8,C  14)    -58.3960         0.011891   
    128. D(H  17,C  13,C   8,H  10)    179.3730         0.011891   
    129. D(H  17,C  13,C   8,N   3)     65.8309         0.011891   
    130. D(H  26,C  14,C   8,H  10)     79.5208         0.012722   
    131. D(H  26,C  14,C   8,N   3)   -166.3305         0.012722   
    132. D(H  22,C  14,C   8,C  13)   -169.1074         0.012722   
    133. D(H  22,C  14,C   8,H  10)    -45.4683         0.012722   
    134. D(H  22,C  14,C   8,N   3)     68.6803         0.012722   
    135. D(H  18,C  14,C   8,C  13)     68.9523         0.012722   
    136. D(H  18,C  14,C   8,H  10)   -167.4085         0.012722   
    137. D(H  26,C  14,C   8,C  13)    -44.1183         0.012722   
    138. D(H  18,C  14,C   8,N   3)    -53.2599         0.012722   
    139. D(H  23,C  15,C   7,N   2)    -67.5839         0.010178   
    140. D(H  19,C  15,C   7,C  12)    -65.2797         0.010178   
    141. D(H  19,C  15,C   7,H   9)    168.6473         0.010178   
    142. D(H  19,C  15,C   7,N   2)     51.5005         0.010178   
    143. D(H  27,C  15,C   7,C  12)     51.5118         0.010178   
    144. D(H  27,C  15,C   7,H   9)    -74.5613         0.010178   
    145. D(H  27,C  15,C   7,N   2)    168.2919         0.010178   
    146. D(H  23,C  15,C   7,C  12)    175.6359         0.010178   
    147. D(H  23,C  15,C   7,H   9)     49.5629         0.010178   
    -----------------------------------------------------------------

Number of atoms                         .... 28
Number of degrees of freedom            .... 147

         *************************************************************
         *                GEOMETRY OPTIMIZATION CYCLE   1            *
         *************************************************************
---------------------------------
CARTESIAN COORDINATES (ANGSTROEM)
---------------------------------
  C      0.147420    0.669830   -1.207490
  C      0.046330   -0.726980   -1.214490
  N      0.137090    1.083610    0.081780
  N     -0.149570   -1.082250    0.063450
  C      0.036620   -0.061460    0.822490
  H      0.345540    1.336740   -2.043890
  H      0.112030   -1.362490   -2.090250
  C      0.155340    2.489790    0.583210
  C     -0.239200   -2.436870    0.504050
  H      0.099730    2.436500    1.703360
  H     -0.350080   -2.378660    1.589980
  H      0.025070   -0.129010    1.920770
  C     -1.140970    3.107670    0.032410
  C     -1.503200   -3.013780   -0.113970
  C      1.051710   -3.171970    0.227320
  C      1.469120    3.152340    0.117940
  H     -1.008970    3.236520   -1.063250
  H     -1.416460   -3.073640   -1.245360
  H      1.316780   -3.060350   -0.824660
  H      1.599170    3.011480   -0.982090
  H     -2.003520    2.365590    0.218640
  H     -2.395210   -2.409430    0.155920
  H      1.889550   -2.805240    0.865340
  H      2.345630    2.684600    0.631970
  H     -1.431810    4.086500    0.466450
  H     -1.641890   -4.066540    0.181630
  H      0.962360   -4.267270    0.323920
  H      1.457450    4.257210    0.275460

----------------------------
CARTESIAN COORDINATES (A.U.)
----------------------------
  NO LB      ZA    FRAG     MASS         X           Y           Z
   0 C     6.0000    0    12.011    0.278583    1.265795   -2.281825
   1 C     6.0000    0    12.011    0.087551   -1.373793   -2.295053
   2 N     7.0000    0    14.007    0.259063    2.047726    0.154542
   3 N     7.0000    0    14.007   -0.282646   -2.045156    0.119903
   4 C     6.0000    0    12.011    0.069202   -0.116143    1.554281
   5 H     1.0000    0     1.008    0.652976    2.526073   -3.862392
   6 H     1.0000    0     1.008    0.211706   -2.574733   -3.950000
   7 C     6.0000    0    12.011    0.293550    4.705021    1.102107
   8 C     6.0000    0    12.011   -0.452022   -4.605017    0.952516
   9 H     1.0000    0     1.008    0.188462    4.604318    3.218884
  10 H     1.0000    0     1.008   -0.661555   -4.495016    3.004627
  11 H     1.0000    0     1.008    0.047375   -0.243794    3.629729
  12 C     6.0000    0    12.011   -2.156121    5.872645    0.061246
  13 C     6.0000    0    12.011   -2.840636   -5.695219   -0.215372
  14 C     6.0000    0    12.011    1.987444   -5.994155    0.429573
  15 C     6.0000    0    12.011    2.776234    5.957059    0.222874
  16 H     1.0000    0     1.008   -1.906677    6.116136   -2.009251
  17 H     1.0000    0     1.008   -2.676721   -5.808338   -2.353389
  18 H     1.0000    0     1.008    2.488354   -5.783223   -1.558382
  19 H     1.0000    0     1.008    3.021993    5.690872   -1.855881
  20 H     1.0000    0     1.008   -3.786104    4.470317    0.413170
  21 H     1.0000    0     1.008   -4.526291   -4.553163    0.294646
  22 H     1.0000    0     1.008    3.570732   -5.301135    1.635256
  23 H     1.0000    0     1.008    4.432598    5.073159    1.194250
  24 H     1.0000    0     1.008   -2.705729    7.722366    0.881463
  25 H     1.0000    0     1.008   -3.102722   -7.684647    0.343231
  26 H     1.0000    0     1.008    1.818597   -8.063972    0.612120
  27 H     1.0000    0     1.008    2.754181    8.044961    0.520544

--------------------------------
INTERNAL COORDINATES (ANGSTROEM)
--------------------------------
 C      0   0   0     0.000000000000     0.00000000     0.00000000
 C      1   0   0     1.400480761810     0.00000000     0.00000000
 N      1   2   0     1.354081877214   107.99820409     0.00000000
 N      2   1   3     1.340792387546   105.66772345     5.76792702
 C      4   2   1     1.285620730153   109.34059575   350.02281715
 H      1   2   3     1.087927131062   128.36766075   171.69579640
 H      2   1   3     1.084041063659   125.75837353   185.48783972
 C      3   1   2     1.493019524253   127.40804042   183.27917508
 C      4   2   1     1.427290174176   123.70248526   183.24123123
 H      8   3   1     1.122794869377   106.84309078   177.90719749
 H      9   4   2     1.093127048151   105.21813204   177.35962097
 H      5   4   2     1.100415995613   122.61562877   185.89799081
 C      8   3   1     1.538042896183   104.34672435    61.91317892
 C      9   4   2     1.520680725366   106.66649289   294.02898826
 C      9   4   2     1.511092363491   110.58039350    62.01025339
 C      8   3   1     1.543200104912   108.27101625   297.88864240
 H     13   8   3     1.111079276244   107.43385125   288.59573831
 H     14   9   4     1.136287982555   111.17346092    65.83089718
 H     15   9   4     1.090588396096   109.54194553   306.74011802
 H     16   8   3     1.116611187030   109.99956494    51.50048544
 H     13   8   3     1.152977381305   108.30777593    46.00093410
 H     14   9   4     1.110748114876   111.24475985   303.65853479
 H     15   9   4     1.115139578214   112.15380854    68.68034989
 H     16   8   3     1.118605081608   110.42696495   292.41605478
 H     13   8   3     1.109543507980   115.80059946   167.39328989
 H     14   9   4     1.102233139449   110.97395741   179.93568616
 H     15   9   4     1.103175902792   113.43874092   193.66948423
 H     16   8   3     1.116103246210   111.93540082   168.29191747

---------------------------
INTERNAL COORDINATES (A.U.)
---------------------------
 C      0   0   0     0.000000000000     0.00000000     0.00000000
 C      1   0   0     2.646525095646     0.00000000     0.00000000
 N      1   2   0     2.558843910841   107.99820409     0.00000000
 N      2   1   3     2.533730414907   105.66772345     5.76792702
 C      4   2   1     2.429471092082   109.34059575   350.02281715
 H      1   2   3     2.055884331369   128.36766075   171.69579640
 H      2   1   3     2.048540728241   125.75837353   185.48783972
 C      3   1   2     2.821398013435   127.40804042   183.27917508
 C      4   2   1     2.697187542830   123.70248526   183.24123123
 H      8   3   1     2.121774807695   106.84309078   177.90719749
 H      9   4   2     2.065710750588   105.21813204   177.35962097
 H      5   4   2     2.079484865094   122.61562877   185.89799081
 C      8   3   1     2.906479856010   104.34672435    61.91317892
 C      9   4   2     2.873670108075   106.66649289   294.02898826
 C      9   4   2     2.855550730057   110.58039350    62.01025339
 C      8   3   1     2.916225568122   108.27101625   297.88864240
 H     13   8   3     2.099635545178   107.43385125   288.59573831
 H     14   9   4     2.147273096296   111.17346092    65.83089718
 H     15   9   4     2.060913393455   109.54194553   306.74011802
 H     16   8   3     2.110089341559   109.99956494    51.50048544
 H     13   8   3     2.178811489271   108.30777593    46.00093410
 H     14   9   4     2.099009740884   111.24475985   303.65853479
 H     15   9   4     2.107308403922   112.15380854    68.68034989
 H     16   8   3     2.113857256252   110.42696495   292.41605478
 H     13   8   3     2.096733363752   115.80059946   167.39328989
 H     14   9   4     2.082918769291   110.97395741   179.93568616
 H     15   9   4     2.084700333817   113.43874092   193.66948423
 H     16   8   3     2.109129472517   111.93540082   168.29191747

---------------------
BASIS SET INFORMATION
---------------------
There are 3 groups of distinct atoms

 Group   1 Type C   : 7s4p1d contracted to 3s2p1d pattern {511/31/1}
 Group   2 Type N   : 7s4p1d contracted to 3s2p1d pattern {511/31/1}
 Group   3 Type H   : 4s1p contracted to 2s1p pattern {31/1}

Atom   0C    basis set group =>   1
Atom   1C    basis set group =>   1
Atom   2N    basis set group =>   2
Atom   3N    basis set group =>   2
Atom   4C    basis set group =>   1
Atom   5H    basis set group =>   3
Atom   6H    basis set group =>   3
Atom   7C    basis set group =>   1
Atom   8C    basis set group =>   1
Atom   9H    basis set group =>   3
Atom  10H    basis set group =>   3
Atom  11H    basis set group =>   3
Atom  12C    basis set group =>   1
Atom  13C    basis set group =>   1
Atom  14C    basis set group =>   1
Atom  15C    basis set group =>   1
Atom  16H    basis set group =>   3
Atom  17H    basis set group =>   3
Atom  18H    basis set group =>   3
Atom  19H    basis set group =>   3
Atom  20H    basis set group =>   3
Atom  21H    basis set group =>   3
Atom  22H    basis set group =>   3
Atom  23H    basis set group =>   3
Atom  24H    basis set group =>   3
Atom  25H    basis set group =>   3
Atom  26H    basis set group =>   3
Atom  27H    basis set group =>   3
---------------------------------
AUXILIARY/J BASIS SET INFORMATION
---------------------------------
There are 3 groups of distinct atoms

 Group   1 Type C   : 12s5p4d2f1g contracted to 6s4p3d1f1g pattern {711111/2111/211/2/1}
 Group   2 Type N   : 12s5p4d2f1g contracted to 6s4p3d1f1g pattern {711111/2111/211/2/1}
 Group   3 Type H   : 5s2p1d contracted to 3s1p1d pattern {311/2/1}

Atom   0C    basis set group =>   1
Atom   1C    basis set group =>   1
Atom   2N    basis set group =>   2
Atom   3N    basis set group =>   2
Atom   4C    basis set group =>   1
Atom   5H    basis set group =>   3
Atom   6H    basis set group =>   3
Atom   7C    basis set group =>   1
Atom   8C    basis set group =>   1
Atom   9H    basis set group =>   3
Atom  10H    basis set group =>   3
Atom  11H    basis set group =>   3
Atom  12C    basis set group =>   1
Atom  13C    basis set group =>   1
Atom  14C    basis set group =>   1
Atom  15C    basis set group =>   1
Atom  16H    basis set group =>   3
Atom  17H    basis set group =>   3
Atom  18H    basis set group =>   3
Atom  19H    basis set group =>   3
Atom  20H    basis set group =>   3
Atom  21H    basis set group =>   3
Atom  22H    basis set group =>   3
Atom  23H    basis set group =>   3
Atom  24H    basis set group =>   3
Atom  25H    basis set group =>   3
Atom  26H    basis set group =>   3
Atom  27H    basis set group =>   3


           ************************************************************
           *        Program running with 8 parallel MPI-processes     *
           *              working on a common directory               *
           ************************************************************
------------------------------------------------------------------------------
                           ORCA GTO INTEGRAL CALCULATION
                           -- RI-GTO INTEGRALS CHOSEN --
------------------------------------------------------------------------------
------------------------------------------------------------------------------
                   ___                                                        
                  /   \      - P O W E R E D   B Y -                         
                 /     \                                                     
                 |  |  |   _    _      __       _____    __    __             
                 |  |  |  | |  | |    /  \     |  _  \  |  |  /  |          
                  \  \/   | |  | |   /    \    | | | |  |  | /  /          
                 / \  \   | |__| |  /  /\  \   | |_| |  |  |/  /          
                |  |  |   |  __  | /  /__\  \  |    /   |      \           
                |  |  |   | |  | | |   __   |  |    \   |  |\   \          
                \     /   | |  | | |  |  |  |  | |\  \  |  | \   \       
                 \___/    |_|  |_| |__|  |__|  |_| \__\ |__|  \__/        
                                                                              
                      - O R C A' S   B I G   F R I E N D -                    
                                      &                                       
                       - I N T E G R A L  F E E D E R -                       
                                                                              
 v1 FN, 2020, v2 2021                                                         
------------------------------------------------------------------------------


Reading SHARK input file Min_72.SHARKINP.tmp ... ok
----------------------
SHARK INTEGRAL PACKAGE
----------------------

Number of atoms                             ...     28
Number of basis functions                   ...    239
Number of shells                            ...    117
Maximum angular momentum                    ...      2
Integral batch strategy                     ... SHARK/LIBINT Hybrid
RI-J (if used) integral strategy            ... SPLIT-RIJ (Revised 2003 algorithm where possible)
Printlevel                                  ...      1
Contraction scheme used                     ... SEGMENTED contraction
Coulomb Range Separation                    ... NOT USED
Exchange Range Separation                   ... Long Range
   Mu parameter                             ...  0.300000
   Scaling (regular/separated)              ...  0.157706  0.842294
Finite Nucleus Model                        ... NOT USED
Auxiliary Coulomb fitting basis             ... AVAILABLE
   # of basis functions in Aux-J            ...    726
   # of shells in Aux-J                     ...    250
   Maximum angular momentum in Aux-J        ...      4
Auxiliary J/K fitting basis                 ... NOT available
Auxiliary Correlation fitting basis         ... NOT available
Auxiliary 'external' fitting basis          ... NOT available
Integral threshold                          ...     2.500000e-11
Primitive cut-off                           ...     2.500000e-12
Primitive pair pre-selection threshold      ...     2.500000e-12

Calculating pre-screening integrals         ... done (  0.1 sec) Dimension = 117
Organizing shell pair data                  ... done (  0.0 sec)
Shell pair information
Total number of shell pairs                 ...      6903
Shell pairs after pre-screening             ...      6019
Total number of primitive shell pairs       ...     23847
Primitive shell pairs kept                  ...     14823
          la=0 lb=0:   2052 shell pairs
          la=1 lb=0:   2268 shell pairs
          la=1 lb=1:    654 shell pairs
          la=2 lb=0:    633 shell pairs
          la=2 lb=1:    355 shell pairs
          la=2 lb=2:     57 shell pairs

Calculating one electron integrals          ... done (  0.0 sec)
Calculating RI/J V-Matrix + Cholesky decomp.... done (  0.0 sec)
Calculating Nuclear repulsion               ... done (  0.0 sec) ENN=    651.513559628986 Eh

SHARK setup successfully completed in   0.3 seconds

Maximum memory used throughout the entire GTOINT-calculation: 14.4 MB


           ************************************************************
           *        Program running with 8 parallel MPI-processes     *
           *              working on a common directory               *
           ************************************************************
-------------------------------------------------------------------------------
                                 ORCA SCF
-------------------------------------------------------------------------------

------------
SCF SETTINGS
------------
Hamiltonian:
 Density Functional     Method          .... DFT(GTOs)
 Exchange Functional    Exchange        .... WB97X
 Correlation Functional Correlation     .... WB97X
 Gradients option       PostSCFGGA      .... off
 Hybrid DFT is turned on
   Fraction HF Exchange ScalHFX         ....  0.157706
   Scaling of DF-GGA-X  ScalDFX         ....  0.000000
   Scaling of DF-GGA-C  ScalDFC         ....  1.000000
   Scaling of DF-LDA-C  ScalLDAC        ....  1.000000
   Perturbative correction              ....  0.000000
   Density functional embedding theory  .... OFF
 Long-range corrected/Screened/Range-Separated Hybrid DFT is turned on
   Amount of maximum screened exact exchange              ....  0.842294
   Range separation parameter mu (erf(mu*r12)/r12)        ....  0.300000
 RI-approximation to the Coulomb term is turned on
   Number of AuxJ basis functions       .... 726
   RIJ-COSX (HFX calculated with COS-X)).... on


General Settings:
 Integral files         IntName         .... Min_72
 Hartree-Fock type      HFTyp           .... RHF
 Total Charge           Charge          ....    1
 Multiplicity           Mult            ....    1
 Number of Electrons    NEL             ....   84
 Basis Dimension        Dim             ....  239
 Nuclear Repulsion      ENuc            ....    651.5135596290 Eh

Convergence Acceleration:
 DIIS                   CNVDIIS         .... on
   Start iteration      DIISMaxIt       ....     0
   Startup error        DIISStart       ....  0.200000
   # of expansion vecs  DIISMaxEq       ....     5
   Bias factor          DIISBfac        ....   1.050
   Max. coefficient     DIISMaxC        ....  10.000
 Trust-Rad. Augm. Hess. CNVTRAH         .... auto
   Auto Start mean grad. ratio tolernc. ....  1.125000
   Auto Start start iteration           ....    20
   Auto Start num. interpolation iter.  ....    10
   Max. Number of Micro iterations      ....    16
   Max. Number of Macro iterations      .... Maxiter - #DIIS iter
   Number of Davidson start vectors     ....     2
   Converg. threshold I  (grad. norm)   ....   1.000e-05
   Converg. threshold II (energy diff.) ....   1.000e-08
   Grad. Scal. Fac. for Micro threshold ....   0.100
   Minimum threshold for Micro iter.    ....   0.010
   NR start threshold (gradient norm)   ....   0.001
   Initial trust radius                 ....   0.400
   Minimum AH scaling param. (alpha)    ....   1.000
   Maximum AH scaling param. (alpha)    .... 1000.000
   Orbital update algorithm             .... Taylor
   White noise on init. David. guess    .... on
   Maximum white noise                  ....   0.010
   Quad. conv. algorithm                .... NR
 SOSCF                  CNVSOSCF        .... on
   Start iteration      SOSCFMaxIt      ....   150
   Startup grad/error   SOSCFStart      ....  0.001000
 Level Shifting         CNVShift        .... on
   Level shift para.    LevelShift      ....    0.2500
   Turn off err/grad.   ShiftErr        ....    0.0000
 Zerner damping         CNVZerner       .... off
 Static damping         CNVDamp         .... on
   Fraction old density DampFac         ....    0.8500
   Max. Damping (<1)    DampMax         ....    0.9800
   Min. Damping (>=0)   DampMin         ....    0.0000
   Turn off err/grad.   DampErr         ....    0.0300
 Fernandez-Rico         CNVRico         .... off

SCF Procedure:
 Maximum # iterations   MaxIter         .... 20000
 SCF integral mode      SCFMode         .... Direct
   Integral package                     .... SHARK and LIBINT hybrid scheme
 Reset frequency        DirectResetFreq ....    20
 Integral Threshold     Thresh          ....  2.500e-11 Eh
 Primitive CutOff       TCut            ....  2.500e-12 Eh

Convergence Tolerance:
 Convergence Check Mode ConvCheckMode   .... Total+1el-Energy
 Convergence forced     ConvForced      .... 0
 Energy Change          TolE            ....  1.000e-08 Eh
 1-El. energy change                    ....  1.000e-05 Eh
 Orbital Gradient       TolG            ....  1.000e-05
 Orbital Rotation angle TolX            ....  1.000e-05
 DIIS Error             TolErr          ....  5.000e-07


Diagonalization of the overlap matrix:
Smallest eigenvalue                        ... 1.191e-03
Time for diagonalization                   ...    0.010 sec
Threshold for overlap eigenvalues          ... 1.000e-08
Number of eigenvalues below threshold      ... 0
Time for construction of square roots      ...    0.006 sec
Total time needed                          ...    0.016 sec

Time for model grid setup =    0.186 sec

------------------------------
INITIAL GUESS: MODEL POTENTIAL
------------------------------
Loading Hartree-Fock densities                     ... done
Calculating cut-offs                               ... done
Initializing the effective Hamiltonian             ... done
Setting up the integral package (SHARK)            ... done
Starting the Coulomb interaction                   ... done (   0.1 sec)
Reading the grid                                   ... done
Mapping shells                                     ... done
Starting the XC term evaluation                    ... done (   0.1 sec)
  promolecular density results
     # of electrons  =     84.992618204
     EX              =    -64.194679570
     EC              =     -2.814438765
     EX+EC           =    -67.009118335
Transforming the Hamiltonian                       ... done (   0.0 sec)
Diagonalizing the Hamiltonian                      ... done (   0.0 sec)
Back transforming the eigenvectors                 ... done (   0.0 sec)
Now organizing SCF variables                       ... done
                      ------------------
                      INITIAL GUESS DONE (   0.5 sec)
                      ------------------
-------------------
DFT GRID GENERATION
-------------------

General Integration Accuracy     IntAcc      ... 4.388
Radial Grid Type                 RadialGrid  ... OptM3 with GC (2021)
Angular Grid (max. ang.)         AngularGrid ... 4 (Lebedev-302)
Angular grid pruning method      GridPruning ... 4 (adaptive)
Weight generation scheme         WeightScheme... Becke
Basis function cutoff            BFCut       ... 1.0000e-11
Integration weight cutoff        WCut        ... 1.0000e-14
Angular grids for H and He will be reduced by one unit
Partially contracted basis set               ... off
Rotationally invariant grid construction     ... off

Total number of grid points                  ...   120054
Total number of batches                      ...     1890
Average number of points per batch           ...       63
Average number of grid points per atom       ...     4288
Time for grid setup =    0.728 sec

--------------------
COSX GRID GENERATION
--------------------

GRIDX 1
-------
General Integration Accuracy     IntAcc      ... 3.816
Radial Grid Type                 RadialGrid  ... OptM3 with GC (2021)
Angular Grid (max. ang.)         AngularGrid ... 1 (Lebedev-50)
Angular grid pruning method      GridPruning ... 4 (adaptive)
Weight generation scheme         WeightScheme... Becke
Basis function cutoff            BFCut       ... 1.0000e-11
Integration weight cutoff        WCut        ... 1.0000e-14
Angular grids for H and He will be reduced by one unit
Partially contracted basis set               ... on
Rotationally invariant grid construction     ... off

Total number of grid points                  ...    15361
Total number of batches                      ...      255
Average number of points per batch           ...       60
Average number of grid points per atom       ...      549
UseSFitting                                  ... on

GRIDX 2
-------
General Integration Accuracy     IntAcc      ... 4.020
Radial Grid Type                 RadialGrid  ... OptM3 with GC (2021)
Angular Grid (max. ang.)         AngularGrid ... 2 (Lebedev-110)
Angular grid pruning method      GridPruning ... 4 (adaptive)
Weight generation scheme         WeightScheme... Becke
Basis function cutoff            BFCut       ... 1.0000e-11
Integration weight cutoff        WCut        ... 1.0000e-14
Angular grids for H and He will be reduced by one unit
Partially contracted basis set               ... on
Rotationally invariant grid construction     ... off

Total number of grid points                  ...    32073
Total number of batches                      ...      513
Average number of points per batch           ...       62
Average number of grid points per atom       ...     1145
UseSFitting                                  ... on

GRIDX 3
-------
General Integration Accuracy     IntAcc      ... 4.338
Radial Grid Type                 RadialGrid  ... OptM3 with GC (2021)
Angular Grid (max. ang.)         AngularGrid ... 3 (Lebedev-194)
Angular grid pruning method      GridPruning ... 4 (adaptive)
Weight generation scheme         WeightScheme... Becke
Basis function cutoff            BFCut       ... 1.0000e-11
Integration weight cutoff        WCut        ... 1.0000e-14
Angular grids for H and He will be reduced by one unit
Partially contracted basis set               ... on
Rotationally invariant grid construction     ... off

Total number of grid points                  ...    69886
Total number of batches                      ...     1105
Average number of points per batch           ...       63
Average number of grid points per atom       ...     2496
UseSFitting                                  ... on

Time for X-Grid setup             =    0.724 sec

--------------
SCF ITERATIONS
--------------
ITER       Energy         Delta-E        Max-DP      RMS-DP      [F,P]     Damp
               ***  Starting incremental Fock matrix formation  ***
  0   -461.8280851318   0.000000000000 0.03244274  0.00063889  0.1475578 0.8500
  1   -461.8701679169  -0.042082785074 0.02925854  0.00060507  0.1186031 0.8500
                               ***Turning on DIIS***
  2   -461.9019071511  -0.031739234261 0.02291920  0.00049546  0.0907514 0.8500
  3   -461.9252922131  -0.023385061972 0.01437536  0.00035795  0.0685446 0.8500
  4   -461.9432462260  -0.017954012843 0.00970935  0.00027855  0.0544766 0.8500
  5   -461.9573400170  -0.014093791061 0.00740572  0.00023000  0.0450165 0.8500
  6   -461.9687773492  -0.011437332197 0.00629324  0.00019437  0.0378683 0.8500
  7   -461.9782351915  -0.009457842303 0.00536890  0.00016695  0.0320870 0.8500
  8   -461.9861438759  -0.007908684346 0.03055994  0.00095620  0.0271484 0.0000
  9   -462.0286140076  -0.042470131739 0.00122222  0.00003421  0.0011807 0.0000
                      *** Initiating the SOSCF procedure ***
                           *** Shutting down DIIS ***
                      *** Re-Reading the Fockian *** 
                      *** Removing any level shift *** 
ITER      Energy       Delta-E        Grad      Rot      Max-DP    RMS-DP
 10   -462.02863187  -0.0000178672  0.000299  0.000299  0.000511  0.000013
               *** Restarting incremental Fock matrix formation ***
 11   -462.02876349  -0.0001316137  0.000089  0.000210  0.000404  0.000010
 12   -462.02876394  -0.0000004539  0.000114  0.000323  0.000243  0.000006
 13   -462.02876409  -0.0000001497  0.000023  0.000029  0.000049  0.000002
 14   -462.02876411  -0.0000000206  0.000011  0.000017  0.000034  0.000001
 15   -462.02876412  -0.0000000085  0.000010  0.000021  0.000017  0.000000
                  ***Gradient check signals convergence***
              ***Rediagonalizing the Fockian in SOSCF/NRSCF***

               *****************************************************
               *                     SUCCESS                       *
               *           SCF CONVERGED AFTER  16 CYCLES          *
               *****************************************************

Old exchange energy                            =    -21.383919707 Eh
New exchange energy                            =    -21.383930229 Eh
Exchange energy change after final integration =     -0.000010522 Eh
Total energy after final integration           =   -462.028774639 Eh
Final COS-X integration done in                =     7.692 sec

----------------
TOTAL SCF ENERGY
----------------

Total Energy       :         -462.02877464 Eh          -12572.44213 eV

Components:
Nuclear Repulsion  :          651.51355963 Eh           17728.58526 eV
Electronic Energy  :        -1113.54233427 Eh          -30301.02739 eV
One Electron Energy:        -1899.87911362 Eh          -51698.33897 eV
Two Electron Energy:          786.33677935 Eh           21397.31158 eV
Max COSX asymmetry :            0.00000239 Eh               0.00006 eV

Virial components:
Potential Energy   :         -918.37730035 Eh          -24990.31683 eV
Kinetic Energy     :          456.34852571 Eh           12417.87470 eV
Virial Ratio       :            2.01244717


DFT components:
N(Alpha)           :       41.999999500115 electrons
N(Beta)            :       41.999999500115 electrons
N(Total)           :       83.999999000229 electrons
E(XC)              :      -47.153832646916 Eh       
DFET-embed. en.    :        0.000000000000 Eh       

---------------
SCF CONVERGENCE
---------------

  Last Energy change         ...    4.9077e-09  Tolerance :   1.0000e-08
  Last MAX-Density change    ...    4.8850e-15  Tolerance :   1.0000e-07
  Last RMS-Density change    ...    3.9987e-17  Tolerance :   5.0000e-09
  Last Orbital Gradient      ...    1.1714e-06  Tolerance :   1.0000e-05
  Last Orbital Rotation      ...    4.8697e-06  Tolerance :   1.0000e-05

             **** THE GBW FILE WAS UPDATED (Min_72.gbw) ****
             **** DENSITY Min_72.scfp WAS UPDATED ****
             **** ENERGY FILE WAS UPDATED (Min_72.en.tmp) ****
             **** THE GBW FILE WAS UPDATED (Min_72.gbw) ****
             **** DENSITY Min_72.scfp WAS UPDATED ****
----------------
ORBITAL ENERGIES
----------------

  NO   OCC          E(Eh)            E(eV) 
   0   2.0000     -14.659941      -398.9173 
   1   2.0000     -14.656353      -398.8196 
   2   2.0000     -10.529463      -286.5212 
   3   2.0000     -10.485308      -285.3197 
   4   2.0000     -10.482283      -285.2374 
   5   2.0000     -10.477895      -285.1180 
   6   2.0000     -10.474218      -285.0180 
   7   2.0000     -10.415601      -283.4229 
   8   2.0000     -10.414572      -283.3949 
   9   2.0000     -10.412732      -283.3448 
  10   2.0000     -10.409813      -283.2654 
  11   2.0000      -1.375672       -37.4339 
  12   2.0000      -1.255030       -34.1511 
  13   2.0000      -1.109091       -30.1799 
  14   2.0000      -1.066647       -29.0250 
  15   2.0000      -1.048786       -28.5389 
  16   2.0000      -0.960550       -26.1379 
  17   2.0000      -0.951719       -25.8976 
  18   2.0000      -0.942284       -25.6408 
  19   2.0000      -0.932743       -25.3812 
  20   2.0000      -0.879783       -23.9401 
  21   2.0000      -0.852536       -23.1987 
  22   2.0000      -0.808850       -22.0099 
  23   2.0000      -0.781164       -21.2566 
  24   2.0000      -0.760024       -20.6813 
  25   2.0000      -0.738164       -20.0865 
  26   2.0000      -0.729128       -19.8406 
  27   2.0000      -0.708892       -19.2899 
  28   2.0000      -0.701545       -19.0900 
  29   2.0000      -0.693280       -18.8651 
  30   2.0000      -0.688009       -18.7217 
  31   2.0000      -0.658172       -17.9098 
  32   2.0000      -0.636008       -17.3067 
  33   2.0000      -0.632426       -17.2092 
  34   2.0000      -0.624904       -17.0045 
  35   2.0000      -0.621024       -16.8989 
  36   2.0000      -0.606324       -16.4989 
  37   2.0000      -0.595974       -16.2173 
  38   2.0000      -0.593538       -16.1510 
  39   2.0000      -0.588810       -16.0223 
  40   2.0000      -0.561494       -15.2790 
  41   2.0000      -0.511261       -13.9121 
  42   0.0000      -0.086518        -2.3543 
  43   0.0000      -0.057026        -1.5518 
  44   0.0000      -0.001594        -0.0434 
  45   0.0000       0.009610         0.2615 
  46   0.0000       0.018981         0.5165 
  47   0.0000       0.023927         0.6511 
  48   0.0000       0.025465         0.6929 
  49   0.0000       0.063709         1.7336 
  50   0.0000       0.069165         1.8821 
  51   0.0000       0.073162         1.9908 
  52   0.0000       0.079928         2.1749 
  53   0.0000       0.084115         2.2889 
  54   0.0000       0.089585         2.4377 
  55   0.0000       0.102272         2.7830 
  56   0.0000       0.107340         2.9209 
  57   0.0000       0.111518         3.0345 
  58   0.0000       0.117380         3.1941 
  59   0.0000       0.120743         3.2856 
  60   0.0000       0.124674         3.3926 
  61   0.0000       0.128248         3.4898 
  62   0.0000       0.140819         3.8319 
  63   0.0000       0.147389         4.0106 
  64   0.0000       0.160234         4.3602 
  65   0.0000       0.176049         4.7905 
  66   0.0000       0.191087         5.1997 
  67   0.0000       0.198494         5.4013 
  68   0.0000       0.200541         5.4570 
  69   0.0000       0.218406         5.9431 
  70   0.0000       0.251339         6.8393 
  71   0.0000       0.283426         7.7124 
  72   0.0000       0.315965         8.5978 
  73   0.0000       0.339778         9.2458 
  74   0.0000       0.341330         9.2881 
  75   0.0000       0.364311         9.9134 
  76   0.0000       0.371550        10.1104 
  77   0.0000       0.379709        10.3324 
  78   0.0000       0.388117        10.5612 
  79   0.0000       0.398198        10.8355 
  80   0.0000       0.412851        11.2342 
  81   0.0000       0.419177        11.4064 
  82   0.0000       0.449845        12.2409 
  83   0.0000       0.478154        13.0112 
  84   0.0000       0.486225        13.2309 
  85   0.0000       0.509384        13.8610 
  86   0.0000       0.512372        13.9423 
  87   0.0000       0.524070        14.2607 
  88   0.0000       0.532613        14.4931 
  89   0.0000       0.545475        14.8431 
  90   0.0000       0.560306        15.2467 
  91   0.0000       0.567581        15.4447 
  92   0.0000       0.576795        15.6954 
  93   0.0000       0.586146        15.9498 
  94   0.0000       0.594236        16.1700 
  95   0.0000       0.599207        16.3052 
  96   0.0000       0.613978        16.7072 
  97   0.0000       0.618940        16.8422 
  98   0.0000       0.623113        16.9558 
  99   0.0000       0.625282        17.0148 
 100   0.0000       0.632107        17.2005 
 101   0.0000       0.643433        17.5087 
 102   0.0000       0.645143        17.5552 
 103   0.0000       0.648713        17.6524 
 104   0.0000       0.656292        17.8586 
 105   0.0000       0.659358        17.9420 
 106   0.0000       0.661051        17.9881 
 107   0.0000       0.663606        18.0576 
 108   0.0000       0.668093        18.1797 
 109   0.0000       0.671944        18.2845 
 110   0.0000       0.676501        18.4085 
 111   0.0000       0.683746        18.6057 
 112   0.0000       0.689653        18.7664 
 113   0.0000       0.696841        18.9620 
 114   0.0000       0.710957        19.3461 
 115   0.0000       0.727502        19.7963 
 116   0.0000       0.765348        20.8262 
 117   0.0000       0.790246        21.5037 
 118   0.0000       0.826300        22.4848 
 119   0.0000       0.883969        24.0540 
 120   0.0000       0.901542        24.5322 
 121   0.0000       0.913088        24.8464 
 122   0.0000       0.930038        25.3076 
 123   0.0000       0.960603        26.1393 
 124   0.0000       0.988971        26.9113 
 125   0.0000       0.997239        27.1362 
 126   0.0000       1.029468        28.0132 
 127   0.0000       1.036703        28.2101 
 128   0.0000       1.068784        29.0831 
 129   0.0000       1.081788        29.4369 
 130   0.0000       1.118019        30.4228 
 131   0.0000       1.145538        31.1717 
 132   0.0000       1.178228        32.0612 
 133   0.0000       1.193974        32.4897 
 134   0.0000       1.208730        32.8912 
 135   0.0000       1.251457        34.0539 
 136   0.0000       1.262261        34.3479 
 137   0.0000       1.288779        35.0695 
 138   0.0000       1.303335        35.4655 
 139   0.0000       1.324514        36.0419 
 140   0.0000       1.338503        36.4225 
 141   0.0000       1.360092        37.0100 
 142   0.0000       1.415538        38.5187 
 143   0.0000       1.473182        40.0873 
 144   0.0000       1.492944        40.6251 
 145   0.0000       1.501707        40.8635 
 146   0.0000       1.503369        40.9088 
 147   0.0000       1.507983        41.0343 
 148   0.0000       1.520430        41.3730 
 149   0.0000       1.527821        41.5741 
 150   0.0000       1.597217        43.4625 
 151   0.0000       1.628643        44.3176 
 152   0.0000       1.639565        44.6148 
 153   0.0000       1.654715        45.0271 
 154   0.0000       1.664923        45.3048 
 155   0.0000       1.671916        45.4951 
 156   0.0000       1.677561        45.6488 
 157   0.0000       1.707459        46.4623 
 158   0.0000       1.715654        46.6853 
 159   0.0000       1.727119        46.9973 
 160   0.0000       1.740841        47.3707 
 161   0.0000       1.746303        47.5193 
 162   0.0000       1.752326        47.6832 
 163   0.0000       1.758994        47.8647 
 164   0.0000       1.765839        48.0509 
 165   0.0000       1.771862        48.2148 
 166   0.0000       1.786817        48.6218 
 167   0.0000       1.797831        48.9215 
 168   0.0000       1.804777        49.1105 
 169   0.0000       1.813035        49.3352 
 170   0.0000       1.818549        49.4852 
 171   0.0000       1.824958        49.6596 
 172   0.0000       1.833789        49.8999 
 173   0.0000       1.836903        49.9847 
 174   0.0000       1.851113        50.3713 
 175   0.0000       1.851288        50.3761 
 176   0.0000       1.853597        50.4389 
 177   0.0000       1.868388        50.8414 
 178   0.0000       1.882983        51.2386 
 179   0.0000       1.904402        51.8214 
 180   0.0000       1.906906        51.8896 
 181   0.0000       1.929758        52.5114 
 182   0.0000       1.935874        52.6778 
 183   0.0000       1.964657        53.4610 
 184   0.0000       1.976118        53.7729 
 185   0.0000       2.005431        54.5705 
 186   0.0000       2.034132        55.3515 
 187   0.0000       2.079284        56.5802 
 188   0.0000       2.094632        56.9978 
 189   0.0000       2.109681        57.4073 
 190   0.0000       2.143834        58.3367 
 191   0.0000       2.167592        58.9832 
 192   0.0000       2.205437        60.0130 
 193   0.0000       2.207023        60.0561 
 194   0.0000       2.213673        60.2371 
 195   0.0000       2.254488        61.3477 
 196   0.0000       2.286015        62.2056 
 197   0.0000       2.289930        62.3122 
 198   0.0000       2.317441        63.0608 
 199   0.0000       2.339701        63.6665 
 200   0.0000       2.358535        64.1790 
 201   0.0000       2.363887        64.3246 
 202   0.0000       2.383792        64.8663 
 203   0.0000       2.400650        65.3250 
 204   0.0000       2.417271        65.7773 
 205   0.0000       2.424114        65.9635 
 206   0.0000       2.437849        66.3372 
 207   0.0000       2.465127        67.0795 
 208   0.0000       2.486268        67.6548 
 209   0.0000       2.519381        68.5558 
 210   0.0000       2.521268        68.6072 
 211   0.0000       2.544891        69.2500 
 212   0.0000       2.584193        70.3195 
 213   0.0000       2.623563        71.3908 
 214   0.0000       2.634933        71.7002 
 215   0.0000       2.664634        72.5084 
 216   0.0000       2.684926        73.0606 
 217   0.0000       2.718324        73.9694 
 218   0.0000       2.743912        74.6656 
 219   0.0000       2.777615        75.5827 
 220   0.0000       2.788036        75.8663 
 221   0.0000       2.805482        76.3410 
 222   0.0000       2.818392        76.6923 
 223   0.0000       2.825722        76.8918 
 224   0.0000       2.834286        77.1248 
 225   0.0000       2.853257        77.6411 
 226   0.0000       2.856964        77.7419 
 227   0.0000       2.864784        77.9547 
 228   0.0000       2.889794        78.6353 
 229   0.0000       2.907409        79.1146 
 230   0.0000       2.942464        80.0685 
 231   0.0000       2.975297        80.9619 
 232   0.0000       2.977940        81.0339 
 233   0.0000       3.010373        81.9164 
 234   0.0000       3.043701        82.8233 
 235   0.0000       3.133465        85.2659 
 236   0.0000       3.315796        90.2274 
 237   0.0000       3.415184        92.9319 
 238   0.0000       3.476954        94.6127 

                    ********************************
                    * MULLIKEN POPULATION ANALYSIS *
                    ********************************

-----------------------
MULLIKEN ATOMIC CHARGES
-----------------------
   0 C :    0.059252
   1 C :    0.034286
   2 N :   -0.195069
   3 N :   -0.096437
   4 C :    0.174454
   5 H :    0.097552
   6 H :    0.098284
   7 C :   -0.079382
   8 C :   -0.099213
   9 H :    0.082466
  10 H :    0.060587
  11 H :    0.115218
  12 C :   -0.041665
  13 C :   -0.029539
  14 C :   -0.000694
  15 C :   -0.018591
  16 H :    0.053049
  17 H :    0.058586
  18 H :    0.039321
  19 H :    0.047138
  20 H :    0.067831
  21 H :    0.072375
  22 H :    0.071172
  23 H :    0.075138
  24 H :    0.096643
  25 H :    0.082862
  26 H :    0.082225
  27 H :    0.092148
Sum of atomic charges:    1.0000000

--------------------------------
MULLIKEN REDUCED ORBITAL CHARGES
--------------------------------
  0 C s       :     3.140475  s :     3.140475
      pz      :     0.809225  p :     2.752107
      px      :     1.012156
      py      :     0.930726
      dz2     :     0.014575  d :     0.048165
      dxz     :     0.008912
      dyz     :     0.012966
      dx2y2   :     0.004667
      dxy     :     0.007045
  1 C s       :     3.143321  s :     3.143321
      pz      :     0.801582  p :     2.774567
      px      :     1.043397
      py      :     0.929588
      dz2     :     0.015496  d :     0.047826
      dxz     :     0.008661
      dyz     :     0.012269
      dx2y2   :     0.005076
      dxy     :     0.006324
  2 N s       :     3.400425  s :     3.400425
      pz      :     1.141424  p :     3.762472
      px      :     1.456344
      py      :     1.164705
      dz2     :     0.006394  d :     0.032172
      dxz     :     0.006224
      dyz     :     0.010119
      dx2y2   :     0.003988
      dxy     :     0.005447
  3 N s       :     3.343425  s :     3.343425
      pz      :     1.139631  p :     3.714222
      px      :     1.415616
      py      :     1.158974
      dz2     :     0.007446  d :     0.038789
      dxz     :     0.008444
      dyz     :     0.011580
      dx2y2   :     0.004620
      dxy     :     0.006699
  4 C s       :     3.096765  s :     3.096765
      pz      :     0.916509  p :     2.660011
      px      :     0.961503
      py      :     0.781998
      dz2     :     0.013439  d :     0.068770
      dxz     :     0.006678
      dyz     :     0.022138
      dx2y2   :     0.010127
      dxy     :     0.016388
  5 H s       :     0.878372  s :     0.878372
      pz      :     0.011104  p :     0.024076
      px      :     0.005112
      py      :     0.007860
  6 H s       :     0.876943  s :     0.876943
      pz      :     0.012361  p :     0.024773
      px      :     0.005069
      py      :     0.007343
  7 C s       :     3.164392  s :     3.164392
      pz      :     1.059895  p :     2.861465
      px      :     1.053757
      py      :     0.747813
      dz2     :     0.011359  d :     0.053526
      dxz     :     0.007084
      dyz     :     0.007388
      dx2y2   :     0.017254
      dxy     :     0.010441
  8 C s       :     3.114622  s :     3.114622
      pz      :     1.062973  p :     2.925468
      px      :     1.070100
      py      :     0.792395
      dz2     :     0.012826  d :     0.059123
      dxz     :     0.007569
      dyz     :     0.008055
      dx2y2   :     0.018737
      dxy     :     0.011936
  9 H s       :     0.897624  s :     0.897624
      pz      :     0.015125  p :     0.019910
      px      :     0.002916
      py      :     0.001869
 10 H s       :     0.918239  s :     0.918239
      pz      :     0.015385  p :     0.021174
      px      :     0.003498
      py      :     0.002291
 11 H s       :     0.861306  s :     0.861306
      pz      :     0.017652  p :     0.023476
      px      :     0.004409
      py      :     0.001416
 12 C s       :     3.072814  s :     3.072814
      pz      :     1.013924  p :     2.944186
      px      :     0.899867
      py      :     1.030395
      dz2     :     0.007770  d :     0.024664
      dxz     :     0.003211
      dyz     :     0.002854
      dx2y2   :     0.004364
      dxy     :     0.006465
 13 C s       :     3.049392  s :     3.049392
      pz      :     1.006673  p :     2.954885
      px      :     0.919701
      py      :     1.028510
      dz2     :     0.007998  d :     0.025262
      dxz     :     0.003673
      dyz     :     0.002270
      dx2y2   :     0.005791
      dxy     :     0.005530
 14 C s       :     3.015411  s :     3.015411
      pz      :     1.019827  p :     2.959355
      px      :     0.924977
      py      :     1.014552
      dz2     :     0.007569  d :     0.025927
      dxz     :     0.005526
      dyz     :     0.001608
      dx2y2   :     0.006211
      dxy     :     0.005013
 15 C s       :     3.048112  s :     3.048112
      pz      :     1.007688  p :     2.945978
      px      :     0.916407
      py      :     1.021883
      dz2     :     0.007505  d :     0.024501
      dxz     :     0.004216
      dyz     :     0.001890
      dx2y2   :     0.006134
      dxy     :     0.004756
 16 H s       :     0.923805  s :     0.923805
      pz      :     0.014672  p :     0.023146
      px      :     0.003886
      py      :     0.004588
 17 H s       :     0.918847  s :     0.918847
      pz      :     0.014502  p :     0.022567
      px      :     0.003478
      py      :     0.004587
 18 H s       :     0.935889  s :     0.935889
      pz      :     0.014481  p :     0.024789
      px      :     0.005008
      py      :     0.005300
 19 H s       :     0.929624  s :     0.929624
      pz      :     0.014479  p :     0.023238
      px      :     0.004079
      py      :     0.004680
 20 H s       :     0.910816  s :     0.910816
      pz      :     0.004096  p :     0.021352
      px      :     0.009572
      py      :     0.007685
 21 H s       :     0.904776  s :     0.904776
      pz      :     0.004765  p :     0.022849
      px      :     0.011146
      py      :     0.006938
 22 H s       :     0.905958  s :     0.905958
      pz      :     0.007800  p :     0.022870
      px      :     0.010097
      py      :     0.004973
 23 H s       :     0.902308  s :     0.902308
      pz      :     0.006454  p :     0.022554
      px      :     0.010525
      py      :     0.005575
 24 H s       :     0.880178  s :     0.880178
      pz      :     0.005833  p :     0.023179
      px      :     0.004526
      py      :     0.012821
 25 H s       :     0.893312  s :     0.893312
      pz      :     0.005495  p :     0.023825
      px      :     0.003944
      py      :     0.014387
 26 H s       :     0.893629  s :     0.893629
      pz      :     0.005177  p :     0.024146
      px      :     0.003616
      py      :     0.015352
 27 H s       :     0.884690  s :     0.884690
      pz      :     0.004714  p :     0.023162
      px      :     0.003446
      py      :     0.015001


                     *******************************
                     * LOEWDIN POPULATION ANALYSIS *
                     *******************************

----------------------
LOEWDIN ATOMIC CHARGES
----------------------
   0 C :    0.027807
   1 C :    0.004518
   2 N :    0.093519
   3 N :    0.140268
   4 C :    0.092055
   5 H :    0.053369
   6 H :    0.056662
   7 C :    0.041492
   8 C :    0.019257
   9 H :    0.046919
  10 H :    0.040172
  11 H :    0.059732
  12 C :   -0.059923
  13 C :   -0.054752
  14 C :   -0.052739
  15 C :   -0.057946
  16 H :    0.036091
  17 H :    0.042705
  18 H :    0.033316
  19 H :    0.036443
  20 H :    0.046124
  21 H :    0.044097
  22 H :    0.046016
  23 H :    0.046240
  24 H :    0.053949
  25 H :    0.051926
  26 H :    0.055861
  27 H :    0.056821

-------------------------------
LOEWDIN REDUCED ORBITAL CHARGES
-------------------------------
  0 C s       :     2.857818  s :     2.857818
      pz      :     0.944958  p :     2.996958
      px      :     1.009249
      py      :     1.042751
      dz2     :     0.038717  d :     0.117417
      dxz     :     0.017369
      dyz     :     0.034813
      dx2y2   :     0.012796
      dxy     :     0.013722
  1 C s       :     2.849081  s :     2.849081
      pz      :     0.944174  p :     3.028966
      px      :     1.041308
      py      :     1.043484
      dz2     :     0.040843  d :     0.117435
      dxz     :     0.017447
      dyz     :     0.032857
      dx2y2   :     0.014050
      dxy     :     0.012239
  2 N s       :     3.063367  s :     3.063367
      pz      :     1.201678  p :     3.770453
      px      :     1.380365
      py      :     1.188410
      dz2     :     0.016778  d :     0.072660
      dxz     :     0.012078
      dyz     :     0.026255
      dx2y2   :     0.008811
      dxy     :     0.008738
  3 N s       :     3.020228  s :     3.020228
      pz      :     1.208842  p :     3.749346
      px      :     1.335629
      py      :     1.204875
      dz2     :     0.020177  d :     0.090158
      dxz     :     0.016934
      dyz     :     0.030415
      dx2y2   :     0.010661
      dxy     :     0.011970
  4 C s       :     2.835638  s :     2.835638
      pz      :     1.021086  p :     2.911376
      px      :     0.988018
      py      :     0.902272
      dz2     :     0.032004  d :     0.160931
      dxz     :     0.011078
      dyz     :     0.057643
      dx2y2   :     0.025507
      dxy     :     0.034698
  5 H s       :     0.874474  s :     0.874474
      pz      :     0.032744  p :     0.072157
      px      :     0.016019
      py      :     0.023394
  6 H s       :     0.869027  s :     0.869027
      pz      :     0.036184  p :     0.074311
      px      :     0.016135
      py      :     0.021991
  7 C s       :     2.858586  s :     2.858586
      pz      :     1.055004  p :     2.978159
      px      :     1.077554
      py      :     0.845601
      dz2     :     0.028512  d :     0.121763
      dxz     :     0.014138
      dyz     :     0.016517
      dx2y2   :     0.038043
      dxy     :     0.024553
  8 C s       :     2.824718  s :     2.824718
      pz      :     1.059297  p :     3.017592
      px      :     1.078973
      py      :     0.879323
      dz2     :     0.032811  d :     0.138432
      dxz     :     0.015288
      dyz     :     0.018273
      dx2y2   :     0.042588
      dxy     :     0.029471
  9 H s       :     0.890569  s :     0.890569
      pz      :     0.042858  p :     0.062512
      px      :     0.012309
      py      :     0.007345
 10 H s       :     0.892925  s :     0.892925
      pz      :     0.043097  p :     0.066903
      px      :     0.014605
      py      :     0.009201
 11 H s       :     0.869259  s :     0.869259
      pz      :     0.049915  p :     0.071009
      px      :     0.014275
      py      :     0.006818
 12 C s       :     2.861534  s :     2.861534
      pz      :     1.064875  p :     3.133054
      px      :     0.998831
      py      :     1.069348
      dz2     :     0.020059  d :     0.065335
      dxz     :     0.008175
      dyz     :     0.007530
      dx2y2   :     0.011600
      dxy     :     0.017970
 13 C s       :     2.849863  s :     2.849863
      pz      :     1.056852  p :     3.137595
      px      :     1.010338
      py      :     1.070406
      dz2     :     0.020937  d :     0.067294
      dxz     :     0.009572
      dyz     :     0.005632
      dx2y2   :     0.015809
      dxy     :     0.015344
 14 C s       :     2.837070  s :     2.837070
      pz      :     1.071942  p :     3.146332
      px      :     1.009395
      py      :     1.064996
      dz2     :     0.019834  d :     0.069338
      dxz     :     0.014338
      dyz     :     0.003737
      dx2y2   :     0.017468
      dxy     :     0.013960
 15 C s       :     2.855278  s :     2.855278
      pz      :     1.063186  p :     3.137745
      px      :     1.007306
      py      :     1.067253
      dz2     :     0.019434  d :     0.064923
      dxz     :     0.011038
      dyz     :     0.004601
      dx2y2   :     0.016997
      dxy     :     0.012855
 16 H s       :     0.899132  s :     0.899132
      pz      :     0.040628  p :     0.064777
      px      :     0.011419
      py      :     0.012730
 17 H s       :     0.896439  s :     0.896439
      pz      :     0.039125  p :     0.060856
      px      :     0.010032
      py      :     0.011699
 18 H s       :     0.898148  s :     0.898148
      pz      :     0.039504  p :     0.068537
      px      :     0.014725
      py      :     0.014307
 19 H s       :     0.899884  s :     0.899884
      pz      :     0.039602  p :     0.063673
      px      :     0.011750
      py      :     0.012321
 20 H s       :     0.896189  s :     0.896189
      pz      :     0.010394  p :     0.057687
      px      :     0.026571
      py      :     0.020722
 21 H s       :     0.891431  s :     0.891431
      pz      :     0.013074  p :     0.064472
      px      :     0.031899
      py      :     0.019500
 22 H s       :     0.890467  s :     0.890467
      pz      :     0.020684  p :     0.063517
      px      :     0.028751
      py      :     0.014082
 23 H s       :     0.890545  s :     0.890545
      pz      :     0.017195  p :     0.063214
      px      :     0.030242
      py      :     0.015777
 24 H s       :     0.880906  s :     0.880906
      pz      :     0.015856  p :     0.065146
      px      :     0.013197
      py      :     0.036093
 25 H s       :     0.881892  s :     0.881892
      pz      :     0.014503  p :     0.066182
      px      :     0.011642
      py      :     0.040037
 26 H s       :     0.878040  s :     0.878040
      pz      :     0.013113  p :     0.066099
      px      :     0.010952
      py      :     0.042034
 27 H s       :     0.879321  s :     0.879321
      pz      :     0.012010  p :     0.063858
      px      :     0.010208
      py      :     0.041640


                      *****************************
                      * MAYER POPULATION ANALYSIS *
                      *****************************

  NA   - Mulliken gross atomic population
  ZA   - Total nuclear charge
  QA   - Mulliken gross atomic charge
  VA   - Mayer's total valence
  BVA  - Mayer's bonded valence
  FA   - Mayer's free valence

  ATOM       NA         ZA         QA         VA         BVA        FA
  0 C      5.9407     6.0000     0.0593     3.8947     3.8947     0.0000
  1 C      5.9657     6.0000     0.0343     3.8972     3.8972     0.0000
  2 N      7.1951     7.0000    -0.1951     3.3894     3.3894    -0.0000
  3 N      7.0964     7.0000    -0.0964     3.4637     3.4637     0.0000
  4 C      5.8255     6.0000     0.1745     3.8772     3.8772     0.0000
  5 H      0.9024     1.0000     0.0976     0.9979     0.9979     0.0000
  6 H      0.9017     1.0000     0.0983     0.9983     0.9983     0.0000
  7 C      6.0794     6.0000    -0.0794     3.9791     3.9791     0.0000
  8 C      6.0992     6.0000    -0.0992     4.0715     4.0715    -0.0000
  9 H      0.9175     1.0000     0.0825     0.9740     0.9740     0.0000
 10 H      0.9394     1.0000     0.0606     0.9759     0.9759    -0.0000
 11 H      0.8848     1.0000     0.1152     0.9986     0.9986     0.0000
 12 C      6.0417     6.0000    -0.0417     3.9119     3.9119     0.0000
 13 C      6.0295     6.0000    -0.0295     3.9282     3.9282    -0.0000
 14 C      6.0007     6.0000    -0.0007     3.9265     3.9265     0.0000
 15 C      6.0186     6.0000    -0.0186     3.9180     3.9180    -0.0000
 16 H      0.9470     1.0000     0.0530     0.9991     0.9991    -0.0000
 17 H      0.9414     1.0000     0.0586     0.9972     0.9972    -0.0000
 18 H      0.9607     1.0000     0.0393     1.0056     1.0056     0.0000
 19 H      0.9529     1.0000     0.0471     1.0012     1.0012    -0.0000
 20 H      0.9322     1.0000     0.0678     0.9888     0.9888     0.0000
 21 H      0.9276     1.0000     0.0724     0.9888     0.9888    -0.0000
 22 H      0.9288     1.0000     0.0712     0.9896     0.9896    -0.0000
 23 H      0.9249     1.0000     0.0751     0.9879     0.9879    -0.0000
 24 H      0.9034     1.0000     0.0966     0.9884     0.9884     0.0000
 25 H      0.9171     1.0000     0.0829     0.9932     0.9932    -0.0000
 26 H      0.9178     1.0000     0.0822     0.9966     0.9966    -0.0000
 27 H      0.9079     1.0000     0.0921     0.9909     0.9909    -0.0000

  Mayer bond orders larger than 0.100000
[...]
     31       0.000003  -0.000255   0.000001  -0.000986   0.001102   0.001441
     32       0.000049  -0.019318  -0.001534   0.005544  -0.000530  -0.000040
     33      -0.000182   0.000057   0.000081  -0.093270  -0.000227   0.007495
     34       0.000029  -0.000156   0.000141  -0.002024   0.000325   0.000162
     35       0.000112  -0.000578  -0.000629   0.987842   0.002614  -0.079413
     36      -0.027969  -0.001804   0.028329   0.000029  -0.000158   0.000119
     37      -0.053625  -0.003826   0.061036   0.000141  -0.000032  -0.000022
     38      -0.013574  -0.001275   0.021386   0.000010   0.000642  -0.000550
     39      -0.000994   0.018833   0.001145  -0.000001   0.000125   0.000101
     40       0.002703  -0.058876  -0.003636  -0.000128  -0.000039   0.000015
     41      -0.000658   0.019696   0.001267   0.000013  -0.000583  -0.000525
     42      -0.001322  -0.030360  -0.001822  -0.000029  -0.000039  -0.000017
     43      -0.002342  -0.058319  -0.003529  -0.000140  -0.000036   0.000016
     44       0.000366   0.015890   0.001027   0.000013  -0.000609  -0.000534
     45      -0.025862   0.001281  -0.020880   0.000002   0.000022  -0.000008
     46       0.064456  -0.003388   0.055627   0.000123  -0.000040  -0.000017
     47       0.013620  -0.000944   0.016349   0.000020   0.000573  -0.000492
     48      -0.006996  -0.000684   0.011666   0.000121   0.000740  -0.000745
     49      -0.010682  -0.001036   0.017805  -0.000210   0.000890  -0.000723
     50       0.042910   0.005618  -0.099520   0.000752  -0.007614   0.006386
     51      -0.000230   0.006622   0.000424   0.000177  -0.000270  -0.000355
     52       0.000582  -0.017262  -0.001127   0.000186   0.000908   0.000799
     53       0.002769  -0.105264  -0.006989   0.000666   0.006801   0.005966
     54       0.000058   0.006946   0.000478  -0.000247  -0.000625  -0.000420
     55      -0.000479  -0.017278  -0.001119   0.000205   0.000888   0.000757
     56      -0.002090  -0.105001  -0.006963   0.000656   0.007086   0.006175
     57       0.008008  -0.000654   0.011883  -0.000284   0.000887  -0.000629
     58       0.015973  -0.001014   0.017801  -0.000189   0.000961  -0.000815
     59      -0.080538   0.005843  -0.104350   0.000600  -0.006537   0.005511
     60       0.351514   0.022801  -0.359948  -0.000421   0.001423  -0.000800
     61       0.178129   0.011632  -0.183224  -0.000129   0.000719  -0.000494
     62      -0.089487  -0.005807   0.092073   0.000030  -0.000109  -0.000050
     63       0.015130  -0.295856  -0.018170  -0.000273  -0.001262  -0.000716
     64      -0.010091   0.198339   0.012151   0.000064   0.000822   0.000565
     65      -0.004783   0.093768   0.005780  -0.000005   0.000177   0.000004
     66       0.014541   0.319450   0.019099   0.000375   0.001330   0.000784
     67       0.007690   0.170045   0.010143   0.000113   0.000676   0.000476
     68       0.006721   0.147894   0.008862   0.000098   0.000348   0.000088
     69       0.326982  -0.015883   0.258691   0.000198  -0.001168   0.000640
     70      -0.233843   0.011445  -0.185921  -0.000025   0.000787  -0.000515
     71       0.168627  -0.008197   0.133767   0.000014  -0.000352   0.000086
     72      -0.008108  -0.000649   0.010494  -0.000307  -0.000129   0.000152
     73       0.469098   0.034825  -0.562030  -0.000116  -0.001360   0.001549
     74       0.208641   0.015442  -0.248811  -0.000218  -0.000829   0.000852
     75      -0.002757   0.064709   0.004040  -0.000297  -0.000007  -0.000009
     76      -0.022657   0.520670   0.032513   0.000128  -0.001211  -0.001510
     77       0.009811  -0.224567  -0.014000  -0.000179   0.000763   0.000831
     78       0.001414   0.035645   0.002174   0.000344  -0.000266  -0.000308
     79       0.020627   0.542448   0.033211   0.000119  -0.001236  -0.001503
     80      -0.008914  -0.233511  -0.014276  -0.000161   0.000738   0.000795
     81      -0.022981   0.001300  -0.021672   0.000324   0.000133  -0.000139
     82      -0.548010   0.029807  -0.495068  -0.000102  -0.001201   0.001439
     83      -0.250332   0.013598  -0.225570  -0.000120  -0.000752   0.000790


-----------
IR SPECTRUM
-----------

 Mode   freq       eps      Int      T**2         TX        TY        TZ
       cm**-1   L/(mol*cm) km/mol    a.u.
----------------------------------------------------------------------------
  6:     24.63   0.000002    0.01  0.000023  (-0.004677  0.000408 -0.001181)
  7:     31.19   0.000002    0.01  0.000016  (-0.003943  0.000680 -0.000306)
  8:    117.12   0.000055    0.28  0.000148  ( 0.011996 -0.001040  0.001693)
  9:    151.76   0.000002    0.01  0.000004  ( 0.000585  0.000012  0.001990)
 10:    154.53   0.000050    0.25  0.000101  (-0.000971  0.000159  0.009985)
 11:    226.91   0.000001    0.00  0.000001  ( 0.000750 -0.000249  0.000654)
 12:    243.15   0.000001    0.01  0.000002  ( 0.000877  0.000496  0.000854)
 13:    253.34   0.000014    0.07  0.000017  ( 0.000648  0.002524 -0.003241)
 14:    265.27   0.000008    0.04  0.000009  (-0.000479  0.000847  0.002894)
 15:    278.86   0.000028    0.14  0.000031  ( 0.001225 -0.003083 -0.004470)
 16:    299.08   0.000038    0.19  0.000040  ( 0.000981  0.006107 -0.001319)
 17:    355.56   0.000021    0.10  0.000018  ( 0.000795  0.004193  0.000113)
 18:    395.32   0.000360    1.82  0.000285  ( 0.016720 -0.001570  0.001598)
 19:    440.79   0.000000    0.00  0.000000  ( 0.000055  0.000034  0.000361)
 20:    453.21   0.000056    0.28  0.000038  ( 0.000563  0.000073 -0.006168)
 21:    550.53   0.000234    1.18  0.000133  ( 0.000212  0.011524  0.000054)
 22:    625.89   0.000004    0.02  0.000002  (-0.000750  0.000801  0.000902)
 23:    669.93   0.001329    6.72  0.000619  ( 0.002097  0.024791  0.000130)
 24:    685.25   0.007940   40.13  0.003616  ( 0.059724 -0.003762  0.005901)
 25:    690.13   0.000026    0.13  0.000012  ( 0.003268  0.001039  0.000417)
 26:    775.36   0.004890   24.71  0.001968  ( 0.044052 -0.002270  0.004752)
 27:    883.79   0.003318   16.77  0.001172  ( 0.034028 -0.001089  0.003543)
 28:    910.32   0.000089    0.45  0.000030  ( 0.000338 -0.005357 -0.001280)
 29:    915.47   0.000256    1.29  0.000087  (-0.000042  0.000749 -0.009309)
 30:    919.24   0.000006    0.03  0.000002  ( 0.001443  0.000300 -0.000073)
 31:    938.54   0.000240    1.21  0.000080  ( 0.008875 -0.000300  0.000893)
 32:    942.24   0.000293    1.48  0.000097  ( 0.009850  0.000071  0.000239)
 33:    959.87   0.000158    0.80  0.000052  ( 0.007115 -0.000369  0.000870)
 34:    966.48   0.000170    0.86  0.000055  ( 0.007397  0.000436  0.000001)
 35:   1034.94   0.001626    8.22  0.000490  (-0.001018 -0.022119  0.000295)
 36:   1043.64   0.000328    1.66  0.000098  (-0.001314  0.001210  0.009741)
 37:   1091.69   0.000065    0.33  0.000019  ( 0.000192 -0.003790 -0.002071)
 38:   1109.93   0.003366   17.01  0.000947  (-0.003304 -0.000193  0.030587)
 39:   1116.72   0.000730    3.69  0.000204  ( 0.001904  0.000237 -0.014154)
 40:   1172.94   0.016573   83.76  0.004409  (-0.001611 -0.066383 -0.000327)
 41:   1173.93   0.000624    3.15  0.000166  ( 0.006221  0.011269  0.000479)
 42:   1175.89   0.001416    7.15  0.000376  ( 0.019233  0.001457  0.001920)
 43:   1198.78   0.000051    0.26  0.000013  ( 0.000034  0.003316  0.001527)
 44:   1218.13   0.017907   90.49  0.004587  (-0.003235 -0.067652 -0.000285)
 45:   1267.66   0.004841   24.47  0.001192  (-0.001942 -0.034466 -0.000319)
 46:   1346.34   0.000662    3.35  0.000153  ( 0.001133 -0.000093 -0.012334)
 47:   1349.98   0.000005    0.02  0.000001  (-0.001040 -0.000239 -0.000049)
 48:   1351.69   0.000030    0.15  0.000007  ( 0.002592 -0.000269 -0.000390)
 49:   1370.00   0.008584   43.38  0.001955  (-0.002968 -0.044119 -0.000163)
 50:   1402.69   0.001014    5.12  0.000226  ( 0.000020 -0.001401 -0.014951)
 51:   1411.32   0.002955   14.93  0.000653  (-0.025350  0.001320 -0.002987)
 52:   1414.55   0.004627   23.38  0.001021  (-0.030980  0.007808 -0.000137)
 53:   1422.17   0.003606   18.23  0.000791  ( 0.005975  0.026369 -0.007766)
 54:   1426.89   0.002151   10.87  0.000470  (-0.004262 -0.011329 -0.017999)
 55:   1456.97   0.000012    0.06  0.000003  ( 0.001091  0.000044 -0.001147)
 56:   1459.37   0.000026    0.13  0.000006  ( 0.001189  0.000329 -0.002029)
 57:   1467.60   0.000541    2.73  0.000115  ( 0.010651 -0.000071  0.001257)
 58:   1470.01   0.000667    3.37  0.000142  (-0.011326 -0.000715 -0.003593)
 59:   1475.55   0.003230   16.32  0.000683  ( 0.002710  0.007486 -0.024893)
 60:   1478.06   0.001089    5.51  0.000230  ( 0.000053  0.015009  0.002169)
 61:   1481.98   0.005855   29.59  0.001233  (-0.003124  0.012038  0.032838)
 62:   1485.04   0.002581   13.04  0.000542  (-0.002650 -0.012608  0.019399)
 63:   1501.83   0.001108    5.60  0.000230  ( 0.001186  0.015120 -0.000331)
 64:   1506.15   0.000086    0.43  0.000018  (-0.000479 -0.000219  0.004181)
 65:   1647.16   0.002273   11.49  0.000431  ( 0.002134  0.002507 -0.020488)
 66:   1647.67   0.028526  144.16  0.005403  ( 0.003696  0.073401  0.001159)
 67:   3078.71   0.000744    3.76  0.000075  (-0.008364  0.000297 -0.002320)
 68:   3079.07   0.000868    4.39  0.000088  (-0.009348  0.000463 -0.000636)
 69:   3080.41   0.000218    1.10  0.000022  (-0.002635  0.001331  0.003655)
 70:   3080.48   0.000660    3.33  0.000067  (-0.000973 -0.000609  0.008093)
 71:   3118.95   0.000018    0.09  0.000002  ( 0.000200  0.001194  0.000608)
 72:   3119.09   0.001503    7.60  0.000150  (-0.001104 -0.000102  0.012212)
 73:   3180.41   0.000448    2.26  0.000044  ( 0.006391 -0.000711 -0.001602)
 74:   3180.68   0.000420    2.12  0.000041  ( 0.006292 -0.000561  0.001144)
 75:   3183.34   0.000608    3.07  0.000060  ( 0.000586  0.002025  0.007425)
 76:   3183.47   0.002858   14.44  0.000280  (-0.001459 -0.001074  0.016639)
 77:   3194.62   0.000443    2.24  0.000043  (-0.006524  0.000596 -0.000629)
 78:   3194.95   0.000527    2.67  0.000052  (-0.007124  0.000822 -0.000298)
 79:   3196.97   0.000465    2.35  0.000045  (-0.000672 -0.006515  0.001573)
 80:   3197.29   0.000375    1.89  0.000037  ( 0.000707  0.005708  0.001868)
 81:   3297.03   0.005318   26.88  0.000503  (-0.002154 -0.000083  0.022332)
 82:   3302.93   0.002838   14.34  0.000268  ( 0.000810  0.016355  0.000009)
 83:   3320.75   0.002472   12.49  0.000232  (-0.001525  0.000069  0.015166)

* The epsilon (eps) is given for a Dirac delta lineshape.
** The dipole moment derivative (T) already includes vibrational overlap.

The first frequency considered to be a vibration is 6
The total number of vibrations considered is 78


--------------------------
THERMOCHEMISTRY AT 298.15K
--------------------------

Temperature         ... 298.15 K
Pressure            ... 1.00 atm
Total Mass          ... 153.25 AMU

Throughout the following assumptions are being made:
  (1) The electronic state is orbitally nondegenerate
  (2) There are no thermally accessible electronically excited states
  (3) Hindered rotations indicated by low frequency modes are not
      treated as such but are treated as vibrations and this may
      cause some error
  (4) All equations used are the standard statistical mechanics
      equations for an ideal gas
  (5) All vibrations are strictly harmonic

freq.      24.63  E(vib)   ...       0.56 
freq.      31.19  E(vib)   ...       0.55 
freq.     117.12  E(vib)   ...       0.44 
freq.     151.76  E(vib)   ...       0.40 
freq.     154.53  E(vib)   ...       0.40 
freq.     226.91  E(vib)   ...       0.33 
freq.     243.15  E(vib)   ...       0.31 
freq.     253.34  E(vib)   ...       0.30 
freq.     265.27  E(vib)   ...       0.29 
freq.     278.86  E(vib)   ...       0.28 
freq.     299.08  E(vib)   ...       0.26 
freq.     355.56  E(vib)   ...       0.22 
freq.     395.32  E(vib)   ...       0.20 
freq.     440.79  E(vib)   ...       0.17 
freq.     453.21  E(vib)   ...       0.16 
freq.     550.53  E(vib)   ...       0.12 
freq.     625.89  E(vib)   ...       0.09 
freq.     669.93  E(vib)   ...       0.08 
freq.     685.25  E(vib)   ...       0.07 
freq.     690.13  E(vib)   ...       0.07 
freq.     775.36  E(vib)   ...       0.05 
freq.     883.79  E(vib)   ...       0.04 
freq.     910.32  E(vib)   ...       0.03 
freq.     915.47  E(vib)   ...       0.03 
freq.     919.24  E(vib)   ...       0.03 
freq.     938.54  E(vib)   ...       0.03 
freq.     942.24  E(vib)   ...       0.03 
freq.     959.87  E(vib)   ...       0.03 
freq.     966.48  E(vib)   ...       0.03 
freq.    1034.94  E(vib)   ...       0.02 
freq.    1043.64  E(vib)   ...       0.02 
freq.    1091.69  E(vib)   ...       0.02 
freq.    1109.93  E(vib)   ...       0.02 
freq.    1116.72  E(vib)   ...       0.01 
freq.    1172.94  E(vib)   ...       0.01 
freq.    1173.93  E(vib)   ...       0.01 
freq.    1175.89  E(vib)   ...       0.01 
freq.    1198.78  E(vib)   ...       0.01 
freq.    1218.13  E(vib)   ...       0.01 
freq.    1267.66  E(vib)   ...       0.01 
freq.    1346.34  E(vib)   ...       0.01 
freq.    1349.98  E(vib)   ...       0.01 
freq.    1351.69  E(vib)   ...       0.01 
freq.    1370.00  E(vib)   ...       0.01 
freq.    1402.69  E(vib)   ...       0.00 
freq.    1411.32  E(vib)   ...       0.00 
freq.    1414.55  E(vib)   ...       0.00 
freq.    1422.17  E(vib)   ...       0.00 
freq.    1426.89  E(vib)   ...       0.00 
freq.    1456.97  E(vib)   ...       0.00 
freq.    1459.37  E(vib)   ...       0.00 
freq.    1467.60  E(vib)   ...       0.00 
freq.    1470.01  E(vib)   ...       0.00 
freq.    1475.55  E(vib)   ...       0.00 
freq.    1478.06  E(vib)   ...       0.00 
freq.    1481.98  E(vib)   ...       0.00 
freq.    1485.04  E(vib)   ...       0.00 
freq.    1501.83  E(vib)   ...       0.00 
freq.    1506.15  E(vib)   ...       0.00 
freq.    1647.16  E(vib)   ...       0.00 
freq.    1647.67  E(vib)   ...       0.00 
freq.    3078.71  E(vib)   ...       0.00 
freq.    3079.07  E(vib)   ...       0.00 
freq.    3080.41  E(vib)   ...       0.00 
freq.    3080.48  E(vib)   ...       0.00 
freq.    3118.95  E(vib)   ...       0.00 
freq.    3119.09  E(vib)   ...       0.00 
freq.    3180.41  E(vib)   ...       0.00 
freq.    3180.68  E(vib)   ...       0.00 
freq.    3183.34  E(vib)   ...       0.00 
freq.    3183.47  E(vib)   ...       0.00 
freq.    3194.62  E(vib)   ...       0.00 
freq.    3194.95  E(vib)   ...       0.00 
freq.    3196.97  E(vib)   ...       0.00 
freq.    3197.29  E(vib)   ...       0.00 
freq.    3297.03  E(vib)   ...       0.00 
freq.    3302.93  E(vib)   ...       0.00 
freq.    3320.75  E(vib)   ...       0.00 

------------
INNER ENERGY
------------

The inner energy is: U= E(el) + E(ZPE) + E(vib) + E(rot) + E(trans)
    E(el)   - is the total energy from the electronic structure calculation
              = E(kin-el) + E(nuc-el) + E(el-el) + E(nuc-nuc)
    E(ZPE)  - the the zero temperature vibrational energy from the frequency calculation
    E(vib)  - the the finite temperature correction to E(ZPE) due to population
              of excited vibrational states
    E(rot)  - is the rotational thermal energy
    E(trans)- is the translational thermal energy

Summary of contributions to the inner energy U:
Electronic energy                ...   -462.05988976 Eh
Zero point energy                ...      0.25581583 Eh     160.53 kcal/mol
Thermal vibrational correction   ...      0.00931376 Eh       5.84 kcal/mol
Thermal rotational correction    ...      0.00141627 Eh       0.89 kcal/mol
Thermal translational correction ...      0.00141627 Eh       0.89 kcal/mol
-----------------------------------------------------------------------
Total thermal energy                   -461.79192764 Eh


Summary of corrections to the electronic energy:
(perhaps to be used in another calculation)
Total thermal correction                  0.01214630 Eh       7.62 kcal/mol
Non-thermal (ZPE) correction              0.25581583 Eh     160.53 kcal/mol
-----------------------------------------------------------------------
Total correction                          0.26796213 Eh     168.15 kcal/mol


--------
ENTHALPY
--------

The enthalpy is H = U + kB*T
                kB is Boltzmann's constant
Total free energy                 ...   -461.79192764 Eh 
Thermal Enthalpy correction       ...      0.00094421 Eh       0.59 kcal/mol
-----------------------------------------------------------------------
Total Enthalpy                    ...   -461.79098343 Eh


Note: Only C1 symmetry has been detected, increase convergence thresholds 
      if your molecule has a higher symmetry. Symmetry factor of 1.0 is   
      used for the rotational entropy correction. 
 

Note: Rotational entropy computed according to Herzberg 
Infrared and Raman Spectra, Chapter V,1, Van Nostrand Reinhold, 1945 
Point Group:  C1, Symmetry Number:   1  
Rotational constants in cm-1:     0.089404     0.018306     0.017676 

Vibrational entropy computed according to the QRRHO of S. Grimme
Chem.Eur.J. 2012 18 9955


-------
ENTROPY
-------

The entropy contributions are T*S = T*(S(el)+S(vib)+S(rot)+S(trans))
     S(el)   - electronic entropy
     S(vib)  - vibrational entropy
     S(rot)  - rotational entropy
     S(trans)- translational entropy
The entropies will be listed as multiplied by the temperature to get
units of energy

Electronic entropy                ...      0.00000000 Eh      0.00 kcal/mol
Vibrational entropy               ...      0.01629649 Eh     10.23 kcal/mol
Rotational entropy                ...      0.01444447 Eh      9.06 kcal/mol
Translational entropy             ...      0.01947584 Eh     12.22 kcal/mol
-----------------------------------------------------------------------
Final entropy term                ...      0.05021680 Eh     31.51 kcal/mol

In case the symmetry of your molecule has not been determined correctly
or in case you have a reason to use a different symmetry number we print 
out the resulting rotational entropy values for sn=1,12 :
 --------------------------------------------------------
|  sn= 1 | S(rot)=       0.01444447 Eh      9.06 kcal/mol|
|  sn= 2 | S(rot)=       0.01379001 Eh      8.65 kcal/mol|
|  sn= 3 | S(rot)=       0.01340718 Eh      8.41 kcal/mol|
|  sn= 4 | S(rot)=       0.01313556 Eh      8.24 kcal/mol|
|  sn= 5 | S(rot)=       0.01292487 Eh      8.11 kcal/mol|
|  sn= 6 | S(rot)=       0.01275273 Eh      8.00 kcal/mol|
|  sn= 7 | S(rot)=       0.01260718 Eh      7.91 kcal/mol|
|  sn= 8 | S(rot)=       0.01248110 Eh      7.83 kcal/mol|
|  sn= 9 | S(rot)=       0.01236989 Eh      7.76 kcal/mol|
|  sn=10 | S(rot)=       0.01227041 Eh      7.70 kcal/mol|
|  sn=11 | S(rot)=       0.01218042 Eh      7.64 kcal/mol|
|  sn=12 | S(rot)=       0.01209827 Eh      7.59 kcal/mol|
 --------------------------------------------------------


-------------------
GIBBS FREE ENERGY
-------------------

The Gibbs free energy is G = H - T*S

Total enthalpy                    ...   -461.79098343 Eh 
Total entropy correction          ...     -0.05021680 Eh    -31.51 kcal/mol
-----------------------------------------------------------------------
Final Gibbs free energy         ...   -461.84120023 Eh

For completeness - the Gibbs free energy minus the electronic energy
G-E(el)                           ...      0.21868953 Eh    137.23 kcal/mol


Timings for individual modules:

Sum of individual times         ...     1083.022 sec (=  18.050 min)
GTO integral calculation        ...       11.919 sec (=   0.199 min)   1.1 %
SCF iterations                  ...      694.765 sec (=  11.579 min)  64.2 %
SCF Gradient evaluation         ...      181.488 sec (=   3.025 min)  16.8 %
Geometry relaxation             ...        1.051 sec (=   0.018 min)   0.1 %
Analytical frequency calculation...      193.799 sec (=   3.230 min)  17.9 %
                             ****ORCA TERMINATED NORMALLY****
TOTAL RUN TIME: 0 days 0 hours 18 minutes 11 seconds 422 msec
