
                                 *****************
                                 * O   R   C   A *
                                 *****************

                                            #,                                       
                                            ###                                      
                                            ####                                     
                                            #####                                    
                                            ######                                   
                                           ########,                                 
                                     ,,################,,,,,                         
                               ,,#################################,,                 
                          ,,##########################################,,             
                       ,#########################################, ''#####,          
                    ,#############################################,,   '####,        
                  ,##################################################,,,,####,       
                ,###########''''           ''''###############################       
              ,#####''   ,,,,##########,,,,          '''####'''          '####       
            ,##' ,,,,###########################,,,                        '##       
           ' ,,###''''                  '''############,,,                           
         ,,##''                                '''############,,,,        ,,,,,,###''
      ,#''                                            '''#######################'''  
     '                                                          ''''####''''         
             ,#######,   #######,   ,#######,      ##                                
            ,#'     '#,  ##    ##  ,#'     '#,    #''#        ######   ,####,        
            ##       ##  ##   ,#'  ##            #'  '#       #        #'  '#        
            ##       ##  #######   ##           ,######,      #####,   #    #        
            '#,     ,#'  ##    ##  '#,     ,#' ,#      #,         ##   #,  ,#        
             '#######'   ##     ##  '#######'  #'      '#     #####' # '####'        



                  #######################################################
                  #                        -***-                        #
                  #          Department of theory and spectroscopy      #
                  #    Directorship and core code : Frank Neese         #
                  #        Max Planck Institute fuer Kohlenforschung    #
                  #                Kaiser Wilhelm Platz 1               #
                  #                 D-45470 Muelheim/Ruhr               #
                  #                      Germany                        #
                  #                                                     #
                  #                  All rights reserved                #
                  #                        -***-                        #
                  #######################################################


                         Program Version 5.0.4 -  RELEASE  -


 With contributions from (in alphabetic order):
   Daniel Aravena         : Magnetic Suceptibility
   Michael Atanasov       : Ab Initio Ligand Field Theory (pilot matlab implementation)
   Alexander A. Auer      : GIAO ZORA, VPT2 properties, NMR spectrum
   Ute Becker             : Parallelization
   Giovanni Bistoni       : ED, misc. LED, open-shell LED, HFLD
   Martin Brehm           : Molecular dynamics
   Dmytro Bykov           : SCF Hessian
   Vijay G. Chilkuri      : MRCI spin determinant printing, contributions to CSF-ICE
   Dipayan Datta          : RHF DLPNO-CCSD density
   Achintya Kumar Dutta   : EOM-CC, STEOM-CC
   Dmitry Ganyushin       : Spin-Orbit,Spin-Spin,Magnetic field MRCI
   Miquel Garcia          : C-PCM and meta-GGA Hessian, CC/C-PCM, Gaussian charge scheme
   Yang Guo               : DLPNO-NEVPT2, F12-NEVPT2, CIM, IAO-localization
   Andreas Hansen         : Spin unrestricted coupled pair/coupled cluster methods
   Benjamin Helmich-Paris : MC-RPA, TRAH-SCF, COSX integrals
   Lee Huntington         : MR-EOM, pCC
   Robert Izsak           : Overlap fitted RIJCOSX, COSX-SCS-MP3, EOM
   Marcus Kettner         : VPT2
   Christian Kollmar      : KDIIS, OOCD, Brueckner-CCSD(T), CCSD density, CASPT2, CASPT2-K
   Simone Kossmann        : Meta GGA functionals, TD-DFT gradient, OOMP2, MP2 Hessian
   Martin Krupicka        : Initial AUTO-CI
   Lucas Lang             : DCDCAS
   Marvin Lechner         : AUTO-CI (C++ implementation), FIC-MRCC
   Dagmar Lenk            : GEPOL surface, SMD
   Dimitrios Liakos       : Extrapolation schemes; Compound Job, initial MDCI parallelization
   Dimitrios Manganas     : Further ROCIS development; embedding schemes
   Dimitrios Pantazis     : SARC Basis sets
   Anastasios Papadopoulos: AUTO-CI, single reference methods and gradients
   Taras Petrenko         : DFT Hessian,TD-DFT gradient, ASA, ECA, R-Raman, ABS, FL, XAS/XES, NRVS
   Peter Pinski           : DLPNO-MP2, DLPNO-MP2 Gradient
   Christoph Reimann      : Effective Core Potentials
   Marius Retegan         : Local ZFS, SOC
   Christoph Riplinger    : Optimizer, TS searches, QM/MM, DLPNO-CCSD(T), (RO)-DLPNO pert. Triples
   Tobias Risthaus        : Range-separated hybrids, TD-DFT gradient, RPA, STAB
   Michael Roemelt        : Original ROCIS implementation
   Masaaki Saitow         : Open-shell DLPNO-CCSD energy and density
   Barbara Sandhoefer     : DKH picture change effects
   Avijit Sen             : IP-ROCIS
   Kantharuban Sivalingam : CASSCF convergence, NEVPT2, FIC-MRCI
   Bernardo de Souza      : ESD, SOC TD-DFT
   Georgi Stoychev        : AutoAux, RI-MP2 NMR, DLPNO-MP2 response
   Willem Van den Heuvel  : Paramagnetic NMR
   Boris Wezisla          : Elementary symmetry handling
   Frank Wennmohs         : Technical directorship


 We gratefully acknowledge several colleagues who have allowed us to
 interface, adapt or use parts of their codes:
   Stefan Grimme, W. Hujo, H. Kruse, P. Pracht,  : VdW corrections, initial TS optimization,
                  C. Bannwarth, S. Ehlert          DFT functionals, gCP, sTDA/sTD-DF
   Ed Valeev, F. Pavosevic, A. Kumar             : LibInt (2-el integral package), F12 methods
   Garnet Chan, S. Sharma, J. Yang, R. Olivares  : DMRG
   Ulf Ekstrom                                   : XCFun DFT Library
   Mihaly Kallay                                 : mrcc  (arbitrary order and MRCC methods)
   Jiri Pittner, Ondrej Demel                    : Mk-CCSD
   Frank Weinhold                                : gennbo (NPA and NBO analysis)
   Christopher J. Cramer and Donald G. Truhlar   : smd solvation model
   Lars Goerigk                                  : TD-DFT with DH, B97 family of functionals
   V. Asgeirsson, H. Jonsson                     : NEB implementation
   FAccTs GmbH                                   : IRC, NEB, NEB-TS, DLPNO-Multilevel, CI-OPT
                                                   MM, QMMM, 2- and 3-layer-ONIOM, Crystal-QMMM,
                                                   LR-CPCM, SF, NACMEs, symmetry and pop. for TD-DFT,
                                                   nearIR, NL-DFT gradient (VV10), updates on ESD,
                                                   ML-optimized integration grids
   S Lehtola, MJT Oliveira, MAL Marques          : LibXC Library
   Liviu Ungur et al                             : ANISO software


 Your calculation uses the libint2 library for the computation of 2-el integrals
 For citations please refer to: http://libint.valeyev.net

 Your ORCA version has been built with support for libXC version: 5.1.0
 For citations please refer to: https://tddft.org/programs/libxc/

 This ORCA versions uses:
   CBLAS   interface :  Fast vector & matrix operations
   LAPACKE interface :  Fast linear algebra routines
   SCALAPACK package :  Parallel linear algebra routines
   Shared memory     :  Shared parallel matrices
   BLAS/LAPACK       :  OpenBLAS 0.3.15  USE64BITINT DYNAMIC_ARCH NO_AFFINITY SkylakeX SINGLE_THREADED
        Core in use  :  SkylakeX
   Copyright (c) 2011-2014, The OpenBLAS Project




***************************************
The coordinates will be read from file: 9+_Gas_imag3.xyz
***************************************


Your calculation utilizes the atom-pairwise dispersion correction
based on tight binding partial charges (D4)
Cite in your paper:
E.Caldeweyher, C.Bannwarth, S.Grimme, J.Chem.Phys., (2017), 147, 034112.
E.Caldeweyher, S.Ehlert, A.Hansen, H.Neugebauer, S.Grimme, J.Chem.Phys., (2018), in progress.
   

XCFun DFT library Copyright 2009-2010 Ulf Ekstrom and contributors.
See http://admol.org/xcfun for more information.
This is free software; see the source code for copying conditions.
There is ABSOLUTELY NO WARRANTY; not even for MERCHANTABILITY or FITNESS FOR A PARTICULAR PURPOSE.
For details see the documentation.
Scientific users of this library should cite U. Ekstrom, L. Visscher, R. Bast, A. J. Thorvaldsen and K. Ruud;
J.Chem.Theor.Comp. 2010, DOI: 10.1021/ct100117s
XCFun Version 0.99 

================================================================================

----- Orbital basis set information -----
Your calculation utilizes the basis: def2-SVP
   F. Weigend and R. Ahlrichs, Phys. Chem. Chem. Phys. 7, 3297 (2005).

----- AuxJ basis set information -----
Your calculation utilizes the auxiliary basis: def2/J
   F. Weigend, Phys. Chem. Chem. Phys. 8, 1057 (2006).

================================================================================
                                        WARNINGS
                       Please study these warnings very carefully!
================================================================================


WARNING: Geometry Optimization
  ===> : Switching off AutoStart
         For restart on a previous wavefunction, please use MOREAD

INFO   : the flag for use of the SHARK integral package has been found!

================================================================================
                                       INPUT FILE
================================================================================
NAME = 9+_Gas_imag3.inp
|  1> # ORCAForces - ../2023_04/pKa_prediction/DFT_Calcs/extra_carbenes/imag/9+_Gas_imag3.inp
|  2> # Basic Mode
|  3> #
|  4> ! Opt FREQ wB97X D4 Def2-SVP SlowConv TightSCF DEFGRID2 Def2/J RIJCOSX 
|  5> 
|  6> %maxcore 4500
|  7> 
|  8> %PAL NPROCS 4 END
|  9> 
| 10> %geom 
| 11> Maxiter 150
| 12> END
| 13> 
| 14> * xyzfile 1 1 9+_Gas_imag3.xyz
| 15> 
| 16>                          ****END OF INPUT****
================================================================================

                       *****************************
                       * Geometry Optimization Run *
                       *****************************

Geometry optimization settings:
Update method            Update   .... BFGS
Choice of coordinates    CoordSys .... Z-matrix Internals
Initial Hessian          InHess   .... Almoef's Model

Convergence Tolerances:
Energy Change            TolE     ....  5.0000e-06 Eh
Max. Gradient            TolMAXG  ....  3.0000e-04 Eh/bohr
RMS Gradient             TolRMSG  ....  1.0000e-04 Eh/bohr
Max. Displacement        TolMAXD  ....  4.0000e-03 bohr
RMS Displacement         TolRMSD  ....  2.0000e-03 bohr
Strict Convergence                ....  False
------------------------------------------------------------------------------
                        ORCA OPTIMIZATION COORDINATE SETUP
------------------------------------------------------------------------------

The optimization will be done in new redundant internal coordinates
Making redundant internal coordinates   ...  (new redundants) done
Evaluating the initial hessian          ...  (Almloef) done
Evaluating the coordinates              ...  done
Calculating the B-matrix                .... done
Calculating the G-matrix                .... done
Diagonalizing the G-matrix              .... done
The first mode is                       ....   44
The number of degrees of freedom        ....   48

    -----------------------------------------------------------------
                    Redundant Internal Coordinates


    -----------------------------------------------------------------
         Definition                    Initial Value    Approx d2E/dq
    -----------------------------------------------------------------
      1. B(C   1,C   0)                  1.5439         0.355010   
      2. B(N   2,C   0)                  1.4704         0.416528   
      3. B(N   3,C   1)                  1.4706         0.416239   
      4. B(C   4,N   3)                  1.3124         0.744078   
      5. B(C   4,N   2)                  1.3123         0.744528   
      6. B(H   5,C   0)                  1.1006         0.346301   
      7. B(H   6,C   1)                  1.1007         0.346170   
      8. B(H   7,C   1)                  1.1006         0.346325   
      9. B(H   8,C   0)                  1.1008         0.346138   
     10. B(C   9,N   2)                  1.4835         0.396926   
     11. B(C  10,N   3)                  1.5228         0.343504   
     12. B(H  11,C   9)                  1.0998         0.347395   
     13. B(H  12,C  10)                  1.0999         0.347299   
     14. B(H  13,C  10)                  1.0998         0.347395   
     15. B(H  14,C   9)                  1.0999         0.347289   
     16. B(H  15,C   9)                  1.0974         0.350391   
     17. B(H  16,C  10)                  1.0974         0.350421   
     18. B(H  17,C   4)                  1.0946         0.354033   
     19. A(N   2,C   0,H   5)          109.7528         0.326097   
     20. A(C   1,C   0,N   2)          102.9229         0.364681   
     21. A(C   1,C   0,H   8)          113.0240         0.319547   
     22. A(C   1,C   0,H   5)          113.0333         0.319571   
     23. A(H   5,C   0,H   8)          108.2812         0.287280   
     24. A(N   2,C   0,H   8)          109.6974         0.326071   
     25. A(C   0,C   1,N   3)          102.9244         0.364638   
     26. A(H   6,C   1,H   7)          108.2610         0.287287   
     27. A(N   3,C   1,H   7)          109.8204         0.326063   
     28. A(C   0,C   1,H   7)          112.9864         0.319575   
     29. A(C   0,C   1,H   6)          112.9656         0.319552   
     30. A(N   3,C   1,H   6)          109.7640         0.326039   
     31. A(C   0,N   2,C   4)          110.0676         0.412309   
     32. A(C   0,N   2,C   9)          142.3932         0.369407   
     33. A(C   4,N   2,C   9)          107.5245         0.408801   
     34. A(C   4,N   3,C  10)          150.0199         0.398465   
     35. A(C   1,N   3,C  10)           99.9268         0.360338   
     36. A(C   1,N   3,C   4)          110.0524         0.412214   
     37. A(N   2,C   4,N   3)          114.0305         0.457679   
     38. A(N   3,C   4,H  17)          122.9657         0.360724   
     39. A(N   2,C   4,H  17)          123.0039         0.360761   
     40. A(H  14,C   9,H  15)          109.0248         0.287957   
     41. A(N   2,C   9,H  15)          124.0649         0.324148   
     42. A(H  11,C   9,H  14)          109.1606         0.287570   
     43. A(N   2,C   9,H  14)           97.6973         0.323675   
     44. A(H  11,C   9,H  15)          108.9816         0.287970   
     45. A(N   2,C   9,H  11)          106.8775         0.323692   
     46. A(H  13,C  10,H  16)          108.9413         0.287974   
     47. A(H  12,C  10,H  16)          108.9883         0.287962   
     48. A(N   3,C  10,H  16)           89.2784         0.316584   
     49. A(H  12,C  10,H  13)          109.1572         0.287572   
     50. A(N   3,C  10,H  13)          129.8364         0.316137   
     51. A(N   3,C  10,H  12)          107.8818         0.316123   
     52. D(H   7,C   1,C   0,N   2)   -118.8182         0.010132   
     53. D(N   3,C   1,C   0,H   8)    117.8020         0.010132   
     54. D(H   6,C   1,C   0,N   2)    117.8537         0.010132   
     55. D(H   7,C   1,C   0,H   8)     -0.5726         0.010132   
     56. D(H   6,C   1,C   0,H   8)   -123.9007         0.010132   
     57. D(N   3,C   1,C   0,N   2)     -0.4436         0.010132   
     58. D(H   6,C   1,C   0,H   5)     -0.4625         0.010132   
     59. D(N   3,C   1,C   0,H   5)   -118.7598         0.010132   
     60. D(H   7,C   1,C   0,H   5)    122.8656         0.010132   
     61. D(C   9,N   2,C   0,H   8)     58.1627         0.014796   
     62. D(C   9,N   2,C   0,H   5)    -60.6901         0.014796   
     63. D(C   4,N   2,C   0,H   8)   -120.1633         0.014796   
     64. D(C   9,N   2,C   0,C   1)    178.7177         0.014796   
     65. D(C   4,N   2,C   0,H   5)    120.9839         0.014796   
     66. D(C   4,N   2,C   0,C   1)      0.3917         0.014796   
     67. D(C  10,N   3,C   1,H   7)    -59.2907         0.014775   
     68. D(C  10,N   3,C   1,H   6)     59.6190         0.014775   
     69. D(C  10,N   3,C   1,C   0)   -179.8614         0.014775   
     70. D(C   4,N   3,C   1,H   7)    120.9519         0.014775   
     71. D(C   4,N   3,C   1,H   6)   -120.1384         0.014775   
     72. D(C   4,N   3,C   1,C   0)      0.3811         0.014775   
     73. D(H  17,C   4,N   3,C  10)      0.3244         0.046411   
     74. D(H  17,C   4,N   3,C   1)    179.8462         0.046411   
     75. D(N   2,C   4,N   3,C  10)   -179.6738         0.046411   
     76. D(N   2,C   4,N   3,C   1)     -0.1520         0.046411   
     77. D(H  17,C   4,N   2,C   9)      0.9022         0.046473   
     78. D(H  17,C   4,N   2,C   0)    179.8311         0.046473   
     79. D(N   3,C   4,N   2,C   9)   -179.0996         0.046473   
     80. D(N   3,C   4,N   2,C   0)     -0.1708         0.046473   
     81. D(H  11,C   9,N   2,C   4)    -89.1475         0.013456   
     82. D(H  11,C   9,N   2,C   0)     92.5013         0.013456   
     83. D(H  15,C   9,N   2,C   4)     38.8375         0.013456   
     84. D(H  15,C   9,N   2,C   0)   -139.5137         0.013456   
     85. D(H  14,C   9,N   2,C   4)    158.0773         0.013456   
     86. D(H  14,C   9,N   2,C   0)    -20.2738         0.013456   
     87. D(H  16,C  10,N   3,C   4)    -28.1474         0.010211   
     88. D(H  16,C  10,N   3,C   1)    152.3086         0.010211   
     89. D(H  13,C  10,N   3,C   4)   -142.4936         0.010211   
     90. D(H  13,C  10,N   3,C   1)     37.9624         0.010211   
     91. D(H  12,C  10,N   3,C   4)     81.5989         0.010211   
     92. D(H  12,C  10,N   3,C   1)    -97.9451         0.010211   
    -----------------------------------------------------------------

Number of atoms                         .... 18
Number of degrees of freedom            .... 92

         *************************************************************
         *                GEOMETRY OPTIMIZATION CYCLE   1            *
         *************************************************************
---------------------------------
CARTESIAN COORDINATES (ANGSTROEM)
---------------------------------
  C      0.006620    0.779040   -1.284130
  C     -0.006490   -0.764370   -1.248580
  N      0.004320    1.140820    0.141040
  N     -0.003280   -1.060230    0.191910
  C      0.000860    0.056900    0.880750
  H     -0.879670    1.205970   -1.777710
  H     -0.904490   -1.197110   -1.715440
  H      0.879300   -1.212770   -1.723630
  H      0.904390    1.190880   -1.770010
  C      0.030950    2.307020    1.057570
  C     -0.012900   -2.582390    0.147300
  H     -1.015390    2.561310    1.281220
  H     -1.051200   -2.917750    0.285660
  H      0.499910   -3.270300   -0.540680
  H      0.437530    3.042650    0.348180
  H      0.614070    2.345630    1.986470
  H      0.500340   -2.600230    1.117140
  H      0.001350    0.081870    1.975090

----------------------------
CARTESIAN COORDINATES (A.U.)
----------------------------
  NO LB      ZA    FRAG     MASS         X           Y           Z
   0 C     6.0000    0    12.011    0.012510    1.472172   -2.426654
   1 C     6.0000    0    12.011   -0.012264   -1.444450   -2.359474
   2 N     7.0000    0    14.007    0.008164    2.155837    0.266527
   3 N     7.0000    0    14.007   -0.006198   -2.003544    0.362657
   4 C     6.0000    0    12.011    0.001625    0.107525    1.664376
   5 H     1.0000    0     1.008   -1.662335    2.278953   -3.359385
   6 H     1.0000    0     1.008   -1.709238   -2.262210   -3.241712
   7 H     1.0000    0     1.008    1.661636   -2.291803   -3.257189
   8 H     1.0000    0     1.008    1.709049    2.250437   -3.344834
   9 C     6.0000    0    12.011    0.058487    4.359636    1.998518
  10 C     6.0000    0    12.011   -0.024377   -4.880010    0.278357
  11 H     1.0000    0     1.008   -1.918809    4.840174    2.421155
  12 H     1.0000    0     1.008   -1.986480   -5.513748    0.539819
  13 H     1.0000    0     1.008    0.944693   -6.179971   -1.021737
  14 H     1.0000    0     1.008    0.826812    5.749775    0.657965
  15 H     1.0000    0     1.008    1.160424    4.432598    3.753884
  16 H     1.0000    0     1.008    0.945506   -4.913723    2.111089
  17 H     1.0000    0     1.008    0.002551    0.154712    3.732379

--------------------------------
INTERNAL COORDINATES (ANGSTROEM)
--------------------------------
 C      0   0   0     0.000000000000     0.00000000     0.00000000
 C      1   0   0     1.543875028200     0.00000000     0.00000000
 N      1   2   0     1.470373961719   102.92293510     0.00000000
 N      2   1   3     1.470562777919   102.92437218   359.55642689
 C      3   1   2     1.312274903402   110.06764112     0.39165635
 H      1   2   3     1.100636363837   113.03325061   241.68376446
 H      2   1   3     1.100738918727   112.96562527   117.85370575
 H      2   1   3     1.100617547834   112.98636463   241.18182146
 H      1   2   3     1.100764522003   113.02401225   118.24561994
 C      3   1   2     1.483495479535   142.39318545   178.71768314
 C      4   2   1     1.522843938853    99.92676809   180.13855139
 H     10   3   1     1.099777305731   106.87746583    92.50132573
 H     11   4   2     1.099853039819   107.88183942   262.05490038
 H     11   4   2     1.099777588697   129.83641421    37.96240345
 H     10   3   1     1.099860429964    97.69733410   339.72617273
 H     10   3   1     1.097440147115   124.06487100   220.48634117
 H     11   4   2     1.097416597651    89.27841238   152.30864673
 H      5   3   1     1.094624947916   123.00385003   179.83106670

---------------------------
INTERNAL COORDINATES (A.U.)
---------------------------
 C      0   0   0     0.000000000000     0.00000000     0.00000000
 C      1   0   0     2.917500988298     0.00000000     0.00000000
 N      1   2   0     2.778604102097   102.92293510     0.00000000
 N      2   1   3     2.778960913005   102.92437218   359.55642689
 C      3   1   2     2.479840179849   110.06764112     0.39165635
 H      1   2   3     2.079901300687   113.03325061   241.68376446
 H      2   1   3     2.080095101342   112.96562527   117.85370575
 H      2   1   3     2.079865743594   112.98636463   241.18182146
 H      1   2   3     2.080143484522   113.02401225   118.24561994
 C      3   1   2     2.803400177231   142.39318545   178.71768314
 C      4   2   1     2.877757989133    99.92676809   180.13855139
 H     10   3   1     2.078277916133   106.87746583    92.50132573
 H     11   4   2     2.078421032819   107.88183942   262.05490038
 H     11   4   2     2.078278450861   129.83641421    37.96240345
 H     10   3   1     2.078434998168    97.69733410   339.72617273
 H     10   3   1     2.073861326418   124.06487100   220.48634117
 H     11   4   2     2.073816824380    89.27841238   152.30864673
 H      5   3   1     2.068541370919   123.00385003   179.83106670

---------------------
BASIS SET INFORMATION
---------------------
There are 3 groups of distinct atoms

 Group   1 Type C   : 7s4p1d contracted to 3s2p1d pattern {511/31/1}
 Group   2 Type N   : 7s4p1d contracted to 3s2p1d pattern {511/31/1}
 Group   3 Type H   : 4s1p contracted to 2s1p pattern {31/1}

Atom   0C    basis set group =>   1
Atom   1C    basis set group =>   1
Atom   2N    basis set group =>   2
Atom   3N    basis set group =>   2
Atom   4C    basis set group =>   1
Atom   5H    basis set group =>   3
Atom   6H    basis set group =>   3
Atom   7H    basis set group =>   3
Atom   8H    basis set group =>   3
Atom   9C    basis set group =>   1
Atom  10C    basis set group =>   1
Atom  11H    basis set group =>   3
Atom  12H    basis set group =>   3
Atom  13H    basis set group =>   3
Atom  14H    basis set group =>   3
Atom  15H    basis set group =>   3
Atom  16H    basis set group =>   3
Atom  17H    basis set group =>   3
---------------------------------
AUXILIARY/J BASIS SET INFORMATION
---------------------------------
There are 3 groups of distinct atoms

 Group   1 Type C   : 12s5p4d2f1g contracted to 6s4p3d1f1g pattern {711111/2111/211/2/1}
 Group   2 Type N   : 12s5p4d2f1g contracted to 6s4p3d1f1g pattern {711111/2111/211/2/1}
 Group   3 Type H   : 5s2p1d contracted to 3s1p1d pattern {311/2/1}

Atom   0C    basis set group =>   1
Atom   1C    basis set group =>   1
Atom   2N    basis set group =>   2
Atom   3N    basis set group =>   2
Atom   4C    basis set group =>   1
Atom   5H    basis set group =>   3
Atom   6H    basis set group =>   3
Atom   7H    basis set group =>   3
Atom   8H    basis set group =>   3
Atom   9C    basis set group =>   1
Atom  10C    basis set group =>   1
Atom  11H    basis set group =>   3
Atom  12H    basis set group =>   3
Atom  13H    basis set group =>   3
Atom  14H    basis set group =>   3
Atom  15H    basis set group =>   3
Atom  16H    basis set group =>   3
Atom  17H    basis set group =>   3


           ************************************************************
           *        Program running with 4 parallel MPI-processes     *
           *              working on a common directory               *
           ************************************************************
------------------------------------------------------------------------------
                           ORCA GTO INTEGRAL CALCULATION
                           -- RI-GTO INTEGRALS CHOSEN --
------------------------------------------------------------------------------
------------------------------------------------------------------------------
                   ___                                                        
                  /   \      - P O W E R E D   B Y -                         
                 /     \                                                     
                 |  |  |   _    _      __       _____    __    __             
                 |  |  |  | |  | |    /  \     |  _  \  |  |  /  |          
                  \  \/   | |  | |   /    \    | | | |  |  | /  /          
                 / \  \   | |__| |  /  /\  \   | |_| |  |  |/  /          
                |  |  |   |  __  | /  /__\  \  |    /   |      \           
                |  |  |   | |  | | |   __   |  |    \   |  |\   \          
                \     /   | |  | | |  |  |  |  | |\  \  |  | \   \       
                 \___/    |_|  |_| |__|  |__|  |_| \__\ |__|  \__/        
                                                                              
                      - O R C A' S   B I G   F R I E N D -                    
                                      &                                       
                       - I N T E G R A L  F E E D E R -                       
                                                                              
 v1 FN, 2020, v2 2021                                                         
------------------------------------------------------------------------------


Reading SHARK input file 9+_Gas_imag3.SHARKINP.tmp ... ok
----------------------
SHARK INTEGRAL PACKAGE
----------------------

Number of atoms                             ...     18
Number of basis functions                   ...    153
Number of shells                            ...     75
Maximum angular momentum                    ...      2
Integral batch strategy                     ... SHARK/LIBINT Hybrid
RI-J (if used) integral strategy            ... SPLIT-RIJ (Revised 2003 algorithm where possible)
Printlevel                                  ...      1
Contraction scheme used                     ... SEGMENTED contraction
Coulomb Range Separation                    ... NOT USED
Exchange Range Separation                   ... Long Range
   Mu parameter                             ...  0.300000
   Scaling (regular/separated)              ...  0.157706  0.842294
Finite Nucleus Model                        ... NOT USED
Auxiliary Coulomb fitting basis             ... AVAILABLE
   # of basis functions in Aux-J            ...    464
   # of shells in Aux-J                     ...    160
   Maximum angular momentum in Aux-J        ...      4
Auxiliary J/K fitting basis                 ... NOT available
Auxiliary Correlation fitting basis         ... NOT available
Auxiliary 'external' fitting basis          ... NOT available
Integral threshold                          ...     2.500000e-11
Primitive cut-off                           ...     2.500000e-12
Primitive pair pre-selection threshold      ...     2.500000e-12

Calculating pre-screening integrals         ... done (  0.0 sec) Dimension = 75
Organizing shell pair data                  ... done (  0.0 sec)
Shell pair information
Total number of shell pairs                 ...      2850
Shell pairs after pre-screening             ...      2720
Total number of primitive shell pairs       ...      9854
Primitive shell pairs kept                  ...      7135
          la=0 lb=0:    911 shell pairs
          la=1 lb=0:   1026 shell pairs
          la=1 lb=1:    300 shell pairs
          la=2 lb=0:    287 shell pairs
          la=2 lb=1:    169 shell pairs
          la=2 lb=2:     27 shell pairs

Calculating one electron integrals          ... done (  0.0 sec)
Calculating RI/J V-Matrix + Cholesky decomp.... done (  0.1 sec)
Calculating Nuclear repulsion               ... done (  0.0 sec) ENN=    324.418863649018 Eh

SHARK setup successfully completed in   0.3 seconds

Maximum memory used throughout the entire GTOINT-calculation: 11.4 MB


           ************************************************************
           *        Program running with 4 parallel MPI-processes     *
           *              working on a common directory               *
           ************************************************************
-------------------------------------------------------------------------------
                                 ORCA SCF
-------------------------------------------------------------------------------

------------
SCF SETTINGS
------------
Hamiltonian:
 Density Functional     Method          .... DFT(GTOs)
 Exchange Functional    Exchange        .... WB97X
 Correlation Functional Correlation     .... WB97X
 Gradients option       PostSCFGGA      .... off
 Hybrid DFT is turned on
   Fraction HF Exchange ScalHFX         ....  0.157706
   Scaling of DF-GGA-X  ScalDFX         ....  0.000000
   Scaling of DF-GGA-C  ScalDFC         ....  1.000000
   Scaling of DF-LDA-C  ScalLDAC        ....  1.000000
   Perturbative correction              ....  0.000000
   Density functional embedding theory  .... OFF
 Long-range corrected/Screened/Range-Separated Hybrid DFT is turned on
   Amount of maximum screened exact exchange              ....  0.842294
   Range separation parameter mu (erf(mu*r12)/r12)        ....  0.300000
 RI-approximation to the Coulomb term is turned on
   Number of AuxJ basis functions       .... 464
   RIJ-COSX (HFX calculated with COS-X)).... on


General Settings:
 Integral files         IntName         .... 9+_Gas_imag3
 Hartree-Fock type      HFTyp           .... RHF
 Total Charge           Charge          ....    1
 Multiplicity           Mult            ....    1
 Number of Electrons    NEL             ....   54
 Basis Dimension        Dim             ....  153
 Nuclear Repulsion      ENuc            ....    324.4188636490 Eh

Convergence Acceleration:
 DIIS                   CNVDIIS         .... on
   Start iteration      DIISMaxIt       ....     0
   Startup error        DIISStart       ....  0.200000
   # of expansion vecs  DIISMaxEq       ....     5
   Bias factor          DIISBfac        ....   1.050
   Max. coefficient     DIISMaxC        ....  10.000
 Trust-Rad. Augm. Hess. CNVTRAH         .... auto
   Auto Start mean grad. ratio tolernc. ....  1.125000
   Auto Start start iteration           ....    20
   Auto Start num. interpolation iter.  ....    10
   Max. Number of Micro iterations      ....    16
   Max. Number of Macro iterations      .... Maxiter - #DIIS iter
   Number of Davidson start vectors     ....     2
   Converg. threshold I  (grad. norm)   ....   1.000e-05
   Converg. threshold II (energy diff.) ....   1.000e-08
   Grad. Scal. Fac. for Micro threshold ....   0.100
   Minimum threshold for Micro iter.    ....   0.010
   NR start threshold (gradient norm)   ....   0.001
   Initial trust radius                 ....   0.400
   Minimum AH scaling param. (alpha)    ....   1.000
   Maximum AH scaling param. (alpha)    .... 1000.000
   Orbital update algorithm             .... Taylor
   White noise on init. David. guess    .... on
   Maximum white noise                  ....   0.010
   Quad. conv. algorithm                .... NR
 SOSCF                  CNVSOSCF        .... on
   Start iteration      SOSCFMaxIt      ....   150
   Startup grad/error   SOSCFStart      ....  0.001000
 Level Shifting         CNVShift        .... on
   Level shift para.    LevelShift      ....    0.2500
   Turn off err/grad.   ShiftErr        ....    0.0000
 Zerner damping         CNVZerner       .... off
 Static damping         CNVDamp         .... on
   Fraction old density DampFac         ....    0.8500
   Max. Damping (<1)    DampMax         ....    0.9800
   Min. Damping (>=0)   DampMin         ....    0.0000
   Turn off err/grad.   DampErr         ....    0.0300
 Fernandez-Rico         CNVRico         .... off

SCF Procedure:
 Maximum # iterations   MaxIter         ....   125
 SCF integral mode      SCFMode         .... Direct
   Integral package                     .... SHARK and LIBINT hybrid scheme
 Reset frequency        DirectResetFreq ....    20
 Integral Threshold     Thresh          ....  2.500e-11 Eh
 Primitive CutOff       TCut            ....  2.500e-12 Eh

Convergence Tolerance:
 Convergence Check Mode ConvCheckMode   .... Total+1el-Energy
 Convergence forced     ConvForced      .... 0
 Energy Change          TolE            ....  1.000e-08 Eh
 1-El. energy change                    ....  1.000e-05 Eh
 Orbital Gradient       TolG            ....  1.000e-05
 Orbital Rotation angle TolX            ....  1.000e-05
 DIIS Error             TolErr          ....  5.000e-07


Diagonalization of the overlap matrix:
Smallest eigenvalue                        ... 1.662e-03
Time for diagonalization                   ...    0.005 sec
Threshold for overlap eigenvalues          ... 1.000e-08
Number of eigenvalues below threshold      ... 0
Time for construction of square roots      ...    0.003 sec
Total time needed                          ...    0.008 sec

Time for model grid setup =    0.118 sec

------------------------------
INITIAL GUESS: MODEL POTENTIAL
------------------------------
Loading Hartree-Fock densities                     ... done
Calculating cut-offs                               ... done
Initializing the effective Hamiltonian             ... done
Setting up the integral package (SHARK)            ... done
Starting the Coulomb interaction                   ... done (   0.1 sec)
Reading the grid                                   ... done
Mapping shells                                     ... done
Starting the XC term evaluation                    ... done (   0.1 sec)
  promolecular density results
     # of electrons  =     54.992350467
     EX              =    -41.938917835
     EC              =     -1.820224932
     EX+EC           =    -43.759142767
Transforming the Hamiltonian                       ... done (   0.0 sec)
Diagonalizing the Hamiltonian                      ... done (   0.0 sec)
Back transforming the eigenvectors                 ... done (   0.0 sec)
Now organizing SCF variables                       ... done
                      ------------------
                      INITIAL GUESS DONE (   0.3 sec)
                      ------------------
-------------------
DFT GRID GENERATION
-------------------

General Integration Accuracy     IntAcc      ... 4.388
Radial Grid Type                 RadialGrid  ... OptM3 with GC (2021)
Angular Grid (max. ang.)         AngularGrid ... 4 (Lebedev-302)
Angular grid pruning method      GridPruning ... 4 (adaptive)
Weight generation scheme         WeightScheme... Becke
Basis function cutoff            BFCut       ... 1.0000e-11
Integration weight cutoff        WCut        ... 1.0000e-14
Angular grids for H and He will be reduced by one unit
Partially contracted basis set               ... off
Rotationally invariant grid construction     ... off

Total number of grid points                  ...    77415
Total number of batches                      ...     1218
Average number of points per batch           ...       63
Average number of grid points per atom       ...     4301
Time for grid setup =    0.469 sec

--------------------
COSX GRID GENERATION
--------------------

GRIDX 1
-------
General Integration Accuracy     IntAcc      ... 3.816
Radial Grid Type                 RadialGrid  ... OptM3 with GC (2021)
Angular Grid (max. ang.)         AngularGrid ... 1 (Lebedev-50)
Angular grid pruning method      GridPruning ... 4 (adaptive)
Weight generation scheme         WeightScheme... Becke
Basis function cutoff            BFCut       ... 1.0000e-11
Integration weight cutoff        WCut        ... 1.0000e-14
Angular grids for H and He will be reduced by one unit
Partially contracted basis set               ... on
Rotationally invariant grid construction     ... off

Total number of grid points                  ...     9975
Total number of batches                      ...      167
Average number of points per batch           ...       59
Average number of grid points per atom       ...      554
UseSFitting                                  ... on

GRIDX 2
-------
General Integration Accuracy     IntAcc      ... 4.020
Radial Grid Type                 RadialGrid  ... OptM3 with GC (2021)
Angular Grid (max. ang.)         AngularGrid ... 2 (Lebedev-110)
Angular grid pruning method      GridPruning ... 4 (adaptive)
Weight generation scheme         WeightScheme... Becke
Basis function cutoff            BFCut       ... 1.0000e-11
Integration weight cutoff        WCut        ... 1.0000e-14
Angular grids for H and He will be reduced by one unit
Partially contracted basis set               ... on
Rotationally invariant grid construction     ... off

Total number of grid points                  ...    20903
Total number of batches                      ...      334
Average number of points per batch           ...       62
Average number of grid points per atom       ...     1161
UseSFitting                                  ... on

GRIDX 3
-------
General Integration Accuracy     IntAcc      ... 4.338
Radial Grid Type                 RadialGrid  ... OptM3 with GC (2021)
Angular Grid (max. ang.)         AngularGrid ... 3 (Lebedev-194)
Angular grid pruning method      GridPruning ... 4 (adaptive)
Weight generation scheme         WeightScheme... Becke
Basis function cutoff            BFCut       ... 1.0000e-11
Integration weight cutoff        WCut        ... 1.0000e-14
Angular grids for H and He will be reduced by one unit
Partially contracted basis set               ... on
Rotationally invariant grid construction     ... off

Total number of grid points                  ...    45665
Total number of batches                      ...      724
Average number of points per batch           ...       63
Average number of grid points per atom       ...     2537
UseSFitting                                  ... on

Time for X-Grid setup             =    0.482 sec

--------------
SCF ITERATIONS
--------------
ITER       Energy         Delta-E        Max-DP      RMS-DP      [F,P]     Damp
               ***  Starting incremental Fock matrix formation  ***
  0   -305.9688165374   0.000000000000 0.02232738  0.00064651  0.1002028 0.8500
  1   -305.9840062930  -0.015189755610 0.02044534  0.00059607  0.0815149 0.8500
                               ***Turning on DIIS***
  2   -305.9956528580  -0.011646564974 0.01628494  0.00048546  0.0633954 0.8500
  3   -306.0044469479  -0.008794089955 0.01079427  0.00035600  0.0487475 0.8500
  4   -306.0113292035  -0.006882255625 0.00749530  0.00028051  0.0390504 0.8500
  5   -306.0168070639  -0.005477860376 0.00579083  0.00023431  0.0324148 0.8500
  6   -306.0212962585  -0.004489194622 0.03172871  0.00132871  0.0273681 0.0000
  7   -306.0452121290  -0.023915870482 0.00124329  0.00004478  0.0010207 0.0000
                      *** Initiating the SOSCF procedure ***
                           *** Shutting down DIIS ***
                      *** Re-Reading the Fockian *** 
                      *** Removing any level shift *** 
ITER      Energy       Delta-E        Grad      Rot      Max-DP    RMS-DP
  8   -306.04522498  -0.0000128496  0.000417  0.000417  0.000647  0.000020
               *** Restarting incremental Fock matrix formation ***
  9   -306.04521723   0.0000077437  0.000169  0.000240  0.000370  0.000014
 10   -306.04521782  -0.0000005837  0.000129  0.000255  0.000256  0.000007
 11   -306.04521799  -0.0000001674  0.000013  0.000024  0.000040  0.000002
 12   -306.04521800  -0.0000000109  0.000008  0.000016  0.000020  0.000001
 13   -306.04521800  -0.0000000009  0.000006  0.000009  0.000012  0.000000
                  ***Gradient check signals convergence***
              ***Rediagonalizing the Fockian in SOSCF/NRSCF***

               *****************************************************
               *                     SUCCESS                       *
               *           SCF CONVERGED AFTER  14 CYCLES          *
               *****************************************************

Old exchange energy                            =    -13.856399581 Eh
New exchange energy                            =    -13.856385656 Eh
Exchange energy change after final integration =      0.000013925 Eh
Total energy after final integration           =   -306.045204072 Eh
Final COS-X integration done in                =     5.258 sec

----------------
TOTAL SCF ENERGY
----------------

Total Energy       :         -306.04520407 Eh           -8327.91339 eV

Components:
Nuclear Repulsion  :          324.41886365 Eh            8827.88608 eV
Electronic Energy  :         -630.46406772 Eh          -17155.79947 eV
One Electron Energy:        -1043.85631076 Eh          -28404.77429 eV
Two Electron Energy:          413.39224304 Eh           11248.97482 eV
Max COSX asymmetry :            0.00000292 Eh               0.00008 eV

Virial components:
Potential Energy   :         -608.55120442 Eh          -16559.52014 eV
Kinetic Energy     :          302.50600035 Eh            8231.60676 eV
Virial Ratio       :            2.01169961


DFT components:
N(Alpha)           :       27.000006249916 electrons
N(Beta)            :       27.000006249916 electrons
N(Total)           :       54.000012499833 electrons
E(XC)              :      -30.810175896716 Eh       
DFET-embed. en.    :        0.000000000000 Eh       

---------------
SCF CONVERGENCE
---------------

  Last Energy change         ...    4.2564e-10  Tolerance :   1.0000e-08
  Last MAX-Density change    ...    3.1086e-15  Tolerance :   1.0000e-07
  Last RMS-Density change    ...    4.2441e-17  Tolerance :   5.0000e-09
  Last Orbital Gradient      ...    6.7503e-07  Tolerance :   1.0000e-05
  Last Orbital Rotation      ...    1.7755e-06  Tolerance :   1.0000e-05

             **** THE GBW FILE WAS UPDATED (9+_Gas_imag3.gbw) ****
             **** DENSITY 9+_Gas_imag3.scfp WAS UPDATED ****
             **** ENERGY FILE WAS UPDATED (9+_Gas_imag3.en.tmp) ****
             **** THE GBW FILE WAS UPDATED (9+_Gas_imag3.gbw) ****
             **** DENSITY 9+_Gas_imag3.scfp WAS UPDATED ****
----------------
ORBITAL ENERGIES
----------------

  NO   OCC          E(Eh)            E(eV) 
   0   2.0000     -14.640071      -398.3766 
   1   2.0000     -14.639401      -398.3584 
   2   2.0000     -10.564288      -287.4689 
   3   2.0000     -10.493369      -285.5391 
   4   2.0000     -10.486830      -285.3612 
   5   2.0000     -10.486675      -285.3569 
   6   2.0000     -10.477430      -285.1054 
   7   2.0000      -1.342603       -36.5341 
   8   2.0000      -1.228449       -33.4278 
   9   2.0000      -1.082978       -29.4693 
  10   2.0000      -1.050823       -28.5944 
  11   2.0000      -0.978004       -26.6128 
  12   2.0000      -0.938254       -25.5312 
  13   2.0000      -0.891351       -24.2549 
  14   2.0000      -0.821390       -22.3512 
  15   2.0000      -0.808012       -21.9871 
  16   2.0000      -0.770538       -20.9674 
  17   2.0000      -0.736043       -20.0288 
  18   2.0000      -0.730776       -19.8854 
  19   2.0000      -0.727341       -19.7920 
  20   2.0000      -0.706558       -19.2264 
  21   2.0000      -0.689503       -18.7623 
  22   2.0000      -0.653485       -17.7822 
  23   2.0000      -0.652525       -17.7561 
  24   2.0000      -0.639619       -17.4049 
  25   2.0000      -0.608779       -16.5657 
  26   2.0000      -0.509219       -13.8565 
  27   0.0000      -0.104847        -2.8530 
  28   0.0000      -0.016418        -0.4468 
  29   0.0000      -0.009502        -0.2586 
  30   0.0000      -0.000878        -0.0239 
  31   0.0000       0.010811         0.2942 
  32   0.0000       0.027579         0.7505 
  33   0.0000       0.037030         1.0076 
  34   0.0000       0.044097         1.1999 
  35   0.0000       0.060189         1.6378 
  36   0.0000       0.076890         2.0923 
  37   0.0000       0.085385         2.3234 
  38   0.0000       0.090420         2.4605 
  39   0.0000       0.110595         3.0094 
  40   0.0000       0.127055         3.4573 
  41   0.0000       0.130294         3.5455 
  42   0.0000       0.136629         3.7179 
  43   0.0000       0.179328         4.8798 
  44   0.0000       0.207386         5.6432 
  45   0.0000       0.242907         6.6098 
  46   0.0000       0.313618         8.5340 
  47   0.0000       0.322551         8.7771 
  48   0.0000       0.328892         8.9496 
  49   0.0000       0.370604        10.0846 
  50   0.0000       0.387536        10.5454 
  51   0.0000       0.392987        10.6937 
  52   0.0000       0.428485        11.6597 
  53   0.0000       0.456295        12.4164 
  54   0.0000       0.473016        12.8714 
  55   0.0000       0.493824        13.4376 
  56   0.0000       0.509573        13.8662 
  57   0.0000       0.520368        14.1599 
  58   0.0000       0.554558        15.0903 
  59   0.0000       0.562795        15.3144 
  60   0.0000       0.573356        15.6018 
  61   0.0000       0.583334        15.8733 
  62   0.0000       0.589280        16.0351 
  63   0.0000       0.590997        16.0819 
  64   0.0000       0.599463        16.3122 
  65   0.0000       0.607275        16.5248 
  66   0.0000       0.613305        16.6889 
  67   0.0000       0.619416        16.8552 
  68   0.0000       0.627077        17.0636 
  69   0.0000       0.632528        17.2120 
  70   0.0000       0.636328        17.3154 
  71   0.0000       0.648405        17.6440 
  72   0.0000       0.671835        18.2815 
  73   0.0000       0.684052        18.6140 
  74   0.0000       0.757278        20.6066 
  75   0.0000       0.806811        21.9544 
  76   0.0000       0.814350        22.1596 
  77   0.0000       0.862296        23.4643 
  78   0.0000       0.913012        24.8443 
  79   0.0000       0.929966        25.3056 
  80   0.0000       0.991106        26.9694 
  81   0.0000       1.070481        29.1293 
  82   0.0000       1.104861        30.0648 
  83   0.0000       1.125140        30.6166 
  84   0.0000       1.156480        31.4694 
  85   0.0000       1.201366        32.6908 
  86   0.0000       1.231133        33.5008 
  87   0.0000       1.269940        34.5568 
  88   0.0000       1.297953        35.3191 
  89   0.0000       1.353106        36.8199 
  90   0.0000       1.393126        37.9089 
  91   0.0000       1.448490        39.4154 
  92   0.0000       1.470813        40.0228 
  93   0.0000       1.472770        40.0761 
  94   0.0000       1.491362        40.5820 
  95   0.0000       1.548959        42.1493 
  96   0.0000       1.573355        42.8132 
  97   0.0000       1.599944        43.5367 
  98   0.0000       1.631443        44.3938 
  99   0.0000       1.655327        45.0437 
 100   0.0000       1.666013        45.3345 
 101   0.0000       1.679531        45.7024 
 102   0.0000       1.696287        46.1583 
 103   0.0000       1.700482        46.2725 
 104   0.0000       1.704687        46.3869 
 105   0.0000       1.711641        46.5761 
 106   0.0000       1.740537        47.3624 
 107   0.0000       1.767441        48.0945 
 108   0.0000       1.772717        48.2381 
 109   0.0000       1.794721        48.8368 
 110   0.0000       1.819022        49.4981 
 111   0.0000       1.837156        49.9916 
 112   0.0000       1.863480        50.7079 
 113   0.0000       1.880704        51.1766 
 114   0.0000       1.909396        51.9573 
 115   0.0000       1.921005        52.2732 
 116   0.0000       1.943377        52.8820 
 117   0.0000       1.982897        53.9574 
 118   0.0000       1.993950        54.2581 
 119   0.0000       2.022783        55.0427 
 120   0.0000       2.044809        55.6421 
 121   0.0000       2.117291        57.6144 
 122   0.0000       2.156241        58.6743 
 123   0.0000       2.211650        60.1821 
 124   0.0000       2.228555        60.6421 
 125   0.0000       2.255133        61.3653 
 126   0.0000       2.286662        62.2232 
 127   0.0000       2.303128        62.6713 
 128   0.0000       2.328400        63.3590 
 129   0.0000       2.357108        64.1402 
 130   0.0000       2.404703        65.4353 
 131   0.0000       2.459396        66.9236 
 132   0.0000       2.470905        67.2367 
 133   0.0000       2.500299        68.0366 
 134   0.0000       2.549268        69.3691 
 135   0.0000       2.567466        69.8643 
 136   0.0000       2.594095        70.5889 
 137   0.0000       2.621737        71.3411 
 138   0.0000       2.644137        71.9506 
 139   0.0000       2.742946        74.6394 
 140   0.0000       2.752445        74.8978 
 141   0.0000       2.766204        75.2722 
 142   0.0000       2.799504        76.1784 
 143   0.0000       2.821930        76.7886 
 144   0.0000       2.849575        77.5409 
 145   0.0000       2.859509        77.8112 
 146   0.0000       2.866367        77.9978 
 147   0.0000       2.920251        79.4641 
 148   0.0000       2.961381        80.5833 
 149   0.0000       3.005550        81.7852 
 150   0.0000       3.143649        85.5430 
 151   0.0000       3.286421        89.4281 
 152   0.0000       3.395223        92.3887 

                    ********************************
                    * MULLIKEN POPULATION ANALYSIS *
                    ********************************

-----------------------
MULLIKEN ATOMIC CHARGES
-----------------------
   0 C :    0.143016
   1 C :    0.055085
   2 N :   -0.369958
   3 N :   -0.358943
   4 C :    0.285356
   5 H :    0.098389
   6 H :    0.097642
   7 H :    0.099192
   8 H :    0.097706
   9 C :    0.060313
  10 C :    0.063629
  11 H :    0.095005
  12 H :    0.110065
  13 H :    0.134472
  14 H :    0.081358
  15 H :    0.112030
  16 H :    0.075132
  17 H :    0.120509
Sum of atomic charges:    1.0000000

--------------------------------
MULLIKEN REDUCED ORBITAL CHARGES
--------------------------------
  0 C s       :     2.993043  s :     2.993043
      pz      :     0.754535  p :     2.819451
      px      :     1.089414
      py      :     0.975502
      dz2     :     0.013871  d :     0.044490
      dxz     :     0.010257
      dyz     :     0.007414
      dx2y2   :     0.006752
      dxy     :     0.006196
  1 C s       :     3.020206  s :     3.020206
      pz      :     0.778839  p :     2.878312
      px      :     1.090856
      py      :     1.008617
      dz2     :     0.014923  d :     0.046397
      dxz     :     0.009931
      dyz     :     0.006954
      dx2y2   :     0.007708
      dxy     :     0.006883
  2 N s       :     3.457250  s :     3.457250
      pz      :     1.150758  p :     3.882513
      px      :     1.569459
      py      :     1.162296
      dz2     :     0.006072  d :     0.030195
      dxz     :     0.004531
      dyz     :     0.010771
      dx2y2   :     0.003947
      dxy     :     0.004874
  3 N s       :     3.438013  s :     3.438013
      pz      :     1.177156  p :     3.892958
      px      :     1.562217
      py      :     1.153584
      dz2     :     0.006319  d :     0.027973
      dxz     :     0.003215
      dyz     :     0.008825
      dx2y2   :     0.004088
      dxy     :     0.005526
  4 C s       :     3.093819  s :     3.093819
      pz      :     0.922484  p :     2.539674
      px      :     0.800137
      py      :     0.817053
      dz2     :     0.015478  d :     0.081151
      dxz     :     0.006161
      dyz     :     0.022143
      dx2y2   :     0.011399
      dxy     :     0.025970
  5 H s       :     0.879359  s :     0.879359
      pz      :     0.005062  p :     0.022252
      px      :     0.012059
      py      :     0.005130
  6 H s       :     0.880532  s :     0.880532
      pz      :     0.004949  p :     0.021825
      px      :     0.012353
      py      :     0.004523
  7 H s       :     0.878927  s :     0.878927
      pz      :     0.004976  p :     0.021880
      px      :     0.012156
      py      :     0.004748
  8 H s       :     0.880005  s :     0.880005
      pz      :     0.005042  p :     0.022289
      px      :     0.012255
      py      :     0.004991
  9 C s       :     3.041165  s :     3.041165
      pz      :     0.941130  p :     2.860429
      px      :     1.077526
      py      :     0.841773
      dz2     :     0.004820  d :     0.038092
      dxz     :     0.006940
      dyz     :     0.012594
      dx2y2   :     0.007876
      dxy     :     0.005863
 10 C s       :     3.054447  s :     3.054447
      pz      :     1.086295  p :     2.845777
      px      :     1.090852
      py      :     0.668629
      dz2     :     0.007060  d :     0.036148
      dxz     :     0.004385
      dyz     :     0.005049
      dx2y2   :     0.012731
      dxy     :     0.006922
 11 H s       :     0.881828  s :     0.881828
      pz      :     0.004330  p :     0.023168
      px      :     0.014772
      py      :     0.004066
 12 H s       :     0.866359  s :     0.866359
      pz      :     0.005176  p :     0.023575
      px      :     0.014683
      py      :     0.003716
 13 H s       :     0.840473  s :     0.840473
      pz      :     0.008833  p :     0.025054
      px      :     0.007439
      py      :     0.008783
 14 H s       :     0.895353  s :     0.895353
      pz      :     0.008473  p :     0.023289
      px      :     0.006145
      py      :     0.008672
 15 H s       :     0.863360  s :     0.863360
      pz      :     0.012985  p :     0.024610
      px      :     0.008228
      py      :     0.003397
 16 H s       :     0.900355  s :     0.900355
      pz      :     0.012941  p :     0.024513
      px      :     0.007173
      py      :     0.004399
 17 H s       :     0.857291  s :     0.857291
      pz      :     0.017964  p :     0.022200
      px      :     0.002809
      py      :     0.001426


                     *******************************
                     * LOEWDIN POPULATION ANALYSIS *
                     *******************************

----------------------
LOEWDIN ATOMIC CHARGES
----------------------
   0 C :    0.067112
   1 C :    0.055619
   2 N :    0.000753
   3 N :   -0.011146
   4 C :    0.178269
   5 H :    0.051342
   6 H :    0.049754
   7 H :    0.048221
   8 H :    0.051627
   9 C :    0.047854
  10 C :    0.063257
  11 H :    0.047099
  12 H :    0.055780
  13 H :    0.069713
  14 H :    0.051654
  15 H :    0.057628
  16 H :    0.049902
  17 H :    0.065561

-------------------------------
LOEWDIN REDUCED ORBITAL CHARGES
-------------------------------
  0 C s       :     2.840916  s :     2.840916
      pz      :     0.854559  p :     2.984938
      px      :     1.107012
      py      :     1.023367
      dz2     :     0.033256  d :     0.107034
      dxz     :     0.025811
      dyz     :     0.016356
      dx2y2   :     0.017926
      dxy     :     0.013684
  1 C s       :     2.844825  s :     2.844825
      pz      :     0.875250  p :     2.989586
      px      :     1.100917
      py      :     1.013418
      dz2     :     0.035243  d :     0.109970
      dxz     :     0.025143
      dyz     :     0.014434
      dx2y2   :     0.020029
      dxy     :     0.015121
  2 N s       :     3.069710  s :     3.069710
      pz      :     1.173182  p :     3.864175
      px      :     1.500874
      py      :     1.190119
      dz2     :     0.013795  d :     0.065362
      dxz     :     0.007370
      dyz     :     0.027690
      dx2y2   :     0.008796
      dxy     :     0.007711
  3 N s       :     3.068433  s :     3.068433
      pz      :     1.198242  p :     3.882687
      px      :     1.499249
      py      :     1.185196
      dz2     :     0.016646  d :     0.060026
      dxz     :     0.005773
      dyz     :     0.019395
      dx2y2   :     0.009383
      dxy     :     0.008830
  4 C s       :     2.840188  s :     2.840188
      pz      :     1.035754  p :     2.794516
      px      :     0.817910
      py      :     0.940852
      dz2     :     0.036704  d :     0.187027
      dxz     :     0.009722
      dyz     :     0.059458
      dx2y2   :     0.028359
      dxy     :     0.052784
  5 H s       :     0.882003  s :     0.882003
      pz      :     0.015817  p :     0.066654
      px      :     0.034055
      py      :     0.016783
  6 H s       :     0.883780  s :     0.883780
      pz      :     0.015737  p :     0.066466
      px      :     0.034679
      py      :     0.016050
  7 H s       :     0.885449  s :     0.885449
      pz      :     0.015798  p :     0.066330
      px      :     0.034034
      py      :     0.016498
  8 H s       :     0.881659  s :     0.881659
      pz      :     0.015752  p :     0.066714
      px      :     0.034584
      py      :     0.016378
  9 C s       :     2.837728  s :     2.837728
      pz      :     1.014092  p :     3.022185
      px      :     1.101457
      py      :     0.906637
      dz2     :     0.011193  d :     0.092233
      dxz     :     0.017999
      dyz     :     0.031082
      dx2y2   :     0.018164
      dxy     :     0.013795
 10 C s       :     2.843735  s :     2.843735
      pz      :     1.106370  p :     3.007074
      px      :     1.106650
      py      :     0.794054
      dz2     :     0.017153  d :     0.085934
      dxz     :     0.010896
      dyz     :     0.010925
      dx2y2   :     0.029933
      dxy     :     0.017027
 11 H s       :     0.886379  s :     0.886379
      pz      :     0.011830  p :     0.066522
      px      :     0.041530
      py      :     0.013162
 12 H s       :     0.876541  s :     0.876541
      pz      :     0.014632  p :     0.067679
      px      :     0.041530
      py      :     0.011516
 13 H s       :     0.859155  s :     0.859155
      pz      :     0.025290  p :     0.071132
      px      :     0.020488
      py      :     0.025354
 14 H s       :     0.881798  s :     0.881798
      pz      :     0.024359  p :     0.066548
      px      :     0.016680
      py      :     0.025509
 15 H s       :     0.873234  s :     0.873234
      pz      :     0.036610  p :     0.069138
      px      :     0.022536
      py      :     0.009992
 16 H s       :     0.878470  s :     0.878470
      pz      :     0.037296  p :     0.071628
      px      :     0.019228
      py      :     0.015104
 17 H s       :     0.866848  s :     0.866848
      pz      :     0.051804  p :     0.067591
      px      :     0.008824
      py      :     0.006964


                      *****************************
                      * MAYER POPULATION ANALYSIS *
                      *****************************

  NA   - Mulliken gross atomic population
  ZA   - Total nuclear charge
  QA   - Mulliken gross atomic charge
  VA   - Mayer's total valence
  BVA  - Mayer's bonded valence
  FA   - Mayer's free valence

  ATOM       NA         ZA         QA         VA         BVA        FA
  0 C      5.8570     6.0000     0.1430     3.9115     3.9115    -0.0000
  1 C      5.9449     6.0000     0.0551     3.9564     3.9564     0.0000
  2 N      7.3700     7.0000    -0.3700     3.3434     3.3434    -0.0000
  3 N      7.3589     7.0000    -0.3589     3.3235     3.3235    -0.0000
  4 C      5.7146     6.0000     0.2854     3.8612     3.8612    -0.0000
  5 H      0.9016     1.0000     0.0984     0.9838     0.9838    -0.0000
  6 H      0.9024     1.0000     0.0976     0.9796     0.9796     0.0000
  7 H      0.9008     1.0000     0.0992     0.9803     0.9803     0.0000
  8 H      0.9023     1.0000     0.0977     0.9849     0.9849    -0.0000
  9 C      5.9397     6.0000     0.0603     3.8544     3.8544     0.0000
 10 C      5.9364     6.0000     0.0636     3.8031     3.8031     0.0000
 11 H      0.9050     1.0000     0.0950     0.9872     0.9872     0.0000
 12 H      0.8899     1.0000     0.1101     0.9894     0.9894     0.0000
 13 H      0.8655     1.0000     0.1345     0.9786     0.9786     0.0000
 14 H      0.9186     1.0000     0.0814     0.9983     0.9983     0.0000
 15 H      0.8880     1.0000     0.1120     0.9820     0.9820     0.0000
 16 H      0.9249     1.0000     0.0751     0.9987     0.9987    -0.0000
 17 H      0.8795     1.0000     0.1205     0.9938     0.9938    -0.0000

  Mayer bond orders larger than 0.100000
B(  0-C ,  1-C ) :   1.0735 B(  0-C ,  2-N ) :   0.8970 B(  0-C ,  5-H ) :   0.9559 
B(  0-C ,  8-H ) :   0.9535 B(  1-C ,  3-N ) :   0.9387 B(  1-C ,  6-H ) :   0.9493 
B(  1-C ,  7-H ) :   0.9556 B(  2-N ,  3-N ) :   0.1038 B(  2-N ,  4-C ) :   1.4237 
B(  2-N ,  9-C ) :   0.8756 B(  3-N ,  4-C ) :   1.4094 B(  3-N , 10-C ) :   0.8375 
B(  4-C , 17-H ) :   0.9655 B(  9-C , 11-H ) :   0.9779 B(  9-C , 14-H ) :   0.9762 
B(  9-C , 15-H ) :   0.9664 B( 10-C , 12-H ) :   0.9735 B( 10-C , 13-H ) :   0.9628 
B( 10-C , 16-H ) :   0.9788 

-------
TIMINGS
-------

Total SCF time: 0 days 0 hours 0 min 37 sec 

Total time                  ....      37.105 sec
Sum of individual times     ....      36.570 sec  ( 98.6%)

Fock matrix formation       ....      35.082 sec  ( 94.5%)
  Split-RI-J                ....       1.614 sec  (  4.6% of F)
  Chain of spheres X        ....      28.572 sec  ( 81.4% of F)
  XC integration            ....       4.623 sec  ( 13.2% of F)
    Basis function eval.    ....       1.501 sec  ( 32.5% of XC)
    Density eval.           ....       1.009 sec  ( 21.8% of XC)
    XC-Functional eval.     ....       0.627 sec  ( 13.6% of XC)
    XC-Potential eval.      ....       0.915 sec  ( 19.8% of XC)
Diagonalization             ....       0.095 sec  (  0.3%)
Density matrix formation    ....       0.004 sec  (  0.0%)
Population analysis         ....       0.039 sec  (  0.1%)
Initial guess               ....       0.140 sec  (  0.4%)
Orbital Transformation      ....       0.000 sec  (  0.0%)
Orbital Orthonormalization  ....       0.000 sec  (  0.0%)
DIIS solution               ....       0.046 sec  (  0.1%)
SOSCF solution              ....       0.094 sec  (  0.3%)
Grid generation             ....       1.070 sec  (  2.9%)

Maximum memory used throughout the entire SCF-calculation: 52.5 MB


-------------------------------------------------------------------------------
                          DFT DISPERSION CORRECTION                            
                                                                               
                                 DFTD4 V2.5                                    
-------------------------------------------------------------------------------
The WB97X functional is recognized
Active option DFTDOPT                   ...         5   

Starting D4
-------------------------   ----------------
Dispersion correction           -0.001833798
-------------------------   ----------------


-------------------------   --------------------
FINAL SINGLE POINT ENERGY      -306.047037870514
-------------------------   --------------------



           ************************************************************
           *        Program running with 4 parallel MPI-processes     *
           *              working on a common directory               *
           ************************************************************
------------------------------------------------------------------------------
                         ORCA SCF GRADIENT CALCULATION
------------------------------------------------------------------------------

 ... reading COSX grid (gridx3)
Gradient of the Kohn-Sham DFT energy:
Kohn-Sham wavefunction type      ... RKS
Hartree-Fock exchange scaling    ...    0.158
Number of operators              ...    1
Number of atoms                  ...   18
Basis set dimensions             ...  153
Integral neglect threshold       ... 2.5e-11
Integral primitive cutoff        ... 2.5e-12
SHARK Integral package           ... ON

Nuc. rep. gradient       (SHARK) ... done (  0.0 sec)
HCore & Overlap gradient (SHARK) ... done (  0.1 sec)
RI-J gradient            (SHARK) ... done (  0.7 sec)
COSX-gradient                    ... done (  5.7 sec)
Exchange-correlation gradient    ... done
Dispersion correction            ... Starting D4
Starting D4
Starting D4
Starting D4


------------------- 
Dispersion Gradient 
------------------- 
   1  :    0.000000080    0.000009126   -0.000018403
   2  :   -0.000000142   -0.000012328   -0.000017992
   3  :   -0.000000070    0.000014736    0.000000692
   4  :   -0.000000068   -0.000012242    0.000001674
   5  :    0.000000049    0.000004920    0.000009061
   6  :   -0.000001187    0.000003075   -0.000003235
   7  :   -0.000001155   -0.000002745   -0.000002158
   8  :    0.000001184   -0.000002649   -0.000002159
   9  :    0.000001258    0.000002999   -0.000003265
  10  :   -0.000000191    0.000030773    0.000016744
  11  :   -0.000000308   -0.000033977    0.000001126
  12  :   -0.000000071    0.000007417    0.000003781
  13  :    0.000000037   -0.000008273    0.000000920
  14  :    0.000000060   -0.000008486    0.000000993
  15  :    0.000000087    0.000006470    0.000003612
  16  :    0.000000700    0.000008223    0.000004562
  17  :   -0.000000190   -0.000008331    0.000000192
  18  :   -0.000000073    0.000001292    0.000003853

  |G| =    0.000056070

done

------------------
CARTESIAN GRADIENT
------------------

   1   C   :   -0.000737135   -0.020903715    0.010475699
   2   C   :    0.000231616   -0.036892463    0.000882744
   3   N   :   -0.007980465    0.031643640   -0.070911659
   4   N   :    0.000670925    0.038933928    0.095270658
   5   C   :   -0.000525946    0.047249920    0.004165386
   6   H   :   -0.000739890   -0.000278852    0.000300275
   7   H   :    0.000326668   -0.001063215   -0.000218071
   8   H   :    0.000116543   -0.002270727   -0.000155464
   9   H   :    0.000619541   -0.000162215    0.000556673
  10   C   :    0.016141559   -0.042873664    0.063736757
  11   C   :    0.008268323   -0.023849430   -0.105088254
  12   H   :   -0.001823853   -0.005204294   -0.001767589
  13   H   :   -0.001019338   -0.000403679    0.001474184
  14   H   :   -0.008568565   -0.027194201    0.015972408
  15   H   :    0.002081825   -0.017847992   -0.014405581
  16   H   :   -0.008217828    0.020139526    0.005773654
  17   H   :    0.001197721    0.040103935   -0.006959340
  18   H   :    0.000153083    0.000831669    0.000829133

Difference to translation invariance:
           :    0.0001947830   -0.0000418302   -0.0000683889

Difference to rotation invariance:
           :    0.0004645103   -0.0001489512    0.0000940157

Norm of the cartesian gradient     ...    0.2061473285
RMS gradient                       ...    0.0280530982
MAX gradient                       ...    0.1050882538

-------
TIMINGS
-------

Total SCF gradient time            ...        8.305 sec

One electron gradient       ....       0.061 sec  (  0.7%)
RI-J Coulomb gradient       ....       0.705 sec  (  8.5%)
COSX gradient               ....       5.749 sec  ( 69.2%)
XC gradient                 ....       1.375 sec  ( 16.6%)

Maximum memory used throughout the entire SCFGRAD-calculation: 40.6 MB
------------------------------------------------------------------------------
                         ORCA GEOMETRY RELAXATION STEP
------------------------------------------------------------------------------

Reading the OPT-File                    .... done
Getting information on internals        .... done
Copying old internal coords+grads       .... done
Making the new internal coordinates     .... (new redundants).... done
Validating the new internal coordinates .... (new redundants).... done
Calculating the B-matrix                .... done
Calculating the G,G- and P matrices     .... done
Transforming gradient to internals      .... done
Projecting the internal gradient        .... done
Number of atoms                         ....  18
Number of internal coordinates          ....  92
Current Energy                          ....  -306.047037871 Eh
Current gradient norm                   ....     0.206147329 Eh/bohr
Maximum allowed component of the step   ....  0.300
Current trust radius                    ....  0.300
Evaluating the initial hessian          ....  (Almloef) done
Projecting the Hessian                  .... done
Forming the augmented Hessian           .... done
Diagonalizing the augmented Hessian     .... done
Last element of RFO vector              ....  0.910840144
Lowest eigenvalues of augmented Hessian:
 -0.078580996  0.010271314  0.013079199  0.013477115  0.018115200
Length of the computed step             ....  0.453163262
Warning: the length of the step is outside the trust region - taking restricted step instead
The input lambda is                     ....    -0.078581
   iter:   1  x=   -0.171863  g=    1.236646 f(x)=     0.115357
   iter:   2  x=   -0.242048  g=    0.551441 f(x)=     0.038703
   iter:   3  x=   -0.263608  g=    0.354580 f(x)=     0.007645
   iter:   4  x=   -0.265023  g=    0.314439 f(x)=     0.000445
   iter:   5  x=   -0.265028  g=    0.312033 f(x)=     0.000002
   iter:   6  x=   -0.265028  g=    0.312023 f(x)=     0.000000
   iter:   7  x=   -0.265028  g=    0.312023 f(x)=     0.000000
The output lambda is                    ....    -0.265028 (7 iterations)
The final length of the internal step   ....  0.300000000
Converting the step to cartesian space:
 Initial RMS(Int)=    0.0312771621
Transforming coordinates:
 Iter   0:  RMS(Cart)=    0.0723853773 RMS(Int)=    0.6555550495
 Iter   1:  RMS(Cart)=    0.0029605101 RMS(Int)=    0.0013798116
 Iter   2:  RMS(Cart)=    0.0001672904 RMS(Int)=    0.0000749043
 Iter   3:  RMS(Cart)=    0.0000105916 RMS(Int)=    0.0000054809
 Iter   4:  RMS(Cart)=    0.0000006759 RMS(Int)=    0.0000003328
 Iter   5:  RMS(Cart)=    0.0000000476 RMS(Int)=    0.0000000260
done
Storing new coordinates                 .... done

                                .--------------------.
          ----------------------|Geometry convergence|-------------------------
          Item                value                   Tolerance       Converged
          ---------------------------------------------------------------------
          RMS gradient        0.0187749897            0.0001000000      NO
          MAX gradient        0.0773062677            0.0003000000      NO
          RMS step            0.0312771621            0.0020000000      NO
          MAX step            0.1244801139            0.0040000000      NO
          ........................................................
          Max(Bonds)      0.0123      Max(Angles)    7.13
          Max(Dihed)        2.16      Max(Improp)    0.00
          ---------------------------------------------------------------------

The optimization has not yet converged - more geometry cycles are needed


    ---------------------------------------------------------------------------
                         Redundant Internal Coordinates
                            (Angstroem and degrees)

        Definition                    Value    dE/dq     Step     New-Value
    ----------------------------------------------------------------------------
     1. B(C   1,C   0)                1.5439 -0.000428 -0.0002    1.5437   
     2. B(N   2,C   0)                1.4704  0.001358 -0.0010    1.4693   
     3. B(N   3,C   1)                1.4706 -0.015898  0.0121    1.4827   
     4. B(C   4,N   3)                1.3124  0.006432 -0.0032    1.3093   
     5. B(C   4,N   2)                1.3123 -0.021400  0.0115    1.3238   
     6. B(H   5,C   0)                1.1006  0.000362 -0.0003    1.1003   
     7. B(H   6,C   1)                1.1007  0.000253 -0.0002    1.1005   
     8. B(H   7,C   1)                1.1006  0.001073 -0.0009    1.0997   
     9. B(H   8,C   0)                1.1008  0.000187 -0.0002    1.1006   
    10. B(C   9,N   2)                1.4835 -0.002885  0.0023    1.4858   
    11. B(C  10,N   3)                1.5228  0.014097 -0.0123    1.5106   
    12. B(H  11,C   9)                1.0998  0.000181 -0.0002    1.0996   
    13. B(H  12,C  10)                1.0999  0.001282 -0.0011    1.0987   
    14. B(H  13,C  10)                1.0998  0.003009 -0.0026    1.0972   
    15. B(H  14,C   9)                1.0999 -0.001875  0.0016    1.1015   
    16. B(H  15,C   9)                1.0974  0.001223 -0.0011    1.0964   
    17. B(H  16,C  10)                1.0974 -0.006238  0.0054    1.1028   
    18. B(H  17,C   4)                1.0946  0.000852 -0.0007    1.0939   
    19. A(N   2,C   0,H   5)          109.75 -0.001065    0.12    109.87   
    20. A(C   1,C   0,N   2)          102.92  0.003194   -0.37    102.55   
    21. A(C   1,C   0,H   8)          113.02 -0.001145    0.12    113.14   
    22. A(C   1,C   0,H   5)          113.03 -0.000708    0.09    113.12   
    23. A(H   5,C   0,H   8)          108.28  0.000958   -0.09    108.19   
    24. A(N   2,C   0,H   8)          109.70 -0.001275    0.14    109.84   
    25. A(C   0,C   1,N   3)          102.92 -0.011032    0.97    103.89   
    26. A(H   6,C   1,H   7)          108.26 -0.002475    0.16    108.42   
    27. A(N   3,C   1,H   7)          109.82  0.002784   -0.17    109.65   
    28. A(C   0,C   1,H   7)          112.99  0.003663   -0.35    112.64   
    29. A(C   0,C   1,H   6)          112.97  0.003677   -0.34    112.63   
    30. A(N   3,C   1,H   6)          109.76  0.003355   -0.26    109.51   
    31. A(C   0,N   2,C   4)          110.07  0.003107   -0.12    109.95   
    32. A(C   0,N   2,C   9)          142.39  0.058098   -5.16    137.23   
    33. A(C   4,N   2,C   9)          107.52 -0.061196    5.28    112.81   
    34. A(C   4,N   3,C  10)          150.02  0.063429   -5.62    144.40   
    35. A(C   1,N   3,C  10)           99.93 -0.077306    6.93    106.86   
    36. A(C   1,N   3,C   4)          110.05  0.013881   -1.31    108.74   
    37. A(N   2,C   4,N   3)          114.03 -0.009151    0.83    114.86   
    38. A(N   3,C   4,H  17)          122.97  0.005424   -0.49    122.47   
    39. A(N   2,C   4,H  17)          123.00  0.003727   -0.34    122.67   
    40. A(H  14,C   9,H  15)          109.02  0.005809   -0.48    108.55   
    41. A(N   2,C   9,H  15)          124.06  0.043521   -4.32    119.75   
    42. A(H  11,C   9,H  14)          109.16  0.011335   -0.92    108.25   
    43. A(N   2,C   9,H  14)           97.70 -0.039698    4.03    101.72   
    44. A(H  11,C   9,H  15)          108.98 -0.008812    0.68    109.66   
    45. A(N   2,C   9,H  11)          106.88 -0.014933    1.36    108.23   
    46. A(H  13,C  10,H  16)          108.94  0.016333   -1.08    107.86   
    47. A(H  12,C  10,H  16)          108.99  0.014446   -1.13    107.86   
    48. A(N   3,C  10,H  16)           89.28 -0.067283    7.13     96.41   
    49. A(H  12,C  10,H  13)          109.16 -0.017339    1.30    110.46   
    50. A(N   3,C  10,H  13)          129.84  0.059256   -6.02    123.81   
    51. A(N   3,C  10,H  12)          107.88 -0.012964    0.92    108.80   
    52. D(H   7,C   1,C   0,N   2)   -118.82  0.001502   -0.19   -119.01   
    53. D(N   3,C   1,C   0,H   8)    117.80 -0.000217    0.02    117.83   
    54. D(H   6,C   1,C   0,N   2)    117.85 -0.000951    0.14    117.99   
    55. D(H   7,C   1,C   0,H   8)     -0.57  0.001357   -0.19     -0.76   
    56. D(H   6,C   1,C   0,H   8)   -123.90 -0.001096    0.14   -123.76   
    57. D(N   3,C   1,C   0,N   2)     -0.44 -0.000072    0.03     -0.42   
    58. D(H   6,C   1,C   0,H   5)     -0.46 -0.001273    0.18     -0.28   
    59. D(N   3,C   1,C   0,H   5)   -118.76 -0.000393    0.07   -118.69   
    60. D(H   7,C   1,C   0,H   5)    122.87  0.001180   -0.15    122.72   
    61. D(C   9,N   2,C   0,H   8)     58.16 -0.000764    0.11     58.28   
    62. D(C   9,N   2,C   0,H   5)    -60.69 -0.000516    0.07    -60.62   
    63. D(C   4,N   2,C   0,H   8)   -120.16  0.000112    0.00   -120.16   
    64. D(C   9,N   2,C   0,C   1)    178.72 -0.000946    0.11    178.83   
    65. D(C   4,N   2,C   0,H   5)    120.98  0.000360   -0.05    120.94   
    66. D(C   4,N   2,C   0,C   1)      0.39 -0.000071   -0.00      0.39   
    67. D(C  10,N   3,C   1,H   7)    -59.29  0.000439   -0.10    -59.39   
    68. D(C  10,N   3,C   1,H   6)     59.62  0.001151   -0.16     59.46   
    69. D(C  10,N   3,C   1,C   0)   -179.86  0.000947   -0.15   -180.01   
    70. D(C   4,N   3,C   1,H   7)    120.95 -0.000225   -0.00    120.95   
    71. D(C   4,N   3,C   1,H   6)   -120.14  0.000487   -0.07   -120.21   
    72. D(C   4,N   3,C   1,C   0)      0.38  0.000282   -0.05      0.33   
    73. D(H  17,C   4,N   3,C  10)      0.32 -0.000504    0.09      0.42   
    74. D(H  17,C   4,N   3,C   1)    179.85 -0.000224   -0.00    179.84   
    75. D(N   2,C   4,N   3,C  10)   -179.67 -0.000677    0.15   -179.52   
    76. D(N   2,C   4,N   3,C   1)     -0.15 -0.000397    0.06     -0.09   
    77. D(H  17,C   4,N   2,C   9)      0.90 -0.001094    0.11      1.01   
    78. D(H  17,C   4,N   2,C   0)    179.83  0.000118    0.03    179.86   
    79. D(N   3,C   4,N   2,C   9)   -179.10 -0.000921    0.05   -179.05   
    80. D(N   3,C   4,N   2,C   0)     -0.17  0.000291   -0.04     -0.21   
    81. D(H  11,C   9,N   2,C   4)    -89.15 -0.006513    0.95    -88.20   
    82. D(H  11,C   9,N   2,C   0)     92.50 -0.006240    0.89     93.39   
    83. D(H  15,C   9,N   2,C   4)     38.84  0.003532   -0.48     38.36   
[...]
      9       0.010889   0.000050   0.000030   0.000065  -0.000001   0.000844
     10       0.263146   0.000319  -0.000404  -0.000383  -0.000039   0.000012
     11       0.132356   0.000329   0.000111   0.000550  -0.000026  -0.000099
     12      -0.002427  -0.000023   0.000027  -0.000012   0.000019  -0.000002
     13      -0.495298  -0.002119  -0.000245  -0.001434   0.000019   0.000008
     14      -0.054315  -0.000238   0.000253  -0.000147   0.000202  -0.000008
     15      -0.025727   0.007947  -0.001355   0.415509  -0.442244  -0.420858
     16       0.070153  -0.002901   0.000027  -0.198399   0.211253   0.210231
     17       0.207919   0.003982  -0.001666   0.144037  -0.152195  -0.152773
     18       0.025773  -0.005846  -0.000344  -0.440771  -0.415098   0.428857
     19       0.114935  -0.001292   0.000960  -0.168949  -0.159381   0.172038
     20      -0.188824  -0.003359  -0.001360  -0.193177  -0.180874   0.196708
     21      -0.065169   0.005353   0.000285   0.400663   0.377774   0.376778
     22       0.115375  -0.001329   0.000848  -0.165479  -0.156272  -0.163896
     23      -0.181393  -0.004667  -0.001591  -0.281549  -0.264348  -0.274454
     24       0.066115  -0.006740   0.000687  -0.376849   0.400007  -0.377801
     25       0.072601  -0.002890  -0.000140  -0.205247   0.217815  -0.215826
     26       0.201482   0.005391  -0.001718   0.224942  -0.237494   0.233046
     27       0.000349   0.001233  -0.001010  -0.000062   0.000043   0.005130
     28      -0.029801   0.036988  -0.030272  -0.000505   0.000027   0.000001
     29       0.005538   0.009682  -0.007965  -0.000378   0.000173  -0.000498
     30      -0.000181  -0.001123  -0.001389   0.000014  -0.000000  -0.004868
     31      -0.028163   0.031137   0.038300  -0.000403   0.000101  -0.000108
     32      -0.011932  -0.001082  -0.001379   0.000246   0.000128   0.000472
     33      -0.066831   0.400430  -0.326741  -0.006587   0.001601  -0.031775
     34      -0.160602  -0.238443   0.194887   0.003212   0.000189   0.020697
     35      -0.086838   0.091056  -0.074139  -0.002711   0.001782  -0.006752
     36       0.064537  -0.324463  -0.397818   0.005055   0.000069   0.030403
     37      -0.173788  -0.170672  -0.209666   0.001639  -0.001302   0.017840
     38       0.049775  -0.117450  -0.143881   0.002935   0.001118   0.010872
     39      -0.050336   0.312266   0.382895  -0.004404   0.000329   0.028324
     40      -0.177119  -0.164713  -0.202392   0.001392  -0.001419  -0.016698
     41       0.059335  -0.173946  -0.213173   0.003676   0.001012  -0.015542
     42       0.049973  -0.379131   0.309410   0.006236  -0.001544  -0.029992
     43      -0.160685  -0.240415   0.196492   0.003373  -0.000001  -0.020696
     44      -0.095603   0.167368  -0.136409  -0.004042   0.002194   0.012673
     45       0.002584  -0.035914   0.029251   0.000679  -0.000270  -0.000040
     46       0.018391   0.045108  -0.036690  -0.002125   0.001582  -0.000013
     47       0.014677  -0.374681   0.305237   0.007244  -0.002883   0.000028
     48      -0.002175   0.025647   0.031389  -0.000485  -0.000085   0.000000
     49       0.021505  -0.030246  -0.037093  -0.000761  -0.001045   0.000121
     50      -0.010379   0.306367   0.374988  -0.005806  -0.001246  -0.001058
     51       0.001846   0.000066  -0.000792  -0.000074  -0.001692   0.000000
     52       0.467741   0.002045   0.001077  -0.000391   0.001819  -0.000010
     53       0.050282   0.000870  -0.007793  -0.000558  -0.016498   0.000132
                 48         49         50         51         52         53    
      0       0.067561   0.000363   0.010710   0.000154  -0.000034  -0.000151
      1       0.000453   0.000003   0.000061   0.000136   0.000062   0.001064
      2      -0.006770  -0.000036  -0.001062   0.000393  -0.000041  -0.001354
      3       0.067126  -0.008609   0.005457   0.000020  -0.000185  -0.000168
      4       0.000652  -0.000084   0.000052   0.000062   0.000224  -0.000750
      5      -0.006554   0.000857  -0.000541   0.000041  -0.000336  -0.001546
      6      -0.000777   0.000315   0.000680   0.000046   0.000001  -0.000340
      7      -0.000004  -0.000001  -0.000033   0.000738  -0.000199   0.004514
      8       0.000075  -0.000036  -0.000076   0.000438  -0.000038  -0.003046
      9      -0.000760  -0.000748   0.000107  -0.000002  -0.000056  -0.000382
     10      -0.000016  -0.000049   0.000020  -0.000157   0.000837  -0.003747
     11       0.000086   0.000078  -0.000009  -0.000009  -0.000253  -0.003947
     12       0.000529   0.000161  -0.000289   0.000103  -0.000126   0.009483
     13      -0.000003  -0.000018   0.000005  -0.000394  -0.000114  -0.010094
     14      -0.000041   0.000006   0.000024   0.001084  -0.001375   0.092426
     15      -0.421495  -0.002249  -0.066017  -0.001689   0.000205   0.006269
     16       0.212130   0.001414   0.034052   0.001634  -0.000121  -0.003437
     17      -0.152181  -0.000239  -0.021827   0.000086  -0.000104   0.002317
     18      -0.422072   0.053157  -0.033764  -0.000075   0.001677   0.006342
     19      -0.171013   0.022828  -0.014046  -0.000053   0.001634   0.002846
     20      -0.193167   0.022574  -0.014905   0.000110   0.000222   0.003004
     21      -0.372254   0.047548  -0.030018  -0.000064  -0.000128  -0.005480
     22       0.163579  -0.021960   0.013493   0.000024   0.000878   0.002688
     23       0.270614  -0.032558   0.021192   0.000219  -0.000399   0.004119
     24      -0.378227  -0.002086  -0.059290   0.000429   0.000121  -0.005544
     25      -0.217595  -0.001416  -0.034726   0.000950   0.000061  -0.003489
     26       0.232425   0.000664   0.034230   0.000439  -0.000274   0.003484
     27       0.009152  -0.027109  -0.090836  -0.009658   0.000218   0.000142
     28      -0.000000  -0.000071  -0.000234   0.036376  -0.000781  -0.000297
     29      -0.000913   0.002947   0.009907  -0.087655   0.001960   0.001223
     30       0.008637   0.090962  -0.026660   0.000227   0.010339   0.000146
     31       0.000164   0.001441  -0.000419   0.000403   0.016489   0.000042
     32      -0.000862  -0.010253   0.003013   0.002114   0.093412   0.001430
     33      -0.055910   0.167028   0.558740   0.297578  -0.006499  -0.000964
     34       0.035351  -0.102082  -0.340868  -0.172569   0.003770  -0.000900
     35      -0.012602   0.040389   0.135526   0.060231  -0.001295  -0.000861
     36      -0.052887  -0.557835   0.163229  -0.007012  -0.306561  -0.001337
     37      -0.029836  -0.299985   0.087572  -0.003631  -0.158518   0.000886
     38      -0.019426  -0.212208   0.062179  -0.002380  -0.102971  -0.000790
     39      -0.049591  -0.529642   0.154987   0.005991   0.257571   0.000900
     40       0.028107   0.286452  -0.083620  -0.003070  -0.131957   0.001038
     41       0.027815   0.305061  -0.089359  -0.003141  -0.133881  -0.000834
     42      -0.052567   0.157161   0.525760  -0.266353   0.005830   0.000534
     43      -0.035333   0.102491   0.342308  -0.163102   0.003558  -0.001056
     44       0.023023  -0.071814  -0.240703   0.109259  -0.002359  -0.000910
     45       0.000616  -0.003141  -0.010769   0.082402  -0.001856  -0.001199
     46      -0.000058   0.000451   0.001585  -0.105638   0.002398  -0.000044
     47       0.000285  -0.003421  -0.011860   0.860737  -0.019421  -0.012483
     48       0.000656   0.011923  -0.003561  -0.001623  -0.072570  -0.001198
     49      -0.000177  -0.002700   0.000796   0.001872   0.083193   0.002957
     50       0.001760   0.028319  -0.008341  -0.019305  -0.864075  -0.013925
     51       0.001933  -0.000364   0.000626  -0.001108   0.001286  -0.100913
     52       0.000033   0.000069   0.000015  -0.000409  -0.002975   0.107432
     53      -0.000402  -0.000149  -0.000092  -0.011030   0.013045  -0.984315


-----------
IR SPECTRUM
-----------

 Mode   freq       eps      Int      T**2         TX        TY        TZ
       cm**-1   L/(mol*cm) km/mol    a.u.
----------------------------------------------------------------------------
  6:     89.66   0.000001    0.00  0.000003  ( 0.001540 -0.000866 -0.000481)
  7:    113.97   0.000263    1.33  0.000721  ( 0.026707  0.000244 -0.002809)
  8:    130.79   0.000073    0.37  0.000174  ( 0.013092  0.000594 -0.001358)
  9:    182.36   0.000574    2.90  0.000982  (-0.031178 -0.000813  0.002982)
 10:    223.31   0.000001    0.01  0.000001  (-0.000187 -0.001175 -0.000075)
 11:    272.58   0.000007    0.03  0.000008  (-0.000181  0.000222 -0.002752)
 12:    400.86   0.000049    0.25  0.000038  (-0.000035 -0.006161 -0.000645)
 13:    479.51   0.005224   26.40  0.003400  ( 0.057979  0.000838 -0.006124)
 14:    614.80   0.000026    0.13  0.000013  (-0.000719  0.000170 -0.003577)
 15:    633.08   0.001449    7.32  0.000714  (-0.000075 -0.026574 -0.002849)
 16:    853.27   0.000001    0.00  0.000000  (-0.000330 -0.000381 -0.000042)
 17:    947.64   0.001727    8.73  0.000569  ( 0.002425 -0.002259  0.023619)
 18:    959.03   0.000612    3.09  0.000199  ( 0.000160  0.014064  0.001138)
 19:   1011.96   0.000757    3.82  0.000233  (-0.015212  0.000278  0.001361)
 20:   1014.90   0.000023    0.11  0.000007  (-0.000702 -0.000351  0.002512)
 21:   1096.20   0.000014    0.07  0.000004  ( 0.000081 -0.001611  0.001231)
 22:   1107.61   0.004405   22.26  0.001241  (-0.000062 -0.035047 -0.003583)
 23:   1114.63   0.001549    7.83  0.000434  (-0.002344  0.001891 -0.020604)
 24:   1143.78   0.000056    0.28  0.000015  (-0.003645  0.001246  0.000631)
 25:   1160.46   0.000010    0.05  0.000003  (-0.000668 -0.001383 -0.000474)
 26:   1198.79   0.016618   83.98  0.004326  ( 0.000617  0.065380  0.007138)
 27:   1234.36   0.001821    9.20  0.000460  (-0.021350 -0.000207  0.002112)
 28:   1259.22   0.000009    0.05  0.000002  (-0.001468  0.000171  0.000377)
 29:   1337.84   0.003746   18.93  0.000874  ( 0.002115  0.015043  0.025357)
 30:   1339.75   0.003773   19.07  0.000879  (-0.001950  0.025701 -0.014643)
 31:   1354.26   0.008759   44.27  0.002018  (-0.000183 -0.044730 -0.004198)
 32:   1394.58   0.003283   16.59  0.000735  ( 0.002821 -0.001994  0.026882)
 33:   1449.93   0.005669   28.65  0.001220  ( 0.008310 -0.033719 -0.003750)
 34:   1455.76   0.000418    2.11  0.000090  ( 0.008026 -0.001343  0.004845)
 35:   1458.89   0.007370   37.25  0.001577  ( 0.039225  0.006089 -0.000887)
 36:   1459.50   0.001142    5.77  0.000244  (-0.011491 -0.005497  0.009052)
 37:   1481.80   0.006352   32.10  0.001338  ( 0.002639 -0.002764  0.036375)
 38:   1488.91   0.000001    0.01  0.000000  (-0.000244 -0.000313 -0.000341)
 39:   1494.71   0.000061    0.31  0.000013  (-0.000336  0.003433  0.000879)
 40:   1512.89   0.000554    2.80  0.000114  (-0.000882  0.001165 -0.010588)
 41:   1625.17   0.005152   26.04  0.000989  (-0.003032  0.003540 -0.031106)
 42:   1783.75   0.104526  528.23  0.018287  (-0.000568 -0.134423 -0.014716)
 43:   3082.59   0.003601   18.20  0.000365  ( 0.000060  0.018931  0.002474)
 44:   3082.94   0.000226    1.14  0.000023  (-0.000581  0.002343 -0.004134)
 45:   3101.54   0.000948    4.79  0.000095  (-0.000000  0.009686  0.001265)
 46:   3105.35   0.000613    3.10  0.000062  ( 0.000668 -0.001170  0.007732)
 47:   3162.93   0.000000    0.00  0.000000  ( 0.000014 -0.000028 -0.000031)
 48:   3173.32   0.000259    1.31  0.000025  ( 0.005018  0.000044 -0.000505)
 49:   3188.60   0.000049    0.25  0.000005  ( 0.002163  0.000042 -0.000295)
 50:   3188.91   0.000165    0.84  0.000016  (-0.004004 -0.000011  0.000396)
 51:   3215.14   0.000053    0.27  0.000005  (-0.000095  0.002068 -0.000934)
 52:   3215.29   0.000048    0.24  0.000005  ( 0.000142  0.001716  0.001307)
 53:   3255.44   0.001406    7.11  0.000135  (-0.001238  0.001174 -0.011485)

* The epsilon (eps) is given for a Dirac delta lineshape.
** The dipole moment derivative (T) already includes vibrational overlap.

The first frequency considered to be a vibration is 6
The total number of vibrations considered is 48


--------------------------
THERMOCHEMISTRY AT 298.15K
--------------------------

Temperature         ... 298.15 K
Pressure            ... 1.00 atm
Total Mass          ... 99.16 AMU

Throughout the following assumptions are being made:
  (1) The electronic state is orbitally nondegenerate
  (2) There are no thermally accessible electronically excited states
  (3) Hindered rotations indicated by low frequency modes are not
      treated as such but are treated as vibrations and this may
      cause some error
  (4) All equations used are the standard statistical mechanics
      equations for an ideal gas
  (5) All vibrations are strictly harmonic

freq.      89.66  E(vib)   ...       0.47 
freq.     113.97  E(vib)   ...       0.44 
freq.     130.79  E(vib)   ...       0.43 
freq.     182.36  E(vib)   ...       0.37 
freq.     223.31  E(vib)   ...       0.33 
freq.     272.58  E(vib)   ...       0.29 
freq.     400.86  E(vib)   ...       0.19 
freq.     479.51  E(vib)   ...       0.15 
freq.     614.80  E(vib)   ...       0.10 
freq.     633.08  E(vib)   ...       0.09 
freq.     853.27  E(vib)   ...       0.04 
freq.     947.64  E(vib)   ...       0.03 
freq.     959.03  E(vib)   ...       0.03 
freq.    1011.96  E(vib)   ...       0.02 
freq.    1014.90  E(vib)   ...       0.02 
freq.    1096.20  E(vib)   ...       0.02 
freq.    1107.61  E(vib)   ...       0.02 
freq.    1114.63  E(vib)   ...       0.01 
freq.    1143.78  E(vib)   ...       0.01 
freq.    1160.46  E(vib)   ...       0.01 
freq.    1198.79  E(vib)   ...       0.01 
freq.    1234.36  E(vib)   ...       0.01 
freq.    1259.22  E(vib)   ...       0.01 
freq.    1337.84  E(vib)   ...       0.01 
freq.    1339.75  E(vib)   ...       0.01 
freq.    1354.26  E(vib)   ...       0.01 
freq.    1394.58  E(vib)   ...       0.00 
freq.    1449.93  E(vib)   ...       0.00 
freq.    1455.76  E(vib)   ...       0.00 
freq.    1458.89  E(vib)   ...       0.00 
freq.    1459.50  E(vib)   ...       0.00 
freq.    1481.80  E(vib)   ...       0.00 
freq.    1488.91  E(vib)   ...       0.00 
freq.    1494.71  E(vib)   ...       0.00 
freq.    1512.89  E(vib)   ...       0.00 
freq.    1625.17  E(vib)   ...       0.00 
freq.    1783.75  E(vib)   ...       0.00 
freq.    3082.59  E(vib)   ...       0.00 
freq.    3082.94  E(vib)   ...       0.00 
freq.    3101.54  E(vib)   ...       0.00 
freq.    3105.35  E(vib)   ...       0.00 
freq.    3162.93  E(vib)   ...       0.00 
freq.    3173.32  E(vib)   ...       0.00 
freq.    3188.60  E(vib)   ...       0.00 
freq.    3188.91  E(vib)   ...       0.00 
freq.    3215.14  E(vib)   ...       0.00 
freq.    3215.29  E(vib)   ...       0.00 
freq.    3255.44  E(vib)   ...       0.00 

------------
INNER ENERGY
------------

The inner energy is: U= E(el) + E(ZPE) + E(vib) + E(rot) + E(trans)
    E(el)   - is the total energy from the electronic structure calculation
              = E(kin-el) + E(nuc-el) + E(el-el) + E(nuc-nuc)
    E(ZPE)  - the the zero temperature vibrational energy from the frequency calculation
    E(vib)  - the the finite temperature correction to E(ZPE) due to population
              of excited vibrational states
    E(rot)  - is the rotational thermal energy
    E(trans)- is the translational thermal energy

Summary of contributions to the inner energy U:
Electronic energy                ...   -306.13737506 Eh
Zero point energy                ...      0.16551462 Eh     103.86 kcal/mol
Thermal vibrational correction   ...      0.00501750 Eh       3.15 kcal/mol
Thermal rotational correction    ...      0.00141627 Eh       0.89 kcal/mol
Thermal translational correction ...      0.00141627 Eh       0.89 kcal/mol
-----------------------------------------------------------------------
Total thermal energy                   -305.96401039 Eh


Summary of corrections to the electronic energy:
(perhaps to be used in another calculation)
Total thermal correction                  0.00785004 Eh       4.93 kcal/mol
Non-thermal (ZPE) correction              0.16551462 Eh     103.86 kcal/mol
-----------------------------------------------------------------------
Total correction                          0.17336467 Eh     108.79 kcal/mol


--------
ENTHALPY
--------

The enthalpy is H = U + kB*T
                kB is Boltzmann's constant
Total free energy                 ...   -305.96401039 Eh 
Thermal Enthalpy correction       ...      0.00094421 Eh       0.59 kcal/mol
-----------------------------------------------------------------------
Total Enthalpy                    ...   -305.96306618 Eh


Note: Only C1 symmetry has been detected, increase convergence thresholds 
      if your molecule has a higher symmetry. Symmetry factor of 1.0 is   
      used for the rotational entropy correction. 
 

Note: Rotational entropy computed according to Herzberg 
Infrared and Raman Spectra, Chapter V,1, Van Nostrand Reinhold, 1945 
Point Group:  C1, Symmetry Number:   1  
Rotational constants in cm-1:     0.190735     0.066102     0.051004 

Vibrational entropy computed according to the QRRHO of S. Grimme
Chem.Eur.J. 2012 18 9955


-------
ENTROPY
-------

The entropy contributions are T*S = T*(S(el)+S(vib)+S(rot)+S(trans))
     S(el)   - electronic entropy
     S(vib)  - vibrational entropy
     S(rot)  - rotational entropy
     S(trans)- translational entropy
The entropies will be listed as multiplied by the temperature to get
units of energy

Electronic entropy                ...      0.00000000 Eh      0.00 kcal/mol
Vibrational entropy               ...      0.00883488 Eh      5.54 kcal/mol
Rotational entropy                ...      0.01298033 Eh      8.15 kcal/mol
Translational entropy             ...      0.01885925 Eh     11.83 kcal/mol
-----------------------------------------------------------------------
Final entropy term                ...      0.04067446 Eh     25.52 kcal/mol

In case the symmetry of your molecule has not been determined correctly
or in case you have a reason to use a different symmetry number we print 
out the resulting rotational entropy values for sn=1,12 :
 --------------------------------------------------------
|  sn= 1 | S(rot)=       0.01298033 Eh      8.15 kcal/mol|
|  sn= 2 | S(rot)=       0.01232587 Eh      7.73 kcal/mol|
|  sn= 3 | S(rot)=       0.01194304 Eh      7.49 kcal/mol|
|  sn= 4 | S(rot)=       0.01167142 Eh      7.32 kcal/mol|
|  sn= 5 | S(rot)=       0.01146073 Eh      7.19 kcal/mol|
|  sn= 6 | S(rot)=       0.01128858 Eh      7.08 kcal/mol|
|  sn= 7 | S(rot)=       0.01114304 Eh      6.99 kcal/mol|
|  sn= 8 | S(rot)=       0.01101696 Eh      6.91 kcal/mol|
|  sn= 9 | S(rot)=       0.01090575 Eh      6.84 kcal/mol|
|  sn=10 | S(rot)=       0.01080627 Eh      6.78 kcal/mol|
|  sn=11 | S(rot)=       0.01071628 Eh      6.72 kcal/mol|
|  sn=12 | S(rot)=       0.01063413 Eh      6.67 kcal/mol|
 --------------------------------------------------------


-------------------
GIBBS FREE ENERGY
-------------------

The Gibbs free energy is G = H - T*S

Total enthalpy                    ...   -305.96306618 Eh 
Total entropy correction          ...     -0.04067446 Eh    -25.52 kcal/mol
-----------------------------------------------------------------------
Final Gibbs free energy         ...   -306.00374065 Eh

For completeness - the Gibbs free energy minus the electronic energy
G-E(el)                           ...      0.13363441 Eh     83.86 kcal/mol


Timings for individual modules:

Sum of individual times         ...      681.375 sec (=  11.356 min)
GTO integral calculation        ...        7.924 sec (=   0.132 min)   1.2 %
SCF iterations                  ...      439.291 sec (=   7.322 min)  64.5 %
SCF Gradient evaluation         ...      117.887 sec (=   1.965 min)  17.3 %
Geometry relaxation             ...        0.675 sec (=   0.011 min)   0.1 %
Analytical frequency calculation...      115.599 sec (=   1.927 min)  17.0 %
                             ****ORCA TERMINATED NORMALLY****
TOTAL RUN TIME: 0 days 0 hours 11 minutes 27 seconds 10 msec
