      -----------------------------------------------------------      
     |                   =====================                   |     
     |                           x T B                           |     
     |                   =====================                   |     
     |                         S. Grimme                         |     
     |          Mulliken Center for Theoretical Chemistry        |     
     |                    University of Bonn                     |     
      -----------------------------------------------------------      

   * xtb version 6.6.1 (8d0f1dd) compiled by 'conda@1efc2f54142f' on 2023-08-01

   xtb is free software: you can redistribute it and/or modify it under
   the terms of the GNU Lesser General Public License as published by
   the Free Software Foundation, either version 3 of the License, or
   (at your option) any later version.
   
   xtb is distributed in the hope that it will be useful,
   but WITHOUT ANY WARRANTY; without even the implied warranty of
   MERCHANTABILITY or FITNESS FOR A PARTICULAR PURPOSE.  See the
   GNU Lesser General Public License for more details.
   
   Cite this work as:
   * C. Bannwarth, E. Caldeweyher, S. Ehlert, A. Hansen, P. Pracht,
     J. Seibert, S. Spicher, S. Grimme, WIREs Comput. Mol. Sci., 2020, 11,
     e01493. DOI: 10.1002/wcms.1493
   
   for GFN2-xTB:
   * C. Bannwarth, S. Ehlert and S. Grimme., J. Chem. Theory Comput., 2019,
     15, 1652-1671. DOI: 10.1021/acs.jctc.8b01176
   for GFN1-xTB:
   * S. Grimme, C. Bannwarth, P. Shushkov, J. Chem. Theory Comput., 2017,
     13, 1989-2009. DOI: 10.1021/acs.jctc.7b00118
   for GFN0-xTB:
   * P. Pracht, E. Caldeweyher, S. Ehlert, S. Grimme, ChemRxiv, 2019, preprint.
     DOI: 10.26434/chemrxiv.8326202.v1
   for GFN-FF:
   * S. Spicher and S. Grimme, Angew. Chem. Int. Ed., 2020, 59, 15665-15673.
     DOI: 10.1002/anie.202004239
   
   for ALPB and GBSA implicit solvation:
   * S. Ehlert, M. Stahn, S. Spicher, S. Grimme, J. Chem. Theory Comput.,
     2021, 17, 4250-4261. DOI: 10.1021/acs.jctc.1c00471
   
   for DFT-D4:
   * E. Caldeweyher, C. Bannwarth and S. Grimme, J. Chem. Phys., 2017,
     147, 034112. DOI: 10.1063/1.4993215
   * E. Caldeweyher, S. Ehlert, A. Hansen, H. Neugebauer, S. Spicher,
     C. Bannwarth and S. Grimme, J. Chem. Phys., 2019, 150, 154122.
     DOI: 10.1063/1.5090222
   * E. Caldeweyher, J.-M. Mewes, S. Ehlert and S. Grimme, Phys. Chem. Chem. Phys.
     2020, 22, 8499-8512. DOI: 10.1039/D0CP00502A
   
   for sTDA-xTB:
   * S. Grimme and C. Bannwarth, J. Chem. Phys., 2016, 145, 054103.
     DOI: 10.1063/1.4959605
   
   in the mass-spec context:
   * V. Asgeirsson, C. Bauer and S. Grimme, Chem. Sci., 2017, 8, 4879.
     DOI: 10.1039/c7sc00601b
   * J. Koopman and S. Grimme, ACS Omega 2019, 4, 12, 15120-15133.
     DOI: 10.1021/acsomega.9b02011
   
   for metadynamics refer to:
   * S. Grimme, J. Chem. Theory Comput., 2019, 155, 2847-2862
     DOI: 10.1021/acs.jctc.9b00143
   
   for SPH calculations refer to:
   * S. Spicher and S. Grimme, J. Chem. Theory Comput., 2021, 17, 1701-1714
     DOI: 10.1021/acs.jctc.0c01306
   
   with help from (in alphabetical order)
   P. Atkinson, C. Bannwarth, F. Bohle, G. Brandenburg, E. Caldeweyher
   M. Checinski, S. Dohm, S. Ehlert, S. Ehrlich, I. Gerasimov, C. Hölzer
   A. Katbashev, J. Koopman, C. Lavigne, S. Lehtola, F. März, M. Müller,
   F. Musil, H. Neugebauer, J. Pisarek, C. Plett, P. Pracht, F. Pultar,
   J. Seibert, P. Shushkov, S. Spicher, M. Stahn, M. Steiner, T. Strunk,
   J. Stückrath, T. Rose, and J. Unsleber
   
 * started run on 2024/02/12 at 14:13:51.687     

           -------------------------------------------------
          |                Calculation Setup                |
           -------------------------------------------------

          program call               : xtb struc.xyz --gfn2 --ceasefiles --opt
          hostname                   : node021
          coordinate file            : struc.xyz
          omp threads                :                     1

   ID    Z sym.   atoms
    1    6 C      1, 2, 5-7, 11-14, 27, 28
    2    7 N      3, 4
    3    1 H      8-10, 15-26, 29-34

           -------------------------------------------------
          |                 G F N 2 - x T B                 |
           -------------------------------------------------

        Reference                      10.1021/acs.jctc.8b01176
      * Hamiltonian:
        H0-scaling (s, p, d)           1.850000    2.230000    2.230000
        zeta-weighting                 0.500000
      * Dispersion:
        s8                             2.700000
        a1                             0.520000
        a2                             5.000000
        s9                             5.000000
      * Repulsion:
        kExp                           1.500000    1.000000
        rExp                           1.000000
      * Coulomb:
        alpha                          2.000000
        third order                    shell-resolved
        anisotropic                    true
        a3                             3.000000
        a5                             4.000000
        cn-shift                       1.200000
        cn-exp                         4.000000
        max-rad                        5.000000


          ...................................................
          :                      SETUP                      :
          :.................................................:
          :  # basis functions                  73          :
          :  # atomic orbitals                  73          :
          :  # shells                           47          :
          :  # electrons                        74          :
          :  max. iterations                   250          :
          :  Hamiltonian                  GFN2-xTB          :
          :  restarted?                      false          :
          :  GBSA solvation                  false          :
          :  PC potential                    false          :
          :  electronic temp.          300.0000000     K    :
          :  accuracy                    1.0000000          :
          :  -> integral cutoff          0.2500000E+02      :
          :  -> integral neglect         0.1000000E-07      :
          :  -> SCF convergence          0.1000000E-05 Eh   :
          :  -> wf. convergence          0.1000000E-03 e    :
          :  Broyden damping             0.4000000          :
          ...................................................

 iter      E             dE          RMSdq      gap      omega  full diag
   1    -40.2382625 -0.402383E+02  0.277E+00    5.48       0.0  T
   2    -40.3434779 -0.105215E+00  0.194E+00    4.60       1.0  T
   3    -40.3504723 -0.699437E-02  0.108E+00    4.81       1.0  T
   4    -40.3506371 -0.164767E-03  0.275E-01    4.59       1.0  T
   5    -40.3515280 -0.890943E-03  0.707E-02    4.63       1.0  T
   6    -40.3515631 -0.350691E-04  0.388E-02    4.63       1.0  T
   7    -40.3515647 -0.158987E-05  0.185E-02    4.64       1.0  T
   8    -40.3515701 -0.540304E-05  0.196E-03    4.64       8.8  T
   9    -40.3515701 -0.254553E-07  0.102E-03    4.63      16.9  T
  10    -40.3515701 -0.108646E-07  0.509E-04    4.63      33.7  T
  11    -40.3515701 -0.267125E-08  0.659E-05    4.63     260.4  T

   *** convergence criteria satisfied after 11 iterations ***

         #    Occupation            Energy/Eh            Energy/eV
      -------------------------------------------------------------
         1        2.0000           -0.8780712             -23.8935
       ...           ...                  ...                  ...
        31        2.0000           -0.5892177             -16.0334
        32        2.0000           -0.5847683             -15.9124
        33        2.0000           -0.5815501             -15.8248
        34        2.0000           -0.5771646             -15.7054
        35        2.0000           -0.5711468             -15.5417
        36        2.0000           -0.5690221             -15.4839
        37        2.0000           -0.5656407             -15.3919 (HOMO)
        38                         -0.3953258             -10.7574 (LUMO)
        39                         -0.3595675              -9.7843
        40                         -0.1954620              -5.3188
        41                         -0.1577286              -4.2920
        42                         -0.0928438              -2.5264
       ...                                ...                  ...
        73                          0.4624557              12.5841
      -------------------------------------------------------------
                  HL-Gap            0.1703149 Eh            4.6345 eV
             Fermi-level           -0.4804832 Eh          -13.0746 eV

 SCC (total)                   0 d,  0 h,  0 min,  0.231 sec
 SCC setup                      ...        0 min,  0.000 sec (  0.206%)
 Dispersion                     ...        0 min,  0.000 sec (  0.203%)
 classical contributions        ...        0 min,  0.000 sec (  0.061%)
 integral evaluation            ...        0 min,  0.006 sec (  2.547%)
 iterations                     ...        0 min,  0.205 sec ( 88.761%)
 molecular gradient             ...        0 min,  0.019 sec (  8.083%)
 printout                       ...        0 min,  0.000 sec (  0.130%)

         :::::::::::::::::::::::::::::::::::::::::::::::::::::
         ::                     SUMMARY                     ::
         :::::::::::::::::::::::::::::::::::::::::::::::::::::
         :: total energy             -39.739997738900 Eh    ::
         :: gradient norm              0.074729688453 Eh/a0 ::
         :: HOMO-LUMO gap              4.634505353925 eV    ::
         ::.................................................::
         :: SCC energy               -40.351570111033 Eh    ::
         :: -> isotropic ES            0.076175222853 Eh    ::
         :: -> anisotropic ES         -0.005625436926 Eh    ::
         :: -> anisotropic XC          0.027222418606 Eh    ::
         :: -> dispersion             -0.027986419167 Eh    ::
         :: repulsion energy           0.611258189282 Eh    ::
         :: add. restraining           0.000000000000 Eh    ::
         :: total charge               1.000000000000 e     ::
         :::::::::::::::::::::::::::::::::::::::::::::::::::::

      ----------------------------------------------------------- 
     |                   =====================                   |
     |                        A N C O P T                        |
     |                   =====================                   |
     |               Approximate Normal Coordinate               |
     |                Rational Function Optimizer                |
      ----------------------------------------------------------- 

Optimization log is written to '/dev/null'

          ...................................................
          :                      SETUP                      :
          :.................................................:
          :   optimization level             crude          :
          :   max. optcycles                   200          :
          :   ANC micro-cycles                  20          :
          :   degrees of freedom                96          :
          :.................................................:
          :   RF solver                   davidson          :
          :   write xtbopt.log                true          :
          :   linear?                        false          :
          :   energy convergence         0.5000000E-03 Eh   :
          :   grad. convergence          0.1000000E-01 Eh/α :
          :   maxmium RF displ.          1.0000000          :
          :   Hlow (freq-cutoff)         0.5000000E-02      :
          :   Hmax (freq-cutoff)         5.0000000          :
          :   S6 in model hess.         20.0000000          :
          ...................................................

generating ANC from model Hessian ...
Using Lindh-Hessian (1995)
 Shifting diagonal of input Hessian by    4.2706005790866010E-003
 Lowest  eigenvalues of input Hessian
    0.000000    0.000000    0.000000    0.000000    0.000000    0.000000
    0.005000    0.005260    0.006619    0.009225    0.009424    0.010052
    0.011220    0.013576    0.014129    0.014303    0.014482    0.014557
 Highest eigenvalues
    1.323950    1.696308    1.979815    2.029614    2.138205    2.241146


........................................................................
.............................. CYCLE    1 ..............................
........................................................................

 iter      E             dE          RMSdq      gap      omega  full diag
   1    -40.3515701 -0.403516E+02  0.285E-05    4.63       0.0  T
   2    -40.3515701 -0.756728E-11  0.141E-05    4.63    1220.5  T
   3    -40.3515701 -0.873968E-12  0.793E-06    4.63    2164.0  T
     SCC iter.                  ...        0 min,  0.006 sec
     gradient                   ...        0 min,  0.017 sec
 * total energy  :   -39.7399977 Eh     change       -0.1698197E-10 Eh
   gradient norm :     0.0747297 Eh/α   predicted     0.0000000E+00 (-100.00%)
   displ. norm   :     0.5947580 α      lambda       -0.3289865E-01
   maximum displ.:     0.1839112 α      in ANC's #31, #15, #10, ...

........................................................................
.............................. CYCLE    2 ..............................
........................................................................

 iter      E             dE          RMSdq      gap      omega  full diag
   1    -40.3707672 -0.403708E+02  0.412E-01    4.80       0.0  T
   2    -40.3708167 -0.494499E-04  0.239E-01    4.80       1.0  T
   3    -40.3708020  0.146854E-04  0.330E-02    4.80       1.0  T
   4    -40.3708296 -0.275522E-04  0.102E-02    4.79       1.7  T
   5    -40.3708309 -0.131708E-05  0.450E-03    4.79       3.8  T
   6    -40.3708310 -0.850674E-07  0.123E-03    4.79      13.9  T
   7    -40.3708310 -0.221671E-07  0.463E-04    4.79      37.1  T
   8    -40.3708310 -0.104919E-08  0.205E-04    4.79      83.7  T
     SCC iter.                  ...        0 min,  0.014 sec
     gradient                   ...        0 min,  0.017 sec
 * total energy  :   -39.7630998 Eh     change       -0.2310203E-01 Eh
   gradient norm :     0.0353383 Eh/α   predicted    -0.2226834E-01 (  -3.61%)
   displ. norm   :     0.5354004 α      lambda       -0.1137166E-01
   maximum displ.:     0.2048820 α      in ANC's #8, #10, #7, ...

........................................................................
.............................. CYCLE    3 ..............................
........................................................................

 iter      E             dE          RMSdq      gap      omega  full diag
   1    -40.3765377 -0.403765E+02  0.240E-01    4.84       0.0  T
   2    -40.3765577 -0.200286E-04  0.139E-01    4.84       1.0  T
   3    -40.3765539  0.377696E-05  0.190E-02    4.84       1.0  T
   4    -40.3765631 -0.910675E-05  0.655E-03    4.84       2.6  T
   5    -40.3765635 -0.452625E-06  0.321E-03    4.84       5.4  T
   6    -40.3765636 -0.685172E-07  0.689E-04    4.84      24.9  T
   7    -40.3765636 -0.491271E-08  0.263E-04    4.84      65.2  T
     SCC iter.                  ...        0 min,  0.012 sec
     gradient                   ...        0 min,  0.017 sec
 * total energy  :   -39.7710096 Eh     change       -0.7909815E-02 Eh
   gradient norm :     0.0183321 Eh/α   predicted    -0.7315699E-02 (  -7.51%)
   displ. norm   :     0.5219637 α      lambda       -0.4492999E-02
   maximum displ.:     0.2140204 α      in ANC's #7, #8, #10, ...

........................................................................
.............................. CYCLE    4 ..............................
........................................................................

 iter      E             dE          RMSdq      gap      omega  full diag
   1    -40.3793118 -0.403793E+02  0.122E-01    4.85       0.0  T
   2    -40.3793234 -0.116483E-04  0.697E-02    4.85       1.0  T
   3    -40.3793225  0.935426E-06  0.132E-02    4.85       1.3  T
   4    -40.3793254 -0.291401E-05  0.369E-03    4.85       4.7  T
   5    -40.3793255 -0.111619E-06  0.198E-03    4.85       8.7  T
   6    -40.3793255 -0.240286E-07  0.592E-04    4.85      29.0  T
   7    -40.3793256 -0.650973E-08  0.160E-04    4.85     107.2  T
     SCC iter.                  ...        0 min,  0.013 sec
     gradient                   ...        0 min,  0.017 sec
 * total energy  :   -39.7742532 Eh     change       -0.3243591E-02 Eh
   gradient norm :     0.0121823 Eh/α   predicted    -0.2858569E-02 ( -11.87%)
   displ. norm   :     0.4576668 α      lambda       -0.2164719E-02
   maximum displ.:     0.1703440 α      in ANC's #2, #7, #8, ...

........................................................................
.............................. CYCLE    5 ..............................
........................................................................

 iter      E             dE          RMSdq      gap      omega  full diag
   1    -40.3814553 -0.403815E+02  0.101E-01    4.85       0.0  T
   2    -40.3814603 -0.496651E-05  0.584E-02    4.85       1.0  T
   3    -40.3814598  0.483655E-06  0.856E-03    4.85       2.0  T
   4    -40.3814613 -0.146975E-05  0.247E-03    4.85       6.9  T
   5    -40.3814613 -0.304816E-07  0.126E-03    4.85      13.6  T
   6    -40.3814613 -0.932812E-08  0.385E-04    4.85      44.5  T
   7    -40.3814613 -0.311528E-08  0.921E-05    4.85     186.3  T
     SCC iter.                  ...        0 min,  0.012 sec
     gradient                   ...        0 min,  0.017 sec
 * total energy  :   -39.7758083 Eh     change       -0.1555096E-02 Eh
   gradient norm :     0.0101400 Eh/α   predicted    -0.1309070E-02 ( -15.82%)
   displ. norm   :     0.3943910 α      lambda       -0.1155625E-02
   maximum displ.:     0.1908115 α      in ANC's #2, #4, #3, ...

........................................................................
.............................. CYCLE    6 ..............................
........................................................................

 iter      E             dE          RMSdq      gap      omega  full diag
   1    -40.3837624 -0.403838E+02  0.875E-02    4.85       0.0  T
   2    -40.3837644 -0.199055E-05  0.511E-02    4.85       1.0  T
   3    -40.3837644  0.317787E-07  0.525E-03    4.85       3.3  T
   4    -40.3837649 -0.549199E-06  0.202E-03    4.85       8.5  T
   5    -40.3837649 -0.232268E-07  0.100E-03    4.85      17.1  T
   6    -40.3837650 -0.773513E-08  0.231E-04    4.85      74.2  T
   7    -40.3837650 -0.118053E-08  0.540E-05    4.85     317.4  T
     SCC iter.                  ...        0 min,  0.012 sec
     gradient                   ...        0 min,  0.017 sec
 * total energy  :   -39.7766678 Eh     change       -0.8594923E-03 Eh
   gradient norm :     0.0087025 Eh/α   predicted    -0.6676896E-03 ( -22.32%)
   displ. norm   :     0.3815264 α      lambda       -0.7858949E-03
   maximum displ.:     0.2030187 α      in ANC's #2, #4, #3, ...

........................................................................
.............................. CYCLE    7 ..............................
........................................................................

 iter      E             dE          RMSdq      gap      omega  full diag
   1    -40.3851891 -0.403852E+02  0.825E-02    4.86       0.0  T
   2    -40.3851903 -0.122316E-05  0.485E-02    4.85       1.0  T
   3    -40.3851904 -0.499361E-07  0.437E-03    4.86       3.9  T
   4    -40.3851908 -0.382327E-06  0.197E-03    4.86       8.7  T
   5    -40.3851908 -0.213540E-07  0.806E-04    4.86      21.3  T
   6    -40.3851908 -0.395121E-08  0.132E-04    4.86     130.1  T
     SCC iter.                  ...        0 min,  0.011 sec
     gradient                   ...        0 min,  0.017 sec
 * total energy  :   -39.7772651 Eh     change       -0.5973555E-03 Eh
   gradient norm :     0.0083361 Eh/α   predicted    -0.4501513E-03 ( -24.64%)
   displ. norm   :     0.3745719 α      lambda       -0.5993083E-03
   maximum displ.:     0.2091778 α      in ANC's #2, #4, #3, ...

........................................................................
.............................. CYCLE    8 ..............................
........................................................................

 iter      E             dE          RMSdq      gap      omega  full diag
   1    -40.3867556 -0.403868E+02  0.795E-02    4.87       0.0  T
   2    -40.3867569 -0.139379E-05  0.466E-02    4.87       1.0  T
   3    -40.3867569  0.150237E-08  0.438E-03    4.87       3.9  T
   4    -40.3867573 -0.389805E-06  0.207E-03    4.87       8.3  T
   5    -40.3867574 -0.399305E-07  0.998E-04    4.87      17.2  T
   6    -40.3867574 -0.486391E-08  0.179E-04    4.87      95.8  T
     SCC iter.                  ...        0 min,  0.011 sec
     gradient                   ...        0 min,  0.017 sec
 * total energy  :   -39.7777090 Eh     change       -0.4439134E-03 Eh
   gradient norm :     0.0071962 Eh/α   predicted    -0.3416976E-03 ( -23.03%)
   displ. norm   :     0.3255177 α      lambda       -0.3849504E-03
   maximum displ.:     0.1863562 α      in ANC's #2, #4, #3, ...

   *** GEOMETRY OPTIMIZATION CONVERGED AFTER 8 ITERATIONS ***

------------------------------------------------------------------------
 total energy gain   :        -0.0377113 Eh      -23.6642 kcal/mol
 total RMSD          :         0.4610685 a0        0.2440 Å
 total power (kW/mol):       -12.3763723 (step) -299.1051 (real)
------------------------------------------------------------------------

 ANCopt (total)                0 d,  0 h,  0 min,  0.331 sec
 optimizer setup                ...        0 min,  0.000 sec (  0.036%)
 model hessian                  ...        0 min,  0.047 sec ( 14.242%)
 ANC generation                 ...        0 min,  0.002 sec (  0.479%)
 coordinate transformation      ...        0 min,  0.000 sec (  0.049%)
 single point calculation       ...        0 min,  0.278 sec ( 83.990%)
 optimization log               ...        0 min,  0.001 sec (  0.443%)
 hessian update                 ...        0 min,  0.000 sec (  0.056%)
 rational function              ...        0 min,  0.002 sec (  0.453%)

================
 final structure:
================
34
 xtb: 6.6.1 (8d0f1dd)
C           -2.20313210537328        0.23285903107117        1.21294270223724
C            2.31123973245828       -0.37903329210255       -0.81525665829318
N           -1.08332877685236        0.22891337742938        0.25370785756214
N            0.89655913532124       -0.00276506108573       -0.62854950072500
C           -1.18984919969272        0.51427274324468       -1.07622108643583
C            0.04186902572420        0.36178051544209       -1.62881901783269
C            0.18933029391190       -0.07304538395866        0.49580696214578
H           -2.11681941510862        0.78668710389429       -1.53819948536013
H            0.35348684424468        0.49473795633703       -2.64198819166654
H            0.59961874868631       -0.33562888565523        1.44807410692209
C           -1.74968776111081       -0.42002809557284        2.51588839542556
C            2.98832784071071        0.65922668455446       -1.70965837617098
C            2.32037668594114       -1.76064306072736       -1.47691900305465
C           -2.61901828086836        1.68407283003950        1.46257967192533
H           -1.00297662768599        0.18622358779887        3.02267593871634
H            2.90631470600738        1.65482812702658       -1.27985827541253
H            1.84956139208160       -1.72942692331803       -2.45591172679506
H           -1.79693265259526        2.26366237195897        1.87359486679192
H           -2.59681352419495       -0.51685026889251        3.18479691371328
H            2.56864859621834        0.67113479189134       -2.71053856906805
H            3.34724472940452       -2.09490808852173       -1.59984996798523
H           -3.43483483065207        1.69495149473975        2.18153010716509
H           -1.35426612578011       -1.41439486942518        2.33601425174610
H            4.04300378133568        0.41482453150277       -1.80194019070848
H            1.79641328324082       -2.48904621677567       -0.86137298460339
H           -2.95927422734294        2.16295637224283        0.54703861694111
C           -3.35657435691170       -0.55919604905886        0.59317436499894
C            3.01542672883194       -0.43378220935558        0.53789800104980
H           -4.07795541867425       -0.81335033681385        1.36843918425821
H            2.62302023519818       -1.23095842627760        1.16596401103519
H           -3.87701886439423        0.01980303942298       -0.16669768265532
H            2.93840157267367        0.51972048829751        1.05812004383295
H            4.07114292271394       -0.64148074137714        0.37908453622682
H           -3.00118988946697       -1.48733664117551        0.14873277157331

 Bond Distances (Angstroems)
 ---------------------------
C1-N3=1.4745         C1-C11=1.5263        C1-C14=1.5301        C1-C27=1.5303        C2-N4=1.4757         C2-C12=1.5285        
C2-C13=1.5319        C2-C28=1.5264        N3-C1=1.4745         N3-C5=1.3644         N3-C7=1.3302         N4-C2=1.4757         
N4-C6=1.3653         N4-C7=1.3301         C5-N3=1.3644         C5-C6=1.3586         C5-H8=1.0709         C6-N4=1.3653         
C6-C5=1.3586         C6-H9=1.0683         C7-N3=1.3302         C7-N4=1.3301         C7-H10=1.0696        H8-C5=1.0709         
H9-C6=1.0683         H10-C7=1.0696        C11-C1=1.5263        C11-H15=1.0872       C11-H19=1.0837       C11-H23=1.0851       
C12-C2=1.5285        C12-H16=1.0875       C12-H20=1.0854       C12-H24=1.0865       C13-C2=1.5319        C13-H17=1.0868       
C13-H21=1.0869       C13-H25=1.0881       C14-C1=1.5301        C14-H18=1.0866       C14-H22=1.0875       C14-H26=1.0878       
H15-C11=1.0872       H16-C12=1.0875       H17-C13=1.0868       H18-C14=1.0866       H19-C11=1.0837       H20-C12=1.0854       
H21-C13=1.0869       H22-C14=1.0875       H23-C11=1.0851       H24-C12=1.0865       H25-C13=1.0881       H26-C14=1.0878       
C27-C1=1.5303        C27-H29=1.0890       C27-H31=1.0879       C27-H34=1.0887       C28-C2=1.5264        C28-H30=1.0881       
C28-H32=1.0889       C28-H33=1.0876       H29-C27=1.0890       H30-C28=1.0881       H31-C27=1.0879       H32-C28=1.0889       
H33-C28=1.0876       H34-C27=1.0887       
 C  H  Rav=1.0847 sigma=0.0063  Rmin=1.0683  Rmax=1.0890    21
 C  C  Rav=1.5046 sigma=0.0596  Rmin=1.3586  Rmax=1.5319     7
 N  C  Rav=1.3900 sigma=0.0618  Rmin=1.3301  Rmax=1.4757     6

 selected bond angles (degree)
 --------------------
C11-C1-N3=109.18               C14-C1-N3=108.37               C14-C1-C11=110.31              C27-C1-N3=107.91               
C27-C1-C11=110.38              C27-C1-C14=110.62              C12-C2-N4=108.99               C13-C2-N4=106.88               
C13-C2-C12=110.93              C28-C2-N4=109.83               C28-C2-C12=109.80              C28-C2-C13=110.35              
C5-N3-C1=125.05                C7-N3-C1=127.50                C7-N3-C5=107.43                C6-N4-C2=125.14                
C7-N4-C2=127.10                C7-N4-C6=107.49                C6-C5-N3=107.59                H8-C5-N3=122.77                
H8-C5-C6=129.63                C5-C6-N4=107.43                H9-C6-N4=123.06                H9-C6-C5=129.51                
N4-C7-N3=110.05                H10-C7-N3=125.78               H10-C7-N4=124.16               

 selected dihedral angles (degree)
 ---------------------------------
C5-N3-C1-C11=167.92           C5-N3-C1-C14=288.11           C5-N3-C1-C27= 47.92           C7-N3-C1-C11=349.51           
C7-N3-C1-C14=109.70           C7-N3-C1-C27=229.52           C6-N4-C2-C12= 47.73           C6-N4-C2-C13=287.78           
C6-N4-C2-C28=168.06           C7-N4-C2-C12=220.94           C7-N4-C2-C13=100.99           C7-N4-C2-C28=341.27           
C6-C5-N3-C1=182.03            C6-C5-N3-C7=  0.70            H8-C5-N3-C1=  1.06            H8-C5-N3-C7=179.74            
C5-C6-N4-C2=174.63            C5-C6-N4-C7=  0.30            H9-C6-N4-C2=354.12            H9-C6-N4-C7=179.79            
N4-C6-C5-N3=359.38            N4-C6-C5-H8=180.43            H9-C6-C5-N3=179.93            H9-C6-C5-H8=  0.99            
N4-C7-N3-C1=178.11            N4-C7-N3-C5=359.47            H10-C7-N3-C1=358.10           H10-C7-N3-C5=179.47           
N3-C7-N4-C2=185.96            N3-C7-N4-C6=  0.14            H10-C7-N4-C2=  5.97           H10-C7-N4-C6=180.15           
           -------------------------------------------------
          |                Final Singlepoint                |
           -------------------------------------------------

          ...................................................
          :                      SETUP                      :
          :.................................................:
          :  # basis functions                  73          :
          :  # atomic orbitals                  73          :
          :  # shells                           47          :
          :  # electrons                        74          :
          :  max. iterations                   250          :
          :  Hamiltonian                  GFN2-xTB          :
          :  restarted?                      false          :
          :  GBSA solvation                  false          :
          :  PC potential                    false          :
          :  electronic temp.          300.0000000     K    :
          :  accuracy                    1.0000000          :
          :  -> integral cutoff          0.2500000E+02      :
          :  -> integral neglect         0.1000000E-07      :
          :  -> SCF convergence          0.1000000E-05 Eh   :
          :  -> wf. convergence          0.1000000E-03 e    :
          :  Broyden damping             0.4000000          :
          ...................................................

 iter      E             dE          RMSdq      gap      omega  full diag
   1    -40.3867574 -0.403868E+02  0.618E-05    4.87       0.0  T
   2    -40.3867574 -0.205560E-10  0.316E-05    4.87     542.5  T
   3    -40.3867574 -0.341771E-11  0.182E-05    4.87     942.7  T

   *** convergence criteria satisfied after 3 iterations ***

         #    Occupation            Energy/Eh            Energy/eV
      -------------------------------------------------------------
         1        2.0000           -0.8776872             -23.8831
       ...           ...                  ...                  ...
        31        2.0000           -0.5899437             -16.0532
        32        2.0000           -0.5890058             -16.0277
        33        2.0000           -0.5809891             -15.8095
        34        2.0000           -0.5780974             -15.7308
        35        2.0000           -0.5779694             -15.7273
        36        2.0000           -0.5730712             -15.5941
        37        2.0000           -0.5712816             -15.5454 (HOMO)
        38                         -0.3924111             -10.6780 (LUMO)
        39                         -0.3569294              -9.7125
        40                         -0.1979162              -5.3856
        41                         -0.1466596              -3.9908
        42                         -0.0748823              -2.0377
       ...                                ...                  ...
        73                          0.4766424              12.9701
      -------------------------------------------------------------
                  HL-Gap            0.1788705 Eh            4.8673 eV
             Fermi-level           -0.4818464 Eh          -13.1117 eV

 SCC (total)                   0 d,  0 h,  0 min,  0.031 sec
 SCC setup                      ...        0 min,  0.000 sec (  1.059%)
 Dispersion                     ...        0 min,  0.000 sec (  1.023%)
 classical contributions        ...        0 min,  0.000 sec (  0.413%)
 integral evaluation            ...        0 min,  0.006 sec ( 20.633%)
 iterations                     ...        0 min,  0.006 sec ( 20.767%)
 molecular gradient             ...        0 min,  0.017 sec ( 55.442%)
 printout                       ...        0 min,  0.000 sec (  0.599%)

         :::::::::::::::::::::::::::::::::::::::::::::::::::::
         ::                     SUMMARY                     ::
         :::::::::::::::::::::::::::::::::::::::::::::::::::::
         :: total energy             -39.777709029425 Eh    ::
         :: gradient norm              0.007197448917 Eh/a0 ::
         :: HOMO-LUMO gap              4.867315118966 eV    ::
         ::.................................................::
         :: SCC energy               -40.386757380464 Eh    ::
         :: -> isotropic ES            0.076388656816 Eh    ::
         :: -> anisotropic ES         -0.005989807165 Eh    ::
         :: -> anisotropic XC          0.025797481538 Eh    ::
         :: -> dispersion             -0.027869890389 Eh    ::
         :: repulsion energy           0.608778171619 Eh    ::
         :: add. restraining           0.000000000000 Eh    ::
         :: total charge               1.000000000000 e     ::
         :::::::::::::::::::::::::::::::::::::::::::::::::::::

           -------------------------------------------------
          |                Property Printout                |
           -------------------------------------------------

    * Orbital Energies and Occupations

         #    Occupation            Energy/Eh            Energy/eV
      -------------------------------------------------------------
         1        2.0000           -0.8776872             -23.8831
       ...           ...                  ...                  ...
        25        2.0000           -0.6008855             -16.3509
        26        2.0000           -0.5997426             -16.3198
        27        2.0000           -0.5991123             -16.3027
        28        2.0000           -0.5977900             -16.2667
        29        2.0000           -0.5928278             -16.1317
        30        2.0000           -0.5907016             -16.0738
        31        2.0000           -0.5899437             -16.0532
        32        2.0000           -0.5890058             -16.0277
        33        2.0000           -0.5809891             -15.8095
        34        2.0000           -0.5780974             -15.7308
        35        2.0000           -0.5779694             -15.7273
        36        2.0000           -0.5730712             -15.5941
        37        2.0000           -0.5712816             -15.5454 (HOMO)
        38                         -0.3924111             -10.6780 (LUMO)
        39                         -0.3569294              -9.7125
        40                         -0.1979162              -5.3856
        41                         -0.1466596              -3.9908
        42                         -0.0748823              -2.0377
        43                         -0.0596906              -1.6243
        44                         -0.0587520              -1.5987
        45                         -0.0512506              -1.3946
        46                         -0.0485534              -1.3212
        47                         -0.0388470              -1.0571
        48                         -0.0319478              -0.8693
       ...                                ...                  ...
        73                          0.4766424              12.9701
      -------------------------------------------------------------
                  HL-Gap            0.1788705 Eh            4.8673 eV
             Fermi-level           -0.4818464 Eh          -13.1117 eV

     #   Z          covCN         q      C6AA      α(0)
     1   6 C        3.836     0.075    19.303     6.251
     2   6 C        3.836     0.075    19.303     6.251
     3   7 N        2.868     0.046    20.440     6.715
     4   7 N        2.869     0.044    20.467     6.719
     5   6 C        3.076    -0.005    28.060     8.685
     6   6 C        3.073    -0.005    28.067     8.686
     7   6 C        3.105     0.050    26.735     8.472
     8   1 H        0.926     0.100     1.783     2.088
     9   1 H        0.927     0.100     1.788     2.091
    10   1 H        0.927     0.112     1.679     2.026
    11   6 C        3.760    -0.133    23.104     6.852
    12   6 C        3.759    -0.129    23.033     6.842
    13   6 C        3.760    -0.127    22.986     6.835
    14   6 C        3.759    -0.127    22.996     6.837
    15   1 H        0.925     0.058     2.224     2.332
    16   1 H        0.925     0.060     2.195     2.317
    17   1 H        0.925     0.060     2.194     2.316
    18   1 H        0.925     0.057     2.230     2.335
    19   1 H        0.925     0.081     1.965     2.192
    20   1 H        0.925     0.061     2.185     2.312
    21   1 H        0.925     0.080     1.976     2.198
    22   1 H        0.925     0.080     1.974     2.197
    23   1 H        0.925     0.057     2.236     2.338
    24   1 H        0.925     0.079     1.991     2.206
    25   1 H        0.925     0.055     2.263     2.352
    26   1 H        0.925     0.060     2.196     2.317
    27   6 C        3.759    -0.129    23.026     6.841
    28   6 C        3.759    -0.132    23.095     6.851
    29   1 H        0.925     0.079     1.992     2.207
    30   1 H        0.925     0.056     2.243     2.342
    31   1 H        0.925     0.064     2.158     2.297
    32   1 H        0.925     0.059     2.215     2.327
    33   1 H        0.925     0.081     1.964     2.191
    34   1 H        0.925     0.056     2.241     2.341

 Mol. C6AA /au·bohr⁶  :       8558.897581
 Mol. C8AA /au·bohr⁸  :     188329.156858
 Mol. α(0) /au        :        140.162742


molecular dipole:
                 x           y           z       tot (Debye)
 q only:       -0.069       0.006      -0.048
   full:       -0.060       0.004      -0.037       0.179
molecular quadrupole (traceless):
                xx          xy          yy          xz          yz          zz
 q only:       14.065      -4.157     -12.192      -9.203      -0.214      -1.873
  q+dip:       13.670      -4.374     -12.651      -8.596      -0.600      -1.019
   full:       12.975      -3.974     -11.514      -8.388      -0.315      -1.461

           -------------------------------------------------
          |                Geometry Summary                 |
           -------------------------------------------------

      molecular mass/u    :      181.2982571
   center of mass at/Å    :       -0.0262180      -0.0044969      -0.0012430
  moments of inertia/u·Å² :        0.3010804E+03   0.1128723E+04   0.1207188E+04
rotational constants/cm⁻¹ :        0.5599047E-01   0.1493513E-01   0.1396439E-01

 * 34 selected distances

     #   Z          #   Z                                           value/Å
     1   6 C        3   7 N                                       1.4744853
     2   6 C        4   7 N                                       1.4757232
     3   7 N        5   6 C                                       1.3643636
     4   7 N        6   6 C                                       1.3652575
     5   6 C        6   6 C                                       1.3585833
     3   7 N        7   6 C                                       1.3302077
     4   7 N        7   6 C                                       1.3301465
     5   6 C        8   1 H                                       1.0709377
     6   6 C        9   1 H                                       1.0683142 (min)
     7   6 C       10   1 H                                       1.0696259
     1   6 C       11   6 C                                       1.5262835
     2   6 C       12   6 C                                       1.5285244
     2   6 C       13   6 C                                       1.5319029 (max)
     1   6 C       14   6 C                                       1.5301313
    11   6 C       15   1 H                                       1.0871764
    12   6 C       16   1 H                                       1.0875094
    13   6 C       17   1 H                                       1.0867697
    14   6 C       18   1 H                                       1.0865922
    11   6 C       19   1 H                                       1.0837137
    12   6 C       20   1 H                                       1.0853727
    13   6 C       21   1 H                                       1.0868778
    14   6 C       22   1 H                                       1.0874580
    11   6 C       23   1 H                                       1.0851168
    12   6 C       24   1 H                                       1.0865495
    13   6 C       25   1 H                                       1.0881204
    14   6 C       26   1 H                                       1.0878048
     1   6 C       27   6 C                                       1.5303246
     2   6 C       28   6 C                                       1.5264025
    27   6 C       29   1 H                                       1.0890458
    28   6 C       30   1 H                                       1.0880900
    27   6 C       31   1 H                                       1.0878916
    28   6 C       32   1 H                                       1.0889130
    28   6 C       33   1 H                                       1.0876108
    27   6 C       34   1 H                                       1.0887018

 * 3 distinct bonds (by element types)

   Z      Z             #   av. dist./Å        max./Å        min./Å
   1 H    6 C          21     1.0846758     1.0890458     1.0683142
   6 C    6 C           7     1.5045932     1.5319029     1.3585833
   6 C    7 N           6     1.3900306     1.4757232     1.3301465


optimized geometry written to: xtbopt.xyz


           -------------------------------------------------
          | TOTAL ENERGY              -39.777709029425 Eh   |
          | GRADIENT NORM               0.007197448917 Eh/α |
          | HOMO-LUMO GAP               4.867315118966 eV   |
           -------------------------------------------------

------------------------------------------------------------------------
 * finished run on 2024/02/12 at 14:13:52.309     
------------------------------------------------------------------------
 total:
 * wall-time:     0 d,  0 h,  0 min,  0.621 sec
 *  cpu-time:     0 d,  0 h,  0 min,  0.425 sec
 * ratio c/w:     0.685 speedup
 SCF:
 * wall-time:     0 d,  0 h,  0 min,  0.231 sec
 *  cpu-time:     0 d,  0 h,  0 min,  0.048 sec
 * ratio c/w:     0.210 speedup
 ANC optimizer:
 * wall-time:     0 d,  0 h,  0 min,  0.365 sec
 *  cpu-time:     0 d,  0 h,  0 min,  0.352 sec
 * ratio c/w:     0.966 speedup

