
                                 *****************
                                 * O   R   C   A *
                                 *****************

                                            #,                                       
                                            ###                                      
                                            ####                                     
                                            #####                                    
                                            ######                                   
                                           ########,                                 
                                     ,,################,,,,,                         
                               ,,#################################,,                 
                          ,,##########################################,,             
                       ,#########################################, ''#####,          
                    ,#############################################,,   '####,        
                  ,##################################################,,,,####,       
                ,###########''''           ''''###############################       
              ,#####''   ,,,,##########,,,,          '''####'''          '####       
            ,##' ,,,,###########################,,,                        '##       
           ' ,,###''''                  '''############,,,                           
         ,,##''                                '''############,,,,        ,,,,,,###''
      ,#''                                            '''#######################'''  
     '                                                          ''''####''''         
             ,#######,   #######,   ,#######,      ##                                
            ,#'     '#,  ##    ##  ,#'     '#,    #''#        ######   ,####,        
            ##       ##  ##   ,#'  ##            #'  '#       #        #'  '#        
            ##       ##  #######   ##           ,######,      #####,   #    #        
            '#,     ,#'  ##    ##  '#,     ,#' ,#      #,         ##   #,  ,#        
             '#######'   ##     ##  '#######'  #'      '#     #####' # '####'        



                  #######################################################
                  #                        -***-                        #
                  #          Department of theory and spectroscopy      #
                  #    Directorship and core code : Frank Neese         #
                  #        Max Planck Institute fuer Kohlenforschung    #
                  #                Kaiser Wilhelm Platz 1               #
                  #                 D-45470 Muelheim/Ruhr               #
                  #                      Germany                        #
                  #                                                     #
                  #                  All rights reserved                #
                  #                        -***-                        #
                  #######################################################


                         Program Version 5.0.4 -  RELEASE  -


 With contributions from (in alphabetic order):
   Daniel Aravena         : Magnetic Suceptibility
   Michael Atanasov       : Ab Initio Ligand Field Theory (pilot matlab implementation)
   Alexander A. Auer      : GIAO ZORA, VPT2 properties, NMR spectrum
   Ute Becker             : Parallelization
   Giovanni Bistoni       : ED, misc. LED, open-shell LED, HFLD
   Martin Brehm           : Molecular dynamics
   Dmytro Bykov           : SCF Hessian
   Vijay G. Chilkuri      : MRCI spin determinant printing, contributions to CSF-ICE
   Dipayan Datta          : RHF DLPNO-CCSD density
   Achintya Kumar Dutta   : EOM-CC, STEOM-CC
   Dmitry Ganyushin       : Spin-Orbit,Spin-Spin,Magnetic field MRCI
   Miquel Garcia          : C-PCM and meta-GGA Hessian, CC/C-PCM, Gaussian charge scheme
   Yang Guo               : DLPNO-NEVPT2, F12-NEVPT2, CIM, IAO-localization
   Andreas Hansen         : Spin unrestricted coupled pair/coupled cluster methods
   Benjamin Helmich-Paris : MC-RPA, TRAH-SCF, COSX integrals
   Lee Huntington         : MR-EOM, pCC
   Robert Izsak           : Overlap fitted RIJCOSX, COSX-SCS-MP3, EOM
   Marcus Kettner         : VPT2
   Christian Kollmar      : KDIIS, OOCD, Brueckner-CCSD(T), CCSD density, CASPT2, CASPT2-K
   Simone Kossmann        : Meta GGA functionals, TD-DFT gradient, OOMP2, MP2 Hessian
   Martin Krupicka        : Initial AUTO-CI
   Lucas Lang             : DCDCAS
   Marvin Lechner         : AUTO-CI (C++ implementation), FIC-MRCC
   Dagmar Lenk            : GEPOL surface, SMD
   Dimitrios Liakos       : Extrapolation schemes; Compound Job, initial MDCI parallelization
   Dimitrios Manganas     : Further ROCIS development; embedding schemes
   Dimitrios Pantazis     : SARC Basis sets
   Anastasios Papadopoulos: AUTO-CI, single reference methods and gradients
   Taras Petrenko         : DFT Hessian,TD-DFT gradient, ASA, ECA, R-Raman, ABS, FL, XAS/XES, NRVS
   Peter Pinski           : DLPNO-MP2, DLPNO-MP2 Gradient
   Christoph Reimann      : Effective Core Potentials
   Marius Retegan         : Local ZFS, SOC
   Christoph Riplinger    : Optimizer, TS searches, QM/MM, DLPNO-CCSD(T), (RO)-DLPNO pert. Triples
   Tobias Risthaus        : Range-separated hybrids, TD-DFT gradient, RPA, STAB
   Michael Roemelt        : Original ROCIS implementation
   Masaaki Saitow         : Open-shell DLPNO-CCSD energy and density
   Barbara Sandhoefer     : DKH picture change effects
   Avijit Sen             : IP-ROCIS
   Kantharuban Sivalingam : CASSCF convergence, NEVPT2, FIC-MRCI
   Bernardo de Souza      : ESD, SOC TD-DFT
   Georgi Stoychev        : AutoAux, RI-MP2 NMR, DLPNO-MP2 response
   Willem Van den Heuvel  : Paramagnetic NMR
   Boris Wezisla          : Elementary symmetry handling
   Frank Wennmohs         : Technical directorship


 We gratefully acknowledge several colleagues who have allowed us to
 interface, adapt or use parts of their codes:
   Stefan Grimme, W. Hujo, H. Kruse, P. Pracht,  : VdW corrections, initial TS optimization,
                  C. Bannwarth, S. Ehlert          DFT functionals, gCP, sTDA/sTD-DF
   Ed Valeev, F. Pavosevic, A. Kumar             : LibInt (2-el integral package), F12 methods
   Garnet Chan, S. Sharma, J. Yang, R. Olivares  : DMRG
   Ulf Ekstrom                                   : XCFun DFT Library
   Mihaly Kallay                                 : mrcc  (arbitrary order and MRCC methods)
   Jiri Pittner, Ondrej Demel                    : Mk-CCSD
   Frank Weinhold                                : gennbo (NPA and NBO analysis)
   Christopher J. Cramer and Donald G. Truhlar   : smd solvation model
   Lars Goerigk                                  : TD-DFT with DH, B97 family of functionals
   V. Asgeirsson, H. Jonsson                     : NEB implementation
   FAccTs GmbH                                   : IRC, NEB, NEB-TS, DLPNO-Multilevel, CI-OPT
                                                   MM, QMMM, 2- and 3-layer-ONIOM, Crystal-QMMM,
                                                   LR-CPCM, SF, NACMEs, symmetry and pop. for TD-DFT,
                                                   nearIR, NL-DFT gradient (VV10), updates on ESD,
                                                   ML-optimized integration grids
   S Lehtola, MJT Oliveira, MAL Marques          : LibXC Library
   Liviu Ungur et al                             : ANISO software


 Your calculation uses the libint2 library for the computation of 2-el integrals
 For citations please refer to: http://libint.valeyev.net

 Your ORCA version has been built with support for libXC version: 5.1.0
 For citations please refer to: https://tddft.org/programs/libxc/

 This ORCA versions uses:
   CBLAS   interface :  Fast vector & matrix operations
   LAPACKE interface :  Fast linear algebra routines
   SCALAPACK package :  Parallel linear algebra routines
   Shared memory     :  Shared parallel matrices
   BLAS/LAPACK       :  OpenBLAS 0.3.15  USE64BITINT DYNAMIC_ARCH NO_AFFINITY SkylakeX SINGLE_THREADED
        Core in use  :  SkylakeX
   Copyright (c) 2011-2014, The OpenBLAS Project




***************************************
The coordinates will be read from file: 2_prot.xyz
***************************************


Your calculation utilizes the atom-pairwise dispersion correction
based on tight binding partial charges (D4)
Cite in your paper:
E.Caldeweyher, C.Bannwarth, S.Grimme, J.Chem.Phys., (2017), 147, 034112.
E.Caldeweyher, S.Ehlert, A.Hansen, H.Neugebauer, S.Grimme, J.Chem.Phys., (2018), in progress.
   

XCFun DFT library Copyright 2009-2010 Ulf Ekstrom and contributors.
See http://admol.org/xcfun for more information.
This is free software; see the source code for copying conditions.
There is ABSOLUTELY NO WARRANTY; not even for MERCHANTABILITY or FITNESS FOR A PARTICULAR PURPOSE.
For details see the documentation.
Scientific users of this library should cite U. Ekstrom, L. Visscher, R. Bast, A. J. Thorvaldsen and K. Ruud;
J.Chem.Theor.Comp. 2010, DOI: 10.1021/ct100117s
XCFun Version 0.99 

================================================================================

----- Orbital basis set information -----
Your calculation utilizes the basis: def2-TZVP
   F. Weigend and R. Ahlrichs, Phys. Chem. Chem. Phys. 7, 3297 (2005).

----- AuxJ basis set information -----
Your calculation utilizes the auxiliary basis: def2/J
   F. Weigend, Phys. Chem. Chem. Phys. 8, 1057 (2006).

================================================================================
                                        WARNINGS
                       Please study these warnings very carefully!
================================================================================


WARNING: Geometry Optimization
  ===> : Switching off AutoStart
         For restart on a previous wavefunction, please use MOREAD

INFO   : the flag for use of the SHARK integral package has been found!

================================================================================
                                       INPUT FILE
================================================================================
NAME = 2_prot.inp
|  1> # ORCA 5.0.4 - /users/bwb16179/postgrad/2024_06/pKa_Reviewer_Comments/Gas_Z=1/2_prot.inp # write input file
|  2> # Basic Mode
|  3> #
|  4> ! Opt Freq wB97X Def2-TZVP D4 SlowConv TightSCF Defgrid2 Def2/J RIJCOSX 
|  5> 
|  6> %PAL NPROCS 4 END
|  7> 
|  8> %maxcore 4500
|  9> 
| 10> %geom
| 11> Maxiter 150
| 12> END
| 13> 
| 14> * xyzfile 1 1 2_prot.xyz
| 15> 
| 16>                          ****END OF INPUT****
================================================================================

                       *****************************
                       * Geometry Optimization Run *
                       *****************************

Geometry optimization settings:
Update method            Update   .... BFGS
Choice of coordinates    CoordSys .... Z-matrix Internals
Initial Hessian          InHess   .... Almoef's Model

Convergence Tolerances:
Energy Change            TolE     ....  5.0000e-06 Eh
Max. Gradient            TolMAXG  ....  3.0000e-04 Eh/bohr
RMS Gradient             TolRMSG  ....  1.0000e-04 Eh/bohr
Max. Displacement        TolMAXD  ....  4.0000e-03 bohr
RMS Displacement         TolRMSD  ....  2.0000e-03 bohr
Strict Convergence                ....  False
------------------------------------------------------------------------------
                        ORCA OPTIMIZATION COORDINATE SETUP
------------------------------------------------------------------------------

The optimization will be done in new redundant internal coordinates
Making redundant internal coordinates   ...  (new redundants) done
Evaluating the initial hessian          ...  (Almloef) done
Evaluating the coordinates              ...  done
Calculating the B-matrix                .... done
Calculating the G-matrix                .... done
Diagonalizing the G-matrix              .... done
The first mode is                       ....   45
The number of degrees of freedom        ....   60

    -----------------------------------------------------------------
                    Redundant Internal Coordinates


    -----------------------------------------------------------------
         Definition                    Initial Value    Approx d2E/dq
    -----------------------------------------------------------------
      1. B(C   1,C   0)                  1.3710         0.670013   
      2. B(N   2,C   0)                  1.3874         0.564879   
      3. B(N   3,C   1)                  1.3874         0.564924   
      4. B(C   4,N   3)                  1.3297         0.698416   
      5. B(C   4,N   2)                  1.3297         0.698299   
      6. B(C   5,N   2)                  1.4582         0.435554   
      7. B(C   6,N   3)                  1.4582         0.435529   
      8. B(H   7,C   5)                  1.0980         0.349676   
      9. B(H   8,C   6)                  1.0965         0.351561   
     10. B(H   9,C   6)                  1.0981         0.349533   
     11. B(H  10,C   5)                  1.0981         0.349480   
     12. B(H  11,C   5)                  1.0965         0.351572   
     13. B(H  12,C   6)                  1.0980         0.349643   
     14. B(H  13,C   4)                  1.0896         0.360603   
     15. B(C  14,C   0)                  1.4896         0.433415   
     16. B(C  15,C   1)                  1.4895         0.433462   
     17. B(H  16,C  14)                  1.1007         0.346176   
     18. B(H  17,C  15)                  1.1007         0.346206   
     19. B(H  18,C  15)                  1.1007         0.346159   
     20. B(H  19,C  14)                  1.1008         0.346095   
     21. B(H  20,C  14)                  1.0970         0.350938   
     22. B(H  21,C  15)                  1.0970         0.350905   
     23. A(C   1,C   0,C  14)          131.1498         0.412843   
     24. A(N   2,C   0,C  14)          122.2750         0.398007   
     25. A(C   1,C   0,N   2)          106.5753         0.430026   
     26. A(N   3,C   1,C  15)          122.2382         0.398021   
     27. A(C   0,C   1,C  15)          131.1711         0.412851   
     28. A(C   0,C   1,N   3)          106.5907         0.430032   
     29. A(C   0,N   2,C   5)          125.3685         0.395806   
     30. A(C   4,N   2,C   5)          125.6319         0.410890   
     31. A(C   0,N   2,C   4)          108.9994         0.430400   
     32. A(C   4,N   3,C   6)          125.6714         0.410898   
     33. A(C   1,N   3,C   4)          108.9922         0.430419   
     34. A(C   1,N   3,C   6)          125.3364         0.395808   
     35. A(N   3,C   4,H  13)          125.5850         0.357974   
     36. A(N   2,C   4,H  13)          125.5725         0.357963   
     37. A(N   2,C   4,N   3)          108.8425         0.447197   
     38. A(H   7,C   5,H  10)          109.6182         0.288148   
     39. A(N   2,C   5,H  10)          109.9844         0.329002   
     40. A(N   2,C   5,H   7)          109.7481         0.329032   
     41. A(H  10,C   5,H  11)          109.2035         0.288392   
     42. A(H   7,C   5,H  11)          109.1324         0.288417   
     43. A(N   2,C   5,H  11)          109.1351         0.329326   
     44. A(H   8,C   6,H   9)          109.1704         0.288397   
     45. A(N   3,C   6,H   9)          109.8708         0.329007   
     46. A(N   3,C   6,H   8)          109.1463         0.329321   
     47. A(H   9,C   6,H  12)          109.6385         0.288151   
     48. A(H   8,C   6,H  12)          109.1785         0.288411   
     49. A(N   3,C   6,H  12)          109.8176         0.329024   
     50. A(C   0,C  14,H  16)          111.4627         0.330204   
     51. A(H  19,C  14,H  20)          107.6984         0.287872   
     52. A(H  16,C  14,H  20)          107.7167         0.287882   
     53. A(C   0,C  14,H  20)          110.0478         0.330951   
     54. A(H  16,C  14,H  19)          108.2606         0.287258   
     55. A(C   0,C  14,H  19)          111.5007         0.330192   
     56. A(H  17,C  15,H  18)          108.2927         0.287270   
     57. A(C   1,C  15,H  18)          111.4387         0.330208   
     58. A(C   1,C  15,H  17)          111.5253         0.330215   
     59. A(H  18,C  15,H  21)          107.6865         0.287876   
     60. A(H  17,C  15,H  21)          107.7133         0.287882   
     61. A(C   1,C  15,H  21)          110.0304         0.330952   
     62. D(N   3,C   1,C   0,N   2)     -0.0722         0.031396   
     63. D(C  15,C   1,C   0,N   2)    179.8816         0.031396   
     64. D(N   3,C   1,C   0,C  14)    179.9555         0.031396   
     65. D(C  15,C   1,C   0,C  14)     -0.0906         0.031396   
     66. D(C   5,N   2,C   0,C  14)      0.1507         0.025509   
     67. D(C   5,N   2,C   0,C   1)   -179.8245         0.025509   
     68. D(C   4,N   2,C   0,C  14)   -179.9617         0.025509   
     69. D(C   4,N   2,C   0,C   1)      0.0631         0.025509   
     70. D(C   6,N   3,C   1,C  15)      0.1063         0.025513   
     71. D(C   4,N   3,C   1,C  15)   -179.9012         0.025513   
     72. D(C   4,N   3,C   1,C   0)      0.0578         0.025513   
     73. D(C   6,N   3,C   1,C   0)   -179.9347         0.025513   
     74. D(H  13,C   4,N   2,C   0)   -179.9661         0.040332   
     75. D(N   3,C   4,N   2,C   5)    179.8597         0.040332   
     76. D(N   3,C   4,N   2,C   0)     -0.0276         0.040332   
     77. D(H  13,C   4,N   3,C   6)     -0.0878         0.040347   
     78. D(N   2,C   4,N   3,C   6)    179.9737         0.040347   
     79. D(N   2,C   4,N   3,C   1)     -0.0188         0.040347   
     80. D(H  13,C   4,N   2,C   5)     -0.0789         0.040332   
     81. D(H  13,C   4,N   3,C   1)    179.9197         0.040347   
     82. D(H  11,C   5,N   2,C   4)     -1.8751         0.016175   
     83. D(H  11,C   5,N   2,C   0)    177.9941         0.016175   
     84. D(H  10,C   5,N   2,C   4)    117.9032         0.016175   
     85. D(H  10,C   5,N   2,C   0)    -62.2275         0.016175   
     86. D(H   7,C   5,N   2,C   4)   -121.4236         0.016175   
     87. D(H   7,C   5,N   2,C   0)     58.4457         0.016175   
     88. D(H   9,C   6,N   3,C   4)    119.1137         0.016173   
     89. D(H   9,C   6,N   3,C   1)    -60.8950         0.016173   
     90. D(H   8,C   6,N   3,C   4)     -0.5622         0.016173   
     91. D(H  12,C   6,N   3,C   1)     59.7756         0.016173   
     92. D(H   8,C   6,N   3,C   1)    179.4291         0.016173   
     93. D(H  12,C   6,N   3,C   4)   -120.2157         0.016173   
     94. D(H  20,C  14,C   0,N   2)    179.9087         0.013869   
     95. D(H  20,C  14,C   0,C   1)     -0.1227         0.013869   
     96. D(H  19,C  14,C   0,N   2)    -60.6475         0.013869   
     97. D(H  19,C  14,C   0,C   1)    119.3210         0.013869   
     98. D(H  16,C  14,C   0,N   2)     60.4665         0.013869   
     99. D(H  16,C  14,C   0,C   1)   -119.5650         0.013869   
    100. D(H  21,C  15,C   1,N   3)    179.9137         0.013872   
    101. D(H  21,C  15,C   1,C   0)     -0.0340         0.013872   
    102. D(H  18,C  15,C   1,N   3)     60.5360         0.013872   
    103. D(H  18,C  15,C   1,C   0)   -119.4117         0.013872   
    104. D(H  17,C  15,C   1,N   3)    -60.6196         0.013872   
    105. D(H  17,C  15,C   1,C   0)    119.4327         0.013872   
    -----------------------------------------------------------------

Number of atoms                         .... 22
Number of degrees of freedom            .... 105

         *************************************************************
         *                GEOMETRY OPTIMIZATION CYCLE   1            *
         *************************************************************
---------------------------------
CARTESIAN COORDINATES (ANGSTROEM)
---------------------------------
  C     -0.052166    0.678754   -0.661482
  C      0.000983   -0.691185   -0.656058
  N     -0.097104    1.078371    0.666405
  N     -0.011576   -1.082857    0.674871
  C     -0.071009    0.000099    1.444104
  C     -0.164713    2.459103    1.130517
  C      0.033471   -2.461159    1.148888
  H     -1.057888    2.946063    0.717353
  H      0.020711   -2.464990    2.245340
  H     -0.839825   -3.012774    0.776176
  H      0.733298    3.005973    0.813593
  H     -0.224647    2.467758    2.225368
  H      0.953786   -2.945889    0.797165
  H     -0.095441    0.003505    2.533445
  C     -0.065746    1.654689   -1.786712
  C      0.061635   -1.674570   -1.773181
  H      0.798729    2.334526   -1.740665
  H      0.977009   -2.283983   -1.725523
  H     -0.805665   -2.352262   -1.760159
  H     -0.983354    2.262746   -1.782345
  H     -0.022123    1.123653   -2.745639
  H      0.059946   -1.149569   -2.736441

----------------------------
CARTESIAN COORDINATES (A.U.)
----------------------------
  NO LB      ZA    FRAG     MASS         X           Y           Z
   0 C     6.0000    0    12.011   -0.098579    1.282659   -1.250020
   1 C     6.0000    0    12.011    0.001858   -1.306150   -1.239770
   2 N     7.0000    0    14.007   -0.183500    2.037826    1.259323
   3 N     7.0000    0    14.007   -0.021875   -2.046303    1.275321
   4 C     6.0000    0    12.011   -0.134188    0.000187    2.728961
   5 C     6.0000    0    12.011   -0.311262    4.647031    2.136368
   6 C     6.0000    0    12.011    0.063251   -4.650916    2.171084
   7 H     1.0000    0     1.008   -1.999119    5.567252    1.355601
   8 H     1.0000    0     1.008    0.039138   -4.658156    4.243078
   9 H     1.0000    0     1.008   -1.587039   -5.693318    1.466760
  10 H     1.0000    0     1.008    1.385732    5.680466    1.537468
  11 H     1.0000    0     1.008   -0.424521    4.663387    4.205336
  12 H     1.0000    0     1.008    1.802394   -5.566923    1.506424
  13 H     1.0000    0     1.008   -0.180357    0.006623    4.787517
  14 C     6.0000    0    12.011   -0.124242    3.126909   -3.376396
  15 C     6.0000    0    12.011    0.116473   -3.164479   -3.350826
  16 H     1.0000    0     1.008    1.509379    4.411615   -3.289380
  17 H     1.0000    0     1.008    1.846279   -4.316102   -3.260766
  18 H     1.0000    0     1.008   -1.522486   -4.445131   -3.326218
  19 H     1.0000    0     1.008   -1.858270    4.275970   -3.368144
  20 H     1.0000    0     1.008   -0.041806    2.123396   -5.188506
  21 H     1.0000    0     1.008    0.113282   -2.172371   -5.171124

--------------------------------
INTERNAL COORDINATES (ANGSTROEM)
--------------------------------
 C      0   0   0     0.000000000000     0.00000000     0.00000000
 C      1   0   0     1.370980342564     0.00000000     0.00000000
 N      1   2   0     1.387442631355   106.57526056     0.00000000
 N      2   1   3     1.387420875980   106.59065624   359.92778148
 C      4   2   1     1.329678678371   108.99216460     0.05775138
 C      3   1   2     1.458215272602   125.36854995   180.17545081
 C      4   2   1     1.458231035091   125.33642319   180.06525083
 H      6   3   1     1.097996408519   109.74809826    58.44570030
 H      7   4   2     1.096532937246   109.14632476   179.42911853
 H      7   4   2     1.098107119905   109.87082267   299.10501120
 H      6   3   1     1.098149067657   109.98436240   297.77246398
 H      6   3   1     1.096524375279   109.13506723   177.99412004
 H      7   4   2     1.098021830773   109.81758121    59.77558223
 H      5   4   2     1.089620272270   125.58501169   179.91973755
 C      1   2   3     1.489555669831   131.14978138   180.02775449
 C      2   1   3     1.489526273839   131.17109329   179.88161020
 H     15   1   2     1.100734163367   111.46269104   240.43500075
 H     16   2   1     1.100711156212   111.52532735   119.43270572
 H     16   2   1     1.100747613828   111.43874860   240.58834652
 H     15   1   2     1.100798268350   111.50072008   119.32101856
 H     15   1   2     1.097015583642   110.04780585   359.87726856
 H     16   2   1     1.097040897288   110.03037878   359.96597446

---------------------------
INTERNAL COORDINATES (A.U.)
---------------------------
 C      0   0   0     0.000000000000     0.00000000     0.00000000
 C      1   0   0     2.590777382436     0.00000000     0.00000000
 N      1   2   0     2.621886599788   106.57526056     0.00000000
 N      2   1   3     2.621845488088   106.59065624   359.92778148
 C      4   2   1     2.512728548235   108.99216460     0.05775138
 C      3   1   2     2.755627509519   125.36854995   180.17545081
 C      4   2   1     2.755657296306   125.33642319   180.06525083
 H      6   3   1     2.074912508130   109.74809826    58.44570030
 H      7   4   2     2.072146948219   109.14632476   179.42911853
 H      7   4   2     2.075121722329   109.87082267   299.10501120
 H      6   3   1     2.075200992094   109.98436240   297.77246398
 H      6   3   1     2.072130768447   109.13506723   177.99412004
 H      7   4   2     2.074960549228   109.81758121    59.77558223
 H      5   4   2     2.059083904558   125.58501169   179.91973755
 C      1   2   3     2.814852277210   131.14978138   180.02775449
 C      2   1   3     2.814796726837   131.17109329   179.88161020
 H     15   1   2     2.080086115014   111.46269104   240.43500075
 H     16   2   1     2.080042637792   111.52532735   119.43270572
 H     16   2   1     2.080111532702   111.43874860   240.58834652
 H     15   1   2     2.080207255876   111.50072008   119.32101856
 H     15   1   2     2.073059017728   110.04780585   359.87726856
 H     16   2   1     2.073106853585   110.03037878   359.96597446

---------------------
BASIS SET INFORMATION
---------------------
There are 3 groups of distinct atoms

 Group   1 Type C   : 11s6p2d1f contracted to 5s3p2d1f pattern {62111/411/11/1}
 Group   2 Type N   : 11s6p2d1f contracted to 5s3p2d1f pattern {62111/411/11/1}
 Group   3 Type H   : 5s1p contracted to 3s1p pattern {311/1}

Atom   0C    basis set group =>   1
Atom   1C    basis set group =>   1
Atom   2N    basis set group =>   2
Atom   3N    basis set group =>   2
Atom   4C    basis set group =>   1
Atom   5C    basis set group =>   1
Atom   6C    basis set group =>   1
Atom   7H    basis set group =>   3
Atom   8H    basis set group =>   3
Atom   9H    basis set group =>   3
Atom  10H    basis set group =>   3
Atom  11H    basis set group =>   3
Atom  12H    basis set group =>   3
Atom  13H    basis set group =>   3
Atom  14C    basis set group =>   1
Atom  15C    basis set group =>   1
Atom  16H    basis set group =>   3
Atom  17H    basis set group =>   3
Atom  18H    basis set group =>   3
Atom  19H    basis set group =>   3
Atom  20H    basis set group =>   3
Atom  21H    basis set group =>   3
---------------------------------
AUXILIARY/J BASIS SET INFORMATION
---------------------------------
There are 3 groups of distinct atoms

 Group   1 Type C   : 12s5p4d2f1g contracted to 6s4p3d1f1g pattern {711111/2111/211/2/1}
 Group   2 Type N   : 12s5p4d2f1g contracted to 6s4p3d1f1g pattern {711111/2111/211/2/1}
 Group   3 Type H   : 5s2p1d contracted to 3s1p1d pattern {311/2/1}

Atom   0C    basis set group =>   1
Atom   1C    basis set group =>   1
Atom   2N    basis set group =>   2
Atom   3N    basis set group =>   2
Atom   4C    basis set group =>   1
Atom   5C    basis set group =>   1
Atom   6C    basis set group =>   1
Atom   7H    basis set group =>   3
Atom   8H    basis set group =>   3
Atom   9H    basis set group =>   3
Atom  10H    basis set group =>   3
Atom  11H    basis set group =>   3
Atom  12H    basis set group =>   3
Atom  13H    basis set group =>   3
Atom  14C    basis set group =>   1
Atom  15C    basis set group =>   1
Atom  16H    basis set group =>   3
Atom  17H    basis set group =>   3
Atom  18H    basis set group =>   3
Atom  19H    basis set group =>   3
Atom  20H    basis set group =>   3
Atom  21H    basis set group =>   3


           ************************************************************
           *        Program running with 4 parallel MPI-processes     *
           *              working on a common directory               *
           ************************************************************
------------------------------------------------------------------------------
                           ORCA GTO INTEGRAL CALCULATION
                           -- RI-GTO INTEGRALS CHOSEN --
------------------------------------------------------------------------------
------------------------------------------------------------------------------
                   ___                                                        
                  /   \      - P O W E R E D   B Y -                         
                 /     \                                                     
                 |  |  |   _    _      __       _____    __    __             
                 |  |  |  | |  | |    /  \     |  _  \  |  |  /  |          
                  \  \/   | |  | |   /    \    | | | |  |  | /  /          
                 / \  \   | |__| |  /  /\  \   | |_| |  |  |/  /          
                |  |  |   |  __  | /  /__\  \  |    /   |      \           
                |  |  |   | |  | | |   __   |  |    \   |  |\   \          
                \     /   | |  | | |  |  |  |  | |\  \  |  | \   \       
                 \___/    |_|  |_| |__|  |__|  |_| \__\ |__|  \__/        
                                                                              
                      - O R C A' S   B I G   F R I E N D -                    
                                      &                                       
                       - I N T E G R A L  F E E D E R -                       
                                                                              
 v1 FN, 2020, v2 2021                                                         
------------------------------------------------------------------------------


Reading SHARK input file 2_prot.SHARKINP.tmp ... ok
----------------------
SHARK INTEGRAL PACKAGE
----------------------

Number of atoms                             ...     22
Number of basis functions                   ...    357
Number of shells                            ...    151
Maximum angular momentum                    ...      3
Integral batch strategy                     ... SHARK/LIBINT Hybrid
RI-J (if used) integral strategy            ... SPLIT-RIJ (Revised 2003 algorithm where possible)
Printlevel                                  ...      1
Contraction scheme used                     ... SEGMENTED contraction
Coulomb Range Separation                    ... NOT USED
Exchange Range Separation                   ... Long Range
   Mu parameter                             ...  0.300000
   Scaling (regular/separated)              ...  0.157706  0.842294
Finite Nucleus Model                        ... NOT USED
Auxiliary Coulomb fitting basis             ... AVAILABLE
   # of basis functions in Aux-J            ...    584
   # of shells in Aux-J                     ...    200
   Maximum angular momentum in Aux-J        ...      4
Auxiliary J/K fitting basis                 ... NOT available
Auxiliary Correlation fitting basis         ... NOT available
Auxiliary 'external' fitting basis          ... NOT available
Integral threshold                          ...     2.500000e-11
Primitive cut-off                           ...     2.500000e-12
Primitive pair pre-selection threshold      ...     2.500000e-12

Calculating pre-screening integrals         ... done (  0.1 sec) Dimension = 151
Organizing shell pair data                  ... done (  0.1 sec)
Shell pair information
Total number of shell pairs                 ...     11476
Shell pairs after pre-screening             ...     10334
Total number of primitive shell pairs       ...     33648
Primitive shell pairs kept                  ...     22521
          la=0 lb=0:   3081 shell pairs
          la=1 lb=0:   3016 shell pairs
          la=1 lb=1:    756 shell pairs
          la=2 lb=0:   1398 shell pairs
          la=2 lb=1:    684 shell pairs
          la=2 lb=2:    168 shell pairs
          la=3 lb=0:    694 shell pairs
          la=3 lb=1:    336 shell pairs
          la=3 lb=2:    156 shell pairs
          la=3 lb=3:     45 shell pairs

Calculating one electron integrals          ... done (  0.0 sec)
Calculating RI/J V-Matrix + Cholesky decomp.... done (  0.0 sec)
Calculating Nuclear repulsion               ... done (  0.0 sec) ENN=    473.787664406225 Eh

SHARK setup successfully completed in   0.5 seconds

Maximum memory used throughout the entire GTOINT-calculation: 23.2 MB


           ************************************************************
           *        Program running with 4 parallel MPI-processes     *
           *              working on a common directory               *
           ************************************************************
-------------------------------------------------------------------------------
                                 ORCA SCF
-------------------------------------------------------------------------------

------------
SCF SETTINGS
------------
Hamiltonian:
 Density Functional     Method          .... DFT(GTOs)
 Exchange Functional    Exchange        .... WB97X
 Correlation Functional Correlation     .... WB97X
 Gradients option       PostSCFGGA      .... off
 Hybrid DFT is turned on
   Fraction HF Exchange ScalHFX         ....  0.157706
   Scaling of DF-GGA-X  ScalDFX         ....  0.000000
   Scaling of DF-GGA-C  ScalDFC         ....  1.000000
   Scaling of DF-LDA-C  ScalLDAC        ....  1.000000
   Perturbative correction              ....  0.000000
   Density functional embedding theory  .... OFF
 Long-range corrected/Screened/Range-Separated Hybrid DFT is turned on
   Amount of maximum screened exact exchange              ....  0.842294
   Range separation parameter mu (erf(mu*r12)/r12)        ....  0.300000
 RI-approximation to the Coulomb term is turned on
   Number of AuxJ basis functions       .... 584
   RIJ-COSX (HFX calculated with COS-X)).... on


General Settings:
 Integral files         IntName         .... 2_prot
 Hartree-Fock type      HFTyp           .... RHF
 Total Charge           Charge          ....    1
 Multiplicity           Mult            ....    1
 Number of Electrons    NEL             ....   68
 Basis Dimension        Dim             ....  357
 Nuclear Repulsion      ENuc            ....    473.7876644062 Eh

Convergence Acceleration:
 DIIS                   CNVDIIS         .... on
   Start iteration      DIISMaxIt       ....     0
   Startup error        DIISStart       ....  0.200000
   # of expansion vecs  DIISMaxEq       ....     5
   Bias factor          DIISBfac        ....   1.050
   Max. coefficient     DIISMaxC        ....  10.000
 Trust-Rad. Augm. Hess. CNVTRAH         .... auto
   Auto Start mean grad. ratio tolernc. ....  1.125000
   Auto Start start iteration           ....    20
   Auto Start num. interpolation iter.  ....    10
   Max. Number of Micro iterations      ....    16
   Max. Number of Macro iterations      .... Maxiter - #DIIS iter
   Number of Davidson start vectors     ....     2
   Converg. threshold I  (grad. norm)   ....   1.000e-05
   Converg. threshold II (energy diff.) ....   1.000e-08
   Grad. Scal. Fac. for Micro threshold ....   0.100
   Minimum threshold for Micro iter.    ....   0.010
   NR start threshold (gradient norm)   ....   0.001
   Initial trust radius                 ....   0.400
   Minimum AH scaling param. (alpha)    ....   1.000
   Maximum AH scaling param. (alpha)    .... 1000.000
   Orbital update algorithm             .... Taylor
   White noise on init. David. guess    .... on
   Maximum white noise                  ....   0.010
   Quad. conv. algorithm                .... NR
 SOSCF                  CNVSOSCF        .... on
   Start iteration      SOSCFMaxIt      ....   150
   Startup grad/error   SOSCFStart      ....  0.001000
 Level Shifting         CNVShift        .... on
   Level shift para.    LevelShift      ....    0.2500
   Turn off err/grad.   ShiftErr        ....    0.0000
 Zerner damping         CNVZerner       .... off
 Static damping         CNVDamp         .... on
   Fraction old density DampFac         ....    0.8500
   Max. Damping (<1)    DampMax         ....    0.9800
   Min. Damping (>=0)   DampMin         ....    0.0000
   Turn off err/grad.   DampErr         ....    0.0300
 Fernandez-Rico         CNVRico         .... off

SCF Procedure:
 Maximum # iterations   MaxIter         ....   125
 SCF integral mode      SCFMode         .... Direct
   Integral package                     .... SHARK and LIBINT hybrid scheme
 Reset frequency        DirectResetFreq ....    20
 Integral Threshold     Thresh          ....  2.500e-11 Eh
 Primitive CutOff       TCut            ....  2.500e-12 Eh

Convergence Tolerance:
 Convergence Check Mode ConvCheckMode   .... Total+1el-Energy
 Convergence forced     ConvForced      .... 0
 Energy Change          TolE            ....  1.000e-08 Eh
 1-El. energy change                    ....  1.000e-05 Eh
 Orbital Gradient       TolG            ....  1.000e-05
 Orbital Rotation angle TolX            ....  1.000e-05
 DIIS Error             TolErr          ....  5.000e-07


Diagonalization of the overlap matrix:
Smallest eigenvalue                        ... 3.741e-05
Time for diagonalization                   ...    0.021 sec
Threshold for overlap eigenvalues          ... 1.000e-08
Number of eigenvalues below threshold      ... 0
Time for construction of square roots      ...    0.012 sec
Total time needed                          ...    0.035 sec

Time for model grid setup =    0.152 sec

------------------------------
INITIAL GUESS: MODEL POTENTIAL
------------------------------
Loading Hartree-Fock densities                     ... done
Calculating cut-offs                               ... done
Initializing the effective Hamiltonian             ... done
Setting up the integral package (SHARK)            ... done
Starting the Coulomb interaction                   ... done (   0.2 sec)
Reading the grid                                   ... done
Mapping shells                                     ... done
Starting the XC term evaluation                    ... done (   0.2 sec)
  promolecular density results
     # of electrons  =     68.999290873
     EX              =    -52.795009670
     EC              =     -2.285865138
     EX+EC           =    -55.080874808
Transforming the Hamiltonian                       ... done (   0.0 sec)
Diagonalizing the Hamiltonian                      ... done (   0.0 sec)
Back transforming the eigenvectors                 ... done (   0.0 sec)
Now organizing SCF variables                       ... done
                      ------------------
                      INITIAL GUESS DONE (   0.7 sec)
                      ------------------
-------------------
DFT GRID GENERATION
-------------------

General Integration Accuracy     IntAcc      ... 4.388
Radial Grid Type                 RadialGrid  ... OptM3 with GC (2021)
Angular Grid (max. ang.)         AngularGrid ... 4 (Lebedev-302)
Angular grid pruning method      GridPruning ... 4 (adaptive)
Weight generation scheme         WeightScheme... Becke
Basis function cutoff            BFCut       ... 1.0000e-11
Integration weight cutoff        WCut        ... 1.0000e-14
Angular grids for H and He will be reduced by one unit
Partially contracted basis set               ... off
Rotationally invariant grid construction     ... off

Total number of grid points                  ...    95663
Total number of batches                      ...     1506
Average number of points per batch           ...       63
Average number of grid points per atom       ...     4348
Time for grid setup =    0.702 sec

--------------------
COSX GRID GENERATION
--------------------

GRIDX 1
-------
General Integration Accuracy     IntAcc      ... 3.816
Radial Grid Type                 RadialGrid  ... OptM3 with GC (2021)
Angular Grid (max. ang.)         AngularGrid ... 1 (Lebedev-50)
Angular grid pruning method      GridPruning ... 4 (adaptive)
Weight generation scheme         WeightScheme... Becke
Basis function cutoff            BFCut       ... 1.0000e-11
Integration weight cutoff        WCut        ... 1.0000e-14
Angular grids for H and He will be reduced by one unit
Partially contracted basis set               ... on
Rotationally invariant grid construction     ... off

Total number of grid points                  ...    12242
Total number of batches                      ...      205
Average number of points per batch           ...       59
Average number of grid points per atom       ...      556
UseSFitting                                  ... on

GRIDX 2
-------
General Integration Accuracy     IntAcc      ... 4.020
Radial Grid Type                 RadialGrid  ... OptM3 with GC (2021)
Angular Grid (max. ang.)         AngularGrid ... 2 (Lebedev-110)
Angular grid pruning method      GridPruning ... 4 (adaptive)
Weight generation scheme         WeightScheme... Becke
Basis function cutoff            BFCut       ... 1.0000e-11
Integration weight cutoff        WCut        ... 1.0000e-14
Angular grids for H and He will be reduced by one unit
Partially contracted basis set               ... on
Rotationally invariant grid construction     ... off

Total number of grid points                  ...    25768
Total number of batches                      ...      415
Average number of points per batch           ...       62
Average number of grid points per atom       ...     1171
UseSFitting                                  ... on

GRIDX 3
-------
General Integration Accuracy     IntAcc      ... 4.338
Radial Grid Type                 RadialGrid  ... OptM3 with GC (2021)
Angular Grid (max. ang.)         AngularGrid ... 3 (Lebedev-194)
Angular grid pruning method      GridPruning ... 4 (adaptive)
Weight generation scheme         WeightScheme... Becke
Basis function cutoff            BFCut       ... 1.0000e-11
Integration weight cutoff        WCut        ... 1.0000e-14
Angular grids for H and He will be reduced by one unit
Partially contracted basis set               ... on
Rotationally invariant grid construction     ... off

Total number of grid points                  ...    56325
Total number of batches                      ...      892
Average number of points per batch           ...       63
Average number of grid points per atom       ...     2560
UseSFitting                                  ... on

Time for X-Grid setup             =    0.976 sec

--------------
SCF ITERATIONS
--------------
ITER       Energy         Delta-E        Max-DP      RMS-DP      [F,P]     Damp
               ***  Starting incremental Fock matrix formation  ***
  0   -383.7516958961   0.000000000000 0.01943517  0.00036107  0.1631255 0.8500
  1   -383.7848898152  -0.033193919128 0.02190770  0.00036480  0.1305931 0.8500
                               ***Turning on DIIS***
  2   -383.8100244225  -0.025134607324 0.01822788  0.00030396  0.0995633 0.8500
  3   -383.8286840829  -0.018659660358 0.01417913  0.00023464  0.0749176 0.8500
  4   -383.8430790166  -0.014394933770 0.01158381  0.00018956  0.0594857 0.8500
  5   -383.8544112622  -0.011332245526 0.00997074  0.00015987  0.0492542 0.8500
  6   -383.8636219732  -0.009210711066 0.00873028  0.00013706  0.0415406 0.8500
  7   -383.8712458598  -0.007623886618 0.00772559  0.00011871  0.0352715 0.8500
  8   -383.8776255603  -0.006379700422 0.04509429  0.00068266  0.0298485 0.0000
  9   -383.9118653637  -0.034239803445 0.00072289  0.00001588  0.0013193 0.0000
                      *** Initiating the SOSCF procedure ***
                           *** Shutting down DIIS ***
                      *** Re-Reading the Fockian *** 
                      *** Removing any level shift *** 
ITER      Energy       Delta-E        Grad      Rot      Max-DP    RMS-DP
 10   -383.91187836  -0.0000130006  0.000195  0.000195  0.000618  0.000008
               *** Restarting incremental Fock matrix formation ***
 11   -383.91185354   0.0000248269  0.000082  0.000131  0.000669  0.000011
 12   -383.91185383  -0.0000002950  0.000062  0.000178  0.000320  0.000005
 13   -383.91185388  -0.0000000498  0.000021  0.000036  0.000133  0.000003
 14   -383.91185390  -0.0000000193  0.000005  0.000007  0.000033  0.000001
                  ***Gradient check signals convergence***
              ***Rediagonalizing the Fockian in SOSCF/NRSCF***

               *****************************************************
               *                     SUCCESS                       *
               *           SCF CONVERGED AFTER  15 CYCLES          *
               *****************************************************

Old exchange energy                            =    -17.459889617 Eh
New exchange energy                            =    -17.459862228 Eh
Exchange energy change after final integration =      0.000027389 Eh
Total energy after final integration           =   -383.911826508 Eh
Final COS-X integration done in                =    24.045 sec

----------------
TOTAL SCF ENERGY
----------------

Total Energy       :         -383.91182651 Eh          -10446.77190 eV

Components:
Nuclear Repulsion  :          473.78766441 Eh           12892.41779 eV
Electronic Energy  :         -857.69949091 Eh          -23339.18969 eV
One Electron Energy:        -1443.95808785 Eh          -39292.09714 eV
Two Electron Energy:          586.25859693 Eh           15952.90745 eV
Max COSX asymmetry :            0.00000127 Eh               0.00003 eV

Virial components:
Potential Energy   :         -765.87768780 Eh          -20840.59140 eV
Kinetic Energy     :          381.96586129 Eh           10393.81950 eV
Virial Ratio       :            2.00509461


DFT components:
N(Alpha)           :       34.000092656827 electrons
N(Beta)            :       34.000092656827 electrons
N(Total)           :       68.000185313654 electrons
E(XC)              :      -38.947788352597 Eh       
DFET-embed. en.    :        0.000000000000 Eh       

---------------
SCF CONVERGENCE
---------------

  Last Energy change         ...    4.1417e-09  Tolerance :   1.0000e-08
  Last MAX-Density change    ...    1.4433e-15  Tolerance :   1.0000e-07
  Last RMS-Density change    ...    1.3945e-17  Tolerance :   5.0000e-09
  Last Orbital Gradient      ...    2.0470e-06  Tolerance :   1.0000e-05
  Last Orbital Rotation      ...    5.2612e-06  Tolerance :   1.0000e-05

             **** THE GBW FILE WAS UPDATED (2_prot.gbw) ****
             **** DENSITY 2_prot.scfp WAS UPDATED ****
             **** ENERGY FILE WAS UPDATED (2_prot.en.tmp) ****
             **** THE GBW FILE WAS UPDATED (2_prot.gbw) ****
             **** DENSITY 2_prot.scfp WAS UPDATED ****
----------------
ORBITAL ENERGIES
----------------

  NO   OCC          E(Eh)            E(eV) 
   0   2.0000     -14.643216      -398.4622 
   1   2.0000     -14.643187      -398.4614 
   2   2.0000     -10.513181      -286.0782 
   3   2.0000     -10.465544      -284.7819 
   4   2.0000     -10.464902      -284.7645 
   5   2.0000     -10.458661      -284.5946 
   6   2.0000     -10.458638      -284.5940 
   7   2.0000     -10.410067      -283.2723 
   8   2.0000     -10.410053      -283.2719 
   9   2.0000      -1.363232       -37.0954 
  10   2.0000      -1.245515       -33.8922 
  11   2.0000      -1.104697       -30.0603 
  12   2.0000      -1.062003       -28.8986 
  13   2.0000      -1.024888       -27.8886 
  14   2.0000      -0.977554       -26.6006 
  15   2.0000      -0.974610       -26.5205 
  16   2.0000      -0.878371       -23.9017 
  17   2.0000      -0.874033       -23.7837 
  18   2.0000      -0.811211       -22.0742 
  19   2.0000      -0.788595       -21.4588 
  20   2.0000      -0.752163       -20.4674 
  21   2.0000      -0.738323       -20.0908 
  22   2.0000      -0.729991       -19.8641 
  23   2.0000      -0.698144       -18.9975 
  24   2.0000      -0.682293       -18.5661 
  25   2.0000      -0.681197       -18.5363 
  26   2.0000      -0.677436       -18.4340 
  27   2.0000      -0.664874       -18.0922 
  28   2.0000      -0.654837       -17.8190 
  29   2.0000      -0.654652       -17.8140 
  30   2.0000      -0.643663       -17.5150 
  31   2.0000      -0.638255       -17.3678 
  32   2.0000      -0.556213       -15.1353 
  33   2.0000      -0.493335       -13.4243 
  34   0.0000      -0.089129        -2.4253 
  35   0.0000      -0.040611        -1.1051 
  36   0.0000      -0.030563        -0.8316 
  37   0.0000      -0.012236        -0.3330 
  38   0.0000      -0.004388        -0.1194 
  39   0.0000       0.024042         0.6542 
  40   0.0000       0.026371         0.7176 
  41   0.0000       0.027541         0.7494 
  42   0.0000       0.034011         0.9255 
  43   0.0000       0.041939         1.1412 
  44   0.0000       0.056730         1.5437 
  45   0.0000       0.059209         1.6111 
  46   0.0000       0.069472         1.8904 
  47   0.0000       0.075712         2.0602 
  48   0.0000       0.089036         2.4228 
  49   0.0000       0.093979         2.5573 
  50   0.0000       0.104322         2.8387 
  51   0.0000       0.104966         2.8563 
  52   0.0000       0.127750         3.4762 
  53   0.0000       0.128433         3.4949 
  54   0.0000       0.139408         3.7935 
  55   0.0000       0.145663         3.9637 
  56   0.0000       0.145821         3.9680 
  57   0.0000       0.148089         4.0297 
  58   0.0000       0.151028         4.1097 
  59   0.0000       0.168310         4.5800 
  60   0.0000       0.176352         4.7988 
  61   0.0000       0.205070         5.5802 
  62   0.0000       0.215120         5.8537 
  63   0.0000       0.238284         6.4840 
  64   0.0000       0.242653         6.6029 
  65   0.0000       0.248000         6.7484 
  66   0.0000       0.249246         6.7823 
  67   0.0000       0.268275         7.3001 
  68   0.0000       0.272923         7.4266 
  69   0.0000       0.287611         7.8263 
  70   0.0000       0.295129         8.0309 
  71   0.0000       0.298169         8.1136 
  72   0.0000       0.306382         8.3371 
  73   0.0000       0.324206         8.8221 
  74   0.0000       0.336787         9.1644 
  75   0.0000       0.342572         9.3218 
  76   0.0000       0.356871         9.7110 
  77   0.0000       0.371039        10.0965 
  78   0.0000       0.373995        10.1769 
  79   0.0000       0.386408        10.5147 
  80   0.0000       0.387137        10.5345 
  81   0.0000       0.404793        11.0150 
  82   0.0000       0.410076        11.1587 
  83   0.0000       0.420874        11.4526 
  84   0.0000       0.430327        11.7098 
  85   0.0000       0.431922        11.7532 
  86   0.0000       0.446292        12.1442 
  87   0.0000       0.449220        12.2239 
  88   0.0000       0.454049        12.3553 
  89   0.0000       0.468932        12.7603 
  90   0.0000       0.474016        12.8986 
  91   0.0000       0.480082        13.0637 
  92   0.0000       0.481762        13.1094 
  93   0.0000       0.500124        13.6091 
  94   0.0000       0.502679        13.6786 
  95   0.0000       0.511913        13.9299 
  96   0.0000       0.521667        14.1953 
  97   0.0000       0.526996        14.3403 
  98   0.0000       0.546775        14.8785 
  99   0.0000       0.555860        15.1257 
 100   0.0000       0.577233        15.7073 
 101   0.0000       0.606090        16.4925 
 102   0.0000       0.622091        16.9280 
 103   0.0000       0.626129        17.0378 
 104   0.0000       0.632645        17.2151 
 105   0.0000       0.658655        17.9229 
 106   0.0000       0.670511        18.2455 
 107   0.0000       0.681902        18.5555 
 108   0.0000       0.715313        19.4647 
 109   0.0000       0.719371        19.5751 
 110   0.0000       0.730403        19.8753 
 111   0.0000       0.748818        20.3764 
 112   0.0000       0.780222        21.2309 
 113   0.0000       0.799960        21.7680 
 114   0.0000       0.825123        22.4527 
 115   0.0000       0.838477        22.8161 
 116   0.0000       0.860285        23.4095 
 117   0.0000       0.878875        23.9154 
 118   0.0000       0.887147        24.1405 
 119   0.0000       0.921544        25.0765 
 120   0.0000       0.924669        25.1615 
 121   0.0000       0.945123        25.7181 
 122   0.0000       0.965889        26.2832 
 123   0.0000       0.977803        26.6074 
 124   0.0000       1.011286        27.5185 
 125   0.0000       1.013024        27.5658 
 126   0.0000       1.017858        27.6973 
 127   0.0000       1.029094        28.0031 
 128   0.0000       1.029867        28.0241 
 129   0.0000       1.053827        28.6761 
 130   0.0000       1.054179        28.6857 
 131   0.0000       1.092126        29.7183 
 132   0.0000       1.094346        29.7787 
 133   0.0000       1.134690        30.8765 
 134   0.0000       1.138102        30.9693 
 135   0.0000       1.172378        31.9020 
 136   0.0000       1.201855        32.7041 
 137   0.0000       1.222670        33.2705 
 138   0.0000       1.277388        34.7595 
 139   0.0000       1.311595        35.6903 
 140   0.0000       1.315112        35.7860 
 141   0.0000       1.344118        36.5753 
 142   0.0000       1.386898        37.7394 
 143   0.0000       1.398510        38.0554 
 144   0.0000       1.426233        38.8098 
 145   0.0000       1.445864        39.3440 
 146   0.0000       1.446504        39.3614 
 147   0.0000       1.456157        39.6241 
 148   0.0000       1.469712        39.9929 
 149   0.0000       1.471862        40.0514 
 150   0.0000       1.476693        40.1829 
 151   0.0000       1.479266        40.2529 
 152   0.0000       1.488568        40.5060 
 153   0.0000       1.499420        40.8013 
 154   0.0000       1.505709        40.9724 
 155   0.0000       1.509265        41.0692 
 156   0.0000       1.509580        41.0778 
 157   0.0000       1.513661        41.1888 
 158   0.0000       1.534115        41.7454 
 159   0.0000       1.535470        41.7823 
 160   0.0000       1.571410        42.7603 
 161   0.0000       1.582663        43.0665 
 162   0.0000       1.592512        43.3345 
 163   0.0000       1.598689        43.5025 
 164   0.0000       1.611514        43.8515 
 165   0.0000       1.627563        44.2882 
 166   0.0000       1.636204        44.5234 
 167   0.0000       1.641303        44.6621 
 168   0.0000       1.664360        45.2895 
 169   0.0000       1.691268        46.0217 
 170   0.0000       1.693561        46.0841 
 171   0.0000       1.704817        46.3904 
 172   0.0000       1.731925        47.1281 
 173   0.0000       1.784722        48.5648 
 174   0.0000       1.808316        49.2068 
 175   0.0000       1.869437        50.8700 
 176   0.0000       1.887496        51.3614 
 177   0.0000       1.899060        51.6761 
 178   0.0000       1.899823        51.6968 
 179   0.0000       1.914884        52.1067 
 180   0.0000       1.947433        52.9923 
 181   0.0000       1.951434        53.1012 
 182   0.0000       1.956831        53.2481 
 183   0.0000       1.979377        53.8616 
 184   0.0000       1.991247        54.1846 
 185   0.0000       2.006811        54.6081 
 186   0.0000       2.031974        55.2928 
 187   0.0000       2.035538        55.3898 
 188   0.0000       2.040370        55.5213 
 189   0.0000       2.125689        57.8429 
 190   0.0000       2.130241        57.9668 
 191   0.0000       2.148156        58.4543 
 192   0.0000       2.159718        58.7689 
 193   0.0000       2.163514        58.8722 
 194   0.0000       2.191207        59.6258 
 195   0.0000       2.220056        60.4108 
 196   0.0000       2.241336        60.9898 
 197   0.0000       2.242559        61.0231 
 198   0.0000       2.246165        61.1213 
 199   0.0000       2.269345        61.7520 
 200   0.0000       2.275175        61.9107 
 201   0.0000       2.297095        62.5071 
 202   0.0000       2.305152        62.7264 
 203   0.0000       2.319778        63.1244 
 204   0.0000       2.321925        63.1828 
 205   0.0000       2.323406        63.2231 
 206   0.0000       2.359050        64.1930 
 207   0.0000       2.365704        64.3741 
 208   0.0000       2.405131        65.4469 
 209   0.0000       2.413045        65.6623 
 210   0.0000       2.443695        66.4963 
 211   0.0000       2.446593        66.5752 
 212   0.0000       2.460146        66.9440 
 213   0.0000       2.460718        66.9595 
 214   0.0000       2.463425        67.0332 
 215   0.0000       2.485010        67.6206 
 216   0.0000       2.503945        68.1358 
 217   0.0000       2.525909        68.7335 
 218   0.0000       2.531910        68.8968 
 219   0.0000       2.548277        69.3421 
 220   0.0000       2.551267        69.4235 
 221   0.0000       2.553361        69.4805 
 222   0.0000       2.556126        69.5557 
 223   0.0000       2.571678        69.9789 
 224   0.0000       2.584670        70.3325 
 225   0.0000       2.619785        71.2880 
 226   0.0000       2.630816        71.5881 
 227   0.0000       2.697164        73.3936 
 228   0.0000       2.716881        73.9301 
 229   0.0000       2.723915        74.1215 
 230   0.0000       2.758288        75.0568 
 231   0.0000       2.794703        76.0477 
 232   0.0000       2.804989        76.3276 
 233   0.0000       2.836424        77.1830 
 234   0.0000       2.851357        77.5894 
 235   0.0000       2.852507        77.6207 
 236   0.0000       2.856574        77.7313 
 237   0.0000       2.894470        78.7625 
 238   0.0000       2.909101        79.1607 
 239   0.0000       2.921597        79.5007 
 240   0.0000       2.941785        80.0500 
 241   0.0000       2.953342        80.3645 
 242   0.0000       2.980544        81.1047 
 243   0.0000       2.990314        81.3706 
 244   0.0000       2.997597        81.5688 
 245   0.0000       3.015054        82.0438 
 246   0.0000       3.016928        82.0948 
 247   0.0000       3.075741        83.6952 
 248   0.0000       3.097642        84.2911 
 249   0.0000       3.099366        84.3380 
 250   0.0000       3.099975        84.3546 
 251   0.0000       3.108709        84.5923 
 252   0.0000       3.111347        84.6641 
 253   0.0000       3.137805        85.3840 
 254   0.0000       3.144767        85.5735 
 255   0.0000       3.146554        85.6221 
 256   0.0000       3.153583        85.8134 
 257   0.0000       3.175391        86.4068 
 258   0.0000       3.185532        86.6827 
 259   0.0000       3.193414        86.8972 
 260   0.0000       3.219066        87.5953 
 261   0.0000       3.227183        87.8161 
 262   0.0000       3.231543        87.9348 
 263   0.0000       3.243325        88.2554 
 264   0.0000       3.274366        89.1000 
 265   0.0000       3.281086        89.2829 
 266   0.0000       3.289857        89.5216 
 267   0.0000       3.290709        89.5448 
 268   0.0000       3.315979        90.2324 
 269   0.0000       3.329661        90.6047 
 270   0.0000       3.335150        90.7540 
 271   0.0000       3.357968        91.3750 
 272   0.0000       3.379137        91.9510 
 273   0.0000       3.394130        92.3590 
 274   0.0000       3.401600        92.5622 
 275   0.0000       3.423997        93.1717 
 276   0.0000       3.468820        94.3914 
 277   0.0000       3.485142        94.8355 
 278   0.0000       3.499660        95.2306 
 279   0.0000       3.530122        96.0595 
 280   0.0000       3.551955        96.6536 
 281   0.0000       3.566665        97.0539 
 282   0.0000       3.579959        97.4156 
 283   0.0000       3.600745        97.9812 
 284   0.0000       3.605067        98.0989 
 285   0.0000       3.646866        99.2363 
 286   0.0000       3.680268       100.1452 
 287   0.0000       3.709762       100.9478 
 288   0.0000       3.716541       101.1322 
 289   0.0000       3.732980       101.5796 
 290   0.0000       3.747652       101.9788 
 291   0.0000       3.753004       102.1244 
 292   0.0000       3.839334       104.4736 
 293   0.0000       3.840228       104.4979 
 294   0.0000       3.850688       104.7826 
 295   0.0000       3.851534       104.8056 
 296   0.0000       3.943506       107.3082 
 297   0.0000       3.957757       107.6961 
 298   0.0000       3.977859       108.2430 
 299   0.0000       4.000591       108.8616 
 300   0.0000       4.002362       108.9098 
 301   0.0000       4.089530       111.2818 
 302   0.0000       4.107207       111.7628 
 303   0.0000       4.134313       112.5004 
 304   0.0000       4.142767       112.7304 
 305   0.0000       4.150891       112.9515 
 306   0.0000       4.241182       115.4084 
 307   0.0000       4.265819       116.0788 
 308   0.0000       4.304837       117.1406 
 309   0.0000       4.305451       117.1573 
 310   0.0000       4.323220       117.6408 
 311   0.0000       4.355330       118.5145 
 312   0.0000       4.358710       118.6065 
 313   0.0000       4.391545       119.5000 
 314   0.0000       4.396819       119.6435 
 315   0.0000       4.431347       120.5831 
 316   0.0000       4.466849       121.5491 
 317   0.0000       4.532560       123.3372 
 318   0.0000       4.652317       126.5960 
 319   0.0000       4.659480       126.7909 
 320   0.0000       4.683558       127.4461 
 321   0.0000       4.785622       130.2234 
 322   0.0000       4.849250       131.9548 
 323   0.0000       4.876011       132.6830 
 324   0.0000       4.881143       132.8227 
 325   0.0000       4.924082       133.9911 
 326   0.0000       4.974918       135.3744 
 327   0.0000       4.989838       135.7804 
 328   0.0000       4.992255       135.8462 
 329   0.0000       5.042038       137.2008 
 330   0.0000       5.067430       137.8918 
 331   0.0000       5.102054       138.8340 
 332   0.0000       5.106769       138.9623 
 333   0.0000       5.137656       139.8027 
 334   0.0000       5.202810       141.5756 
 335   0.0000       5.276063       143.5690 
 336   0.0000       5.332024       145.0918 
 337   0.0000       5.373480       146.2198 
 338   0.0000       5.406316       147.1133 
 339   0.0000       5.524076       150.3177 
 340   0.0000       5.562664       151.3678 
 341   0.0000       5.675134       154.4282 
 342   0.0000       5.742053       156.2492 
 343   0.0000       5.774149       157.1226 
 344   0.0000       5.811872       158.1491 
 345   0.0000       6.020332       163.8216 
 346   0.0000       6.031123       164.1152 
 347   0.0000       6.204765       168.8402 
 348   0.0000      22.236029       605.0731 
 349   0.0000      22.297812       606.7543 
 350   0.0000      22.342440       607.9687 
 351   0.0000      22.402264       609.5966 
 352   0.0000      22.617073       615.4418 
 353   0.0000      23.026692       626.5881 
 354   0.0000      23.287711       633.6908 
 355   0.0000      32.726078       890.5218 
 356   0.0000      32.889712       894.9746 

                    ********************************
                    * MULLIKEN POPULATION ANALYSIS *
                    ********************************

-----------------------
MULLIKEN ATOMIC CHARGES
-----------------------
   0 C :    0.013591
   1 C :    0.012879
   2 N :   -0.087370
   3 N :   -0.087263
   4 C :    0.113904
   5 C :   -0.297225
   6 C :   -0.297418
   7 H :    0.178732
   8 H :    0.164139
   9 H :    0.180910
  10 H :    0.182102
  11 H :    0.164078
  12 H :    0.180018
  13 H :    0.242781
  14 C :   -0.307283
  15 C :   -0.306986
  16 H :    0.164398
  17 H :    0.164783
  18 H :    0.164550
  19 H :    0.165087
  20 H :    0.145826
  21 H :    0.145769
Sum of atomic charges:    1.0000000

--------------------------------
MULLIKEN REDUCED ORBITAL CHARGES
--------------------------------
  0 C s       :     3.106426  s :     3.106426
      pz      :     0.752054  p :     2.704790
      px      :     0.995696
      py      :     0.957039
      dz2     :     0.038445  d :     0.161421
      dxz     :     0.027400
      dyz     :     0.051773
      dx2y2   :     0.009878
      dxy     :     0.033924
      f0      :     0.003105  f :     0.013773
      f+1     :     0.002299
      f-1     :     0.002383
      f+2     :     0.002033
      f-2     :     0.001074
      f+3     :     0.002063
      f-3     :     0.000816
  1 C s       :     3.106813  s :     3.106813
      pz      :     0.751220  p :     2.705022
      px      :     0.995873
      py      :     0.957930
      dz2     :     0.038709  d :     0.161510
      dxz     :     0.027334
      dyz     :     0.051534
      dx2y2   :     0.009931
      dxy     :     0.034002
      f0      :     0.003086  f :     0.013776
      f+1     :     0.002318
      f-1     :     0.002409
      f+2     :     0.002013
      f-2     :     0.001053
      f+3     :     0.002073
      f-3     :     0.000826
  2 N s       :     3.471244  s :     3.471244
      pz      :     1.085655  p :     3.509751
      px      :     1.394197
      py      :     1.029899
      dz2     :     0.021422  d :     0.100669
      dxz     :     0.019564
      dyz     :     0.028952
      dx2y2   :     0.013232
      dxy     :     0.017499
      f0      :     0.000701  f :     0.005706
      f+1     :     0.000611
      f-1     :     0.001213
      f+2     :     0.000754
      f-2     :     0.000703
      f+3     :     0.000915
      f-3     :     0.000808
  3 N s       :     3.471225  s :     3.471225
      pz      :     1.085710  p :     3.509668
      px      :     1.394171
      py      :     1.029787
      dz2     :     0.021423  d :     0.100665
      dxz     :     0.019496
      dyz     :     0.028996
      dx2y2   :     0.013236
      dxy     :     0.017513
      f0      :     0.000692  f :     0.005706
      f+1     :     0.000616
      f-1     :     0.001228
      f+2     :     0.000751
      f-2     :     0.000690
      f+3     :     0.000917
      f-3     :     0.000812
  4 C s       :     3.078810  s :     3.078810
      pz      :     0.974027  p :     2.659117
      px      :     0.950640
      py      :     0.734450
      dz2     :     0.025044  d :     0.132340
      dxz     :     0.012636
      dyz     :     0.030523
      dx2y2   :     0.015980
      dxy     :     0.048157
      f0      :     0.001953  f :     0.015830
      f+1     :     0.000523
      f-1     :     0.004136
      f+2     :     0.001777
      f-2     :     0.003775
      f+3     :     0.002307
      f-3     :     0.001360
  5 C s       :     3.324344  s :     3.324344
      pz      :     1.072848  p :     2.907242
      px      :     1.100360
      py      :     0.734034
      dz2     :     0.011528  d :     0.060632
      dxz     :     0.004264
      dyz     :     0.011271
      dx2y2   :     0.008789
      dxy     :     0.024779
      f0      :     0.000993  f :     0.005007
      f+1     :    -0.000025
      f-1     :     0.000726
      f+2     :     0.000622
      f-2     :     0.000255
      f+3     :     0.001272
      f-3     :     0.001164
  6 C s       :     3.324467  s :     3.324467
      pz      :     1.071364  p :     2.907306
      px      :     1.100648
      py      :     0.735294
      dz2     :     0.011638  d :     0.060639
      dxz     :     0.004211
      dyz     :     0.011256
      dx2y2   :     0.008787
      dxy     :     0.024747
      f0      :     0.001000  f :     0.005006
      f+1     :    -0.000045
      f-1     :     0.000743
      f+2     :     0.000620
      f-2     :     0.000267
      f+3     :     0.001269
      f-3     :     0.001152
  7 H s       :     0.799385  s :     0.799385
      pz      :     0.005141  p :     0.021883
      px      :     0.011035
      py      :     0.005706
  8 H s       :     0.813525  s :     0.813525
      pz      :     0.015061  p :     0.022336
      px      :     0.004208
      py      :     0.003066
  9 H s       :     0.797247  s :     0.797247
      pz      :     0.004879  p :     0.021843
      px      :     0.010598
      py      :     0.006366
 10 H s       :     0.796070  s :     0.796070
      pz      :     0.004591  p :     0.021828
      px      :     0.010939
      py      :     0.006298
 11 H s       :     0.813587  s :     0.813587
      pz      :     0.015015  p :     0.022335
      px      :     0.004244
      py      :     0.003075
 12 H s       :     0.798124  s :     0.798124
      pz      :     0.004763  p :     0.021857
      px      :     0.011420
      py      :     0.005675
 13 H s       :     0.735473  s :     0.735473
      pz      :     0.016051  p :     0.021747
      px      :     0.003923
      py      :     0.001772
 14 C s       :     3.340238  s :     3.340238
      pz      :     0.889304  p :     2.925976
      px      :     1.065483
      py      :     0.971188
      dz2     :     0.010323  d :     0.038524
      dxz     :     0.006368
      dyz     :     0.004178
      dx2y2   :     0.003338
      dxy     :     0.014319
      f0      :     0.000410  f :     0.002545
      f+1     :    -0.000014
      f-1     :     0.001066
      f+2     :     0.000047
      f-2     :     0.000427
      f+3     :     0.000113
      f-3     :     0.000498
 15 C s       :     3.340158  s :     3.340158
      pz      :     0.891759  p :     2.925746
      px      :     1.064870
      py      :     0.969116
      dz2     :     0.010342  d :     0.038537
      dxz     :     0.006249
      dyz     :     0.004143
      dx2y2   :     0.003403
      dxy     :     0.014400
      f0      :     0.000406  f :     0.002546
      f+1     :    -0.000021
      f-1     :     0.001067
      f+2     :     0.000049
      f-2     :     0.000426
      f+3     :     0.000116
      f-3     :     0.000504
 16 H s       :     0.813312  s :     0.813312
      pz      :     0.003798  p :     0.022290
      px      :     0.010273
      py      :     0.008220
 17 H s       :     0.812917  s :     0.812917
      pz      :     0.003801  p :     0.022300
      px      :     0.011078
      py      :     0.007422
 18 H s       :     0.813155  s :     0.813155
      pz      :     0.003825  p :     0.022295
      px      :     0.010271
      py      :     0.008199
 19 H s       :     0.812613  s :     0.812613
      pz      :     0.003829  p :     0.022300
      px      :     0.011068
      py      :     0.007403
 20 H s       :     0.830731  s :     0.830731
      pz      :     0.013173  p :     0.023443
      px      :     0.004276
      py      :     0.005995
 21 H s       :     0.830789  s :     0.830789
      pz      :     0.013244  p :     0.023442
      px      :     0.004259
      py      :     0.005939


                     *******************************
                     * LOEWDIN POPULATION ANALYSIS *
                     *******************************

----------------------
LOEWDIN ATOMIC CHARGES
----------------------
   0 C :   -0.172585
   1 C :   -0.172643
   2 N :    0.272801
   3 N :    0.272813
   4 C :   -0.154565
   5 C :   -0.222871
   6 C :   -0.222841
   7 H :    0.139035
   8 H :    0.139595
   9 H :    0.139066
  10 H :    0.139063
  11 H :    0.139589
  12 H :    0.139061
  13 H :    0.165206
  14 C :   -0.236172
  15 C :   -0.236152
  16 H :    0.144958
  17 H :    0.144796
  18 H :    0.144903
  19 H :    0.144770
  20 H :    0.146083
  21 H :    0.146089

-------------------------------
LOEWDIN REDUCED ORBITAL CHARGES
-------------------------------
  0 C s       :     2.709204  s :     2.709204
      pz      :     0.884717  p :     2.810939
      px      :     0.900982
      py      :     1.025240
      dz2     :     0.161198  d :     0.574363
      dxz     :     0.087603
      dyz     :     0.166662
      dx2y2   :     0.064328
      dxy     :     0.094573
      f0      :     0.020693  f :     0.078079
      f+1     :     0.012990
      f-1     :     0.014896
      f+2     :     0.010422
      f-2     :     0.007187
      f+3     :     0.006462
      f-3     :     0.005429
  1 C s       :     2.709192  s :     2.709192
      pz      :     0.883781  p :     2.810945
      px      :     0.901173
      py      :     1.025991
      dz2     :     0.161529  d :     0.574418
      dxz     :     0.087546
      dyz     :     0.166235
      dx2y2   :     0.064432
      dxy     :     0.094677
      f0      :     0.020619  f :     0.078088
      f+1     :     0.013077
      f-1     :     0.015059
      f+2     :     0.010305
      f-2     :     0.007047
      f+3     :     0.006505
      f-3     :     0.005477
  2 N s       :     2.852876  s :     2.852876
      pz      :     1.152747  p :     3.515792
      px      :     1.212296
      py      :     1.150750
      dz2     :     0.076706  d :     0.334198
      dxz     :     0.059111
      dyz     :     0.109801
      dx2y2   :     0.041741
      dxy     :     0.046839
      f0      :     0.003077  f :     0.024333
      f+1     :     0.001746
      f-1     :     0.006975
      f+2     :     0.003370
      f-2     :     0.004106
      f+3     :     0.002767
      f-3     :     0.002292
  3 N s       :     2.852865  s :     2.852865
      pz      :     1.152568  p :     3.515776
      px      :     1.212298
      py      :     1.150910
      dz2     :     0.076804  d :     0.334211
      dxz     :     0.058924
      dyz     :     0.109762
      dx2y2   :     0.041808
      dxy     :     0.046914
      f0      :     0.003012  f :     0.024335
      f+1     :     0.001793
      f-1     :     0.007079
      f+2     :     0.003310
      f-2     :     0.004046
      f+3     :     0.002786
      f-3     :     0.002310
  4 C s       :     2.759767  s :     2.759767
      pz      :     0.981530  p :     2.776647
      px      :     0.908043
      py      :     0.887074
      dz2     :     0.136569  d :     0.527247
      dxz     :     0.031303
      dyz     :     0.142249
      dx2y2   :     0.080435
      dxy     :     0.136692
      f0      :     0.008019  f :     0.090903
      f+1     :     0.000992
      f-1     :     0.028834
      f+2     :     0.013904
      f-2     :     0.024450
      f+3     :     0.006895
      f-3     :     0.007808
  5 C s       :     2.835035  s :     2.835035
      pz      :     1.076754  p :     3.062502
      px      :     1.109459
      py      :     0.876289
      dz2     :     0.064936  d :     0.288025
      dxz     :     0.015139
      dyz     :     0.052183
      dx2y2   :     0.056522
      dxy     :     0.099244
      f0      :     0.004848  f :     0.037309
      f+1     :     0.000496
      f-1     :     0.005014
      f+2     :     0.007529
      f-2     :     0.005333
      f+3     :     0.006945
      f-3     :     0.007145
  6 C s       :     2.835062  s :     2.835062
      pz      :     1.075633  p :     3.062467
      px      :     1.109762
      py      :     0.877072
      dz2     :     0.065531  d :     0.288003
      dxz     :     0.014466
      dyz     :     0.052481
      dx2y2   :     0.056511
      dxy     :     0.099015
      f0      :     0.004851  f :     0.037308
      f+1     :     0.000467
      f-1     :     0.005019
      f+2     :     0.007545
      f-2     :     0.005467
      f+3     :     0.006909
      f-3     :     0.007050
  7 H s       :     0.799398  s :     0.799398
      pz      :     0.016035  p :     0.061567
      px      :     0.030774
      py      :     0.014757
  8 H s       :     0.799128  s :     0.799128
      pz      :     0.039081  p :     0.061276
      px      :     0.013234
      py      :     0.008961
  9 H s       :     0.799374  s :     0.799374
      pz      :     0.015330  p :     0.061560
      px      :     0.029867
      py      :     0.016363
 10 H s       :     0.799374  s :     0.799374
      pz      :     0.014541  p :     0.061563
      px      :     0.030787
      py      :     0.016236
 11 H s       :     0.799134  s :     0.799134
      pz      :     0.039005  p :     0.061277
      px      :     0.013314
      py      :     0.008959
 12 H s       :     0.799370  s :     0.799370
      pz      :     0.015017  p :     0.061569
      px      :     0.031826
      py      :     0.014726
 13 H s       :     0.772033  s :     0.772033
      pz      :     0.042932  p :     0.062761
      px      :     0.013305
      py      :     0.006524
 14 C s       :     2.813342  s :     2.813342
      pz      :     1.037454  p :     3.157749
      px      :     1.074898
      py      :     1.045397
      dz2     :     0.064836  d :     0.240469
      dxz     :     0.023067
      dyz     :     0.059857
      dx2y2   :     0.017121
      dxy     :     0.075588
      f0      :     0.002370  f :     0.024611
      f+1     :     0.003950
      f-1     :     0.005765
      f+2     :     0.004449
      f-2     :     0.003339
      f+3     :     0.001164
      f-3     :     0.003575
 15 C s       :     2.813322  s :     2.813322
      pz      :     1.038046  p :     3.157719
      px      :     1.074730
      py      :     1.044942
      dz2     :     0.064984  d :     0.240495
      dxz     :     0.022551
      dyz     :     0.059532
      dx2y2   :     0.017447
      dxy     :     0.075981
      f0      :     0.002341  f :     0.024616
      f+1     :     0.003877
      f-1     :     0.005783
      f+2     :     0.004473
      f-2     :     0.003355
      f+3     :     0.001181
      f-3     :     0.003605
 16 H s       :     0.794527  s :     0.794527
      pz      :     0.011973  p :     0.060515
      px      :     0.027682
      py      :     0.020860
 17 H s       :     0.794691  s :     0.794691
      pz      :     0.011993  p :     0.060513
      px      :     0.029450
      py      :     0.019070
 18 H s       :     0.794590  s :     0.794590
      pz      :     0.011971  p :     0.060507
      px      :     0.027751
      py      :     0.020785
 19 H s       :     0.794735  s :     0.794735
      pz      :     0.011947  p :     0.060495
      px      :     0.029507
      py      :     0.019041
 20 H s       :     0.793178  s :     0.793178
      pz      :     0.029852  p :     0.060739
      px      :     0.012937
      py      :     0.017950
 21 H s       :     0.793179  s :     0.793179
      pz      :     0.030027  p :     0.060731
      px      :     0.012893
      py      :     0.017811


                      *****************************
                      * MAYER POPULATION ANALYSIS *
                      *****************************

  NA   - Mulliken gross atomic population
  ZA   - Total nuclear charge
  QA   - Mulliken gross atomic charge
  VA   - Mayer's total valence
  BVA  - Mayer's bonded valence
  FA   - Mayer's free valence

  ATOM       NA         ZA         QA         VA         BVA        FA
  0 C      5.9864     6.0000     0.0136     3.8404     3.8404     0.0000
  1 C      5.9871     6.0000     0.0129     3.8410     3.8410     0.0000
  2 N      7.0874     7.0000    -0.0874     3.4532     3.4532    -0.0000
  3 N      7.0873     7.0000    -0.0873     3.4530     3.4530     0.0000
  4 C      5.8861     6.0000     0.1139     3.8809     3.8809    -0.0000
  5 C      6.2972     6.0000    -0.2972     3.7883     3.7883     0.0000
  6 C      6.2974     6.0000    -0.2974     3.7883     3.7883     0.0000
  7 H      0.8213     1.0000     0.1787     0.9527     0.9527     0.0000
  8 H      0.8359     1.0000     0.1641     0.9664     0.9664     0.0000
  9 H      0.8191     1.0000     0.1809     0.9520     0.9520    -0.0000
 10 H      0.8179     1.0000     0.1821     0.9517     0.9517     0.0000
 11 H      0.8359     1.0000     0.1641     0.9664     0.9664     0.0000
 12 H      0.8200     1.0000     0.1800     0.9523     0.9523     0.0000
[...]
     52       0.258863  -0.003290   0.001450  -0.041107   0.397750   0.103862
     53      -0.026847  -0.000191   0.000111   0.004279  -0.039848  -0.003573
     54       0.382948  -0.006561   0.002444   0.056455  -0.546103   0.156871
     55       0.289162  -0.004016   0.001682   0.044855  -0.435328   0.112180
     56      -0.009041  -0.000477   0.000215  -0.001585   0.013824   0.004124
     57       0.367341   0.000960   0.006753  -0.577395  -0.059543  -0.169515
     58      -0.239132  -0.000324  -0.003540   0.397955   0.041193   0.104402
     59      -0.007432   0.000038   0.000523   0.012499   0.001144  -0.004423
     60      -0.009102  -0.000083  -0.000247   0.017478   0.002006  -0.022106
     61       0.133335   0.001108   0.003214  -0.000751  -0.000194   0.315550
     62       0.229216   0.002331   0.007463  -0.002113  -0.000457   0.568859
     63      -0.000709   0.000069  -0.000014  -0.001612   0.017382   0.002033
     64      -0.143713   0.003334  -0.000590   0.000205  -0.002477   0.307467
     65       0.251192  -0.007757   0.001605  -0.000491   0.006070  -0.563331
                 60         61         62         63         64         65    
      0       0.000103  -0.000023  -0.000033  -0.000014   0.000000   0.000089
      1      -0.000005  -0.000001   0.000813   0.000644  -0.000015  -0.001084
      2      -0.000017  -0.000005   0.000210   0.000010   0.000097  -0.002183
      3      -0.000056   0.000091   0.000023  -0.000004   0.000018   0.000006
      4       0.000009  -0.000003  -0.000822   0.000000  -0.000646   0.001072
      5       0.000000   0.000010   0.000214   0.000096   0.000014  -0.002192
      6       0.000437   0.000004   0.000004  -0.000027  -0.000004  -0.000095
      7      -0.000024   0.000001   0.000251   0.000685   0.000162   0.003572
      8       0.000009   0.000000  -0.000295   0.000151   0.000055  -0.002226
      9      -0.000141   0.000415   0.000014  -0.000002   0.000014   0.000193
     10       0.000014  -0.000007  -0.000255  -0.000178  -0.000686  -0.003588
     11       0.000001   0.000006  -0.000299   0.000060   0.000160  -0.002202
     12      -0.000124  -0.000173   0.000003  -0.000026  -0.000026  -0.002076
     13      -0.000009  -0.000006  -0.000001  -0.000313   0.000328   0.000292
     14      -0.000043   0.000017  -0.000138   0.000937   0.000908   0.092696
     15      -0.093678  -0.015857  -0.001101   0.000329  -0.000015  -0.000035
     16      -0.003620  -0.000611  -0.000515   0.026552  -0.000349  -0.000105
     17      -0.001456  -0.000255   0.001795  -0.090918   0.001061   0.001023
     18       0.015784  -0.093651   0.000173   0.000068   0.004582  -0.000020
     19       0.000670  -0.003995   0.000498  -0.000283  -0.026955   0.000108
     20       0.000567  -0.003468   0.001860  -0.001087  -0.090722   0.001018
     21       0.555263   0.093826   0.001447   0.320205  -0.003881   0.000070
     22      -0.301930  -0.050936  -0.000857  -0.162553   0.002011  -0.001433
     23       0.268672   0.045441   0.000487   0.135113  -0.001641  -0.000496
     24       0.002549  -0.015212   0.000179  -0.000087  -0.007272   0.000040
     25       0.000056  -0.000326   0.000094   0.000087   0.007731   0.001212
     26      -0.004504   0.027857  -0.018111   0.010361   0.856463  -0.009853
     27      -0.093646   0.554844  -0.005806   0.003025   0.276337   0.000021
     28      -0.058946   0.348800  -0.003589   0.001730   0.162401   0.001450
     29      -0.041495   0.246156  -0.002776   0.001120   0.103466  -0.000447
     30       0.570192   0.096311   0.010869  -0.277683   0.003544  -0.000007
     31       0.345823   0.058334   0.006530  -0.157899   0.002062  -0.001442
     32      -0.212571  -0.035950  -0.004229   0.084892  -0.001095  -0.000426
     33      -0.012976  -0.002213   0.000821  -0.045933   0.000529   0.000570
     34      -0.000368  -0.000063  -0.000171  -0.003918   0.000053  -0.001255
     35      -0.038320  -0.006399  -0.018014   0.855157  -0.009890  -0.009899
     36      -0.096719   0.572339   0.003547  -0.003731  -0.323681  -0.000074
     37       0.050907  -0.300739  -0.001791   0.001795   0.159136   0.001432
     38       0.039326  -0.232913  -0.001649   0.001298   0.112621  -0.000483
     39       0.000068   0.000120  -0.000004   0.000294   0.000104   0.022323
     40       0.000044   0.000044  -0.000001  -0.001231   0.001215  -0.003110
     41       0.000319  -0.000173   0.000299  -0.008328  -0.008079  -0.995307
     42       0.000931   0.000036  -0.002524  -0.000081   0.000012  -0.000007
     43      -0.000222   0.000078   0.042803   0.001859  -0.000163   0.000002
     44      -0.000312   0.000073   0.047413   0.001923  -0.000199   0.000117
     45      -0.000277   0.000892   0.000723   0.000000   0.000018  -0.000001
     46       0.000743   0.000035  -0.043084   0.000118  -0.001859  -0.000002
     47      -0.000845   0.000024   0.048422  -0.000156   0.001958   0.000117
     48      -0.004856  -0.000619  -0.152571  -0.008962   0.000543   0.000396
     49      -0.003501  -0.000406  -0.108886  -0.005869   0.000391   0.000418
     50      -0.000963  -0.000067  -0.001817   0.000515   0.000038  -0.000247
     51       0.004485  -0.005520  -0.164732   0.000395  -0.009249   0.000373
     52      -0.002795   0.003446   0.101181  -0.000261   0.005190  -0.000349
     53       0.000340  -0.000993  -0.003427   0.000059   0.000484  -0.000251
     54      -0.001145  -0.005447   0.153574  -0.000330   0.008846  -0.000371
     55      -0.000780  -0.003904   0.109627  -0.000254   0.005816  -0.000407
     56      -0.000271   0.000733   0.004057   0.000037   0.000859  -0.000263
     57      -0.006402   0.000018   0.161002   0.009055  -0.000596  -0.000352
     58       0.003998  -0.000030  -0.098932  -0.005100   0.000374   0.000339
     59       0.000729   0.000058   0.004272   0.000905   0.000018  -0.000270
     60       0.000523   0.000124   0.021980   0.000926  -0.000084   0.000018
     61       0.002058  -0.000502  -0.313498  -0.013209   0.001180  -0.000452
     62       0.003743  -0.000903  -0.564782  -0.022989   0.002276  -0.000019
     63      -0.000169   0.000667   0.002043  -0.000006   0.000048  -0.000016
     64      -0.005437   0.000021   0.314012  -0.000871   0.013140   0.000452
     65       0.009948   0.000005  -0.574954   0.001760  -0.023244  -0.000022


-----------
IR SPECTRUM
-----------

 Mode   freq       eps      Int      T**2         TX        TY        TZ
       cm**-1   L/(mol*cm) km/mol    a.u.
----------------------------------------------------------------------------
  6:     77.51   0.000034    0.17  0.000139  (-0.011700 -0.001051  0.000936)
  7:     87.04   0.000004    0.02  0.000015  (-0.003826  0.000075  0.000298)
  8:    139.35   0.000094    0.48  0.000211  ( 0.014522 -0.000320  0.000213)
  9:    142.03   0.000176    0.89  0.000387  (-0.019667 -0.000396 -0.000132)
 10:    154.84   0.000001    0.00  0.000001  (-0.001149 -0.000320  0.000065)
 11:    184.35   0.000969    4.90  0.001641  ( 0.040445  0.001902  0.001106)
 12:    277.19   0.000093    0.47  0.000105  (-0.001904  0.002796  0.009683)
 13:    279.48   0.000049    0.25  0.000055  ( 0.001150  0.005415 -0.004914)
 14:    291.86   0.000083    0.42  0.000089  ( 0.002496  0.000063  0.009094)
 15:    303.34   0.001033    5.22  0.001063  (-0.032563 -0.001349 -0.000589)
 16:    324.30   0.000001    0.01  0.000001  (-0.001026 -0.000035  0.000054)
 17:    538.75   0.000135    0.68  0.000078  (-0.000231  0.008850 -0.000064)
 18:    573.24   0.000389    1.96  0.000212  (-0.000529  0.014538 -0.000095)
 19:    615.64   0.000451    2.28  0.000228  ( 0.000335 -0.000052 -0.015111)
 20:    646.64   0.001892    9.56  0.000913  (-0.030179 -0.001281 -0.000686)
 21:    691.77   0.000000    0.00  0.000000  ( 0.000107  0.000014  0.000269)
 22:    736.02   0.000630    3.18  0.000267  (-0.000346  0.000079  0.016339)
 23:    854.06   0.001855    9.37  0.000678  ( 0.000153 -0.026034  0.000045)
 24:    857.27   0.002655   13.41  0.000966  (-0.031071 -0.000490 -0.000812)
 25:    983.03   0.000022    0.11  0.000007  ( 0.000032 -0.000067 -0.002630)
 26:   1066.09   0.000118    0.59  0.000034  (-0.005836 -0.000609 -0.000033)
 27:   1086.23   0.000004    0.02  0.000001  (-0.000490 -0.000946  0.000082)
 28:   1089.58   0.000082    0.41  0.000023  (-0.000030 -0.004845 -0.000034)
 29:   1113.71   0.000002    0.01  0.000001  ( 0.000102 -0.000546 -0.000566)
 30:   1127.21   0.002040   10.31  0.000565  ( 0.001020 -0.023744  0.000158)
 31:   1154.84   0.000000    0.00  0.000000  ( 0.000094 -0.000290 -0.000077)
 32:   1160.95   0.000003    0.02  0.000001  (-0.000832  0.000419  0.000112)
 33:   1188.53   0.000059    0.30  0.000015  ( 0.000079  0.000053 -0.003936)
 34:   1242.26   0.010276   51.93  0.002581  ( 0.001981 -0.050769  0.000186)
 35:   1293.30   0.000185    0.93  0.000045  (-0.000286  0.006667  0.000007)
 36:   1385.25   0.000071    0.36  0.000016  ( 0.000116 -0.000084  0.003993)
 37:   1426.80   0.001078    5.45  0.000236  (-0.000827  0.015320  0.000601)
 38:   1442.16   0.001266    6.40  0.000274  (-0.001422 -0.000653  0.016476)
 39:   1465.52   0.001201    6.07  0.000256  (-0.000520  0.015980  0.000411)
 40:   1473.08   0.000771    3.90  0.000163  ( 0.001900 -0.001176 -0.012584)
 41:   1475.99   0.000057    0.29  0.000012  (-0.002859  0.000726  0.001836)
 42:   1477.70   0.000169    0.86  0.000036  (-0.000833  0.001747 -0.005658)
 43:   1480.34   0.000020    0.10  0.000004  ( 0.000067 -0.000667 -0.001958)
 44:   1484.17   0.009179   46.39  0.001930  ( 0.007712 -0.000670 -0.043244)
 45:   1488.99   0.001190    6.01  0.000249  (-0.002842  0.014208 -0.006285)
 46:   1490.63   0.002575   13.01  0.000539  (-0.022137  0.006914  0.001093)
 47:   1493.56   0.010917   55.17  0.002281  ( 0.046605  0.006102  0.008465)
 48:   1500.49   0.000649    3.28  0.000135  ( 0.000488  0.000501 -0.011594)
 49:   1530.27   0.000185    0.94  0.000038  (-0.000217 -0.006139  0.000100)
 50:   1540.20   0.000151    0.76  0.000031  ( 0.000382  0.000017  0.005517)
 51:   1657.98   0.020225  102.21  0.003807  (-0.002482  0.061648 -0.000234)
 52:   1719.79   0.005540   28.00  0.001005  ( 0.000675 -0.000175 -0.031697)
 53:   3082.28   0.000872    4.41  0.000088  (-0.000271  0.009393 -0.000191)
 54:   3082.72   0.000132    0.67  0.000013  ( 0.000054 -0.000407 -0.003637)
 55:   3101.54   0.001175    5.94  0.000118  (-0.000385  0.010664 -0.002087)
 56:   3101.60   0.000514    2.60  0.000052  (-0.000350  0.006302  0.003452)
 57:   3150.23   0.000275    1.39  0.000027  ( 0.005215  0.000151  0.000066)
 58:   3150.39   0.000416    2.10  0.000041  ( 0.006414  0.000249  0.000149)
 59:   3187.36   0.000248    1.25  0.000024  ( 0.000215 -0.004920 -0.000028)
 60:   3189.54   0.000067    0.34  0.000007  (-0.002561 -0.000095 -0.000035)
 61:   3189.68   0.000132    0.67  0.000013  (-0.003586 -0.000159 -0.000119)
 62:   3190.43   0.000444    2.24  0.000043  (-0.000178 -0.000009  0.006586)
 63:   3204.56   0.000122    0.62  0.000012  (-0.000034  0.001312 -0.003194)
 64:   3204.76   0.000117    0.59  0.000011  ( 0.000180 -0.001354 -0.003085)
 65:   3298.79   0.004787   24.19  0.000453  ( 0.000470 -0.000062 -0.021275)

* The epsilon (eps) is given for a Dirac delta lineshape.
** The dipole moment derivative (T) already includes vibrational overlap.

The first frequency considered to be a vibration is 6
The total number of vibrations considered is 60


--------------------------
THERMOCHEMISTRY AT 298.15K
--------------------------

Temperature         ... 298.15 K
Pressure            ... 1.00 atm
Total Mass          ... 125.19 AMU

Throughout the following assumptions are being made:
  (1) The electronic state is orbitally nondegenerate
  (2) There are no thermally accessible electronically excited states
  (3) Hindered rotations indicated by low frequency modes are not
      treated as such but are treated as vibrations and this may
      cause some error
  (4) All equations used are the standard statistical mechanics
      equations for an ideal gas
  (5) All vibrations are strictly harmonic

freq.      77.51  E(vib)   ...       0.49 
freq.      87.04  E(vib)   ...       0.48 
freq.     139.35  E(vib)   ...       0.42 
freq.     142.03  E(vib)   ...       0.41 
freq.     154.84  E(vib)   ...       0.40 
freq.     184.35  E(vib)   ...       0.37 
freq.     277.19  E(vib)   ...       0.28 
freq.     279.48  E(vib)   ...       0.28 
freq.     291.86  E(vib)   ...       0.27 
freq.     303.34  E(vib)   ...       0.26 
freq.     324.30  E(vib)   ...       0.25 
freq.     538.75  E(vib)   ...       0.12 
freq.     573.24  E(vib)   ...       0.11 
freq.     615.64  E(vib)   ...       0.10 
freq.     646.64  E(vib)   ...       0.09 
freq.     691.77  E(vib)   ...       0.07 
freq.     736.02  E(vib)   ...       0.06 
freq.     854.06  E(vib)   ...       0.04 
freq.     857.27  E(vib)   ...       0.04 
freq.     983.03  E(vib)   ...       0.02 
freq.    1066.09  E(vib)   ...       0.02 
freq.    1086.23  E(vib)   ...       0.02 
freq.    1089.58  E(vib)   ...       0.02 
freq.    1113.71  E(vib)   ...       0.01 
freq.    1127.21  E(vib)   ...       0.01 
freq.    1154.84  E(vib)   ...       0.01 
freq.    1160.95  E(vib)   ...       0.01 
freq.    1188.53  E(vib)   ...       0.01 
freq.    1242.26  E(vib)   ...       0.01 
freq.    1293.30  E(vib)   ...       0.01 
freq.    1385.25  E(vib)   ...       0.00 
freq.    1426.80  E(vib)   ...       0.00 
freq.    1442.16  E(vib)   ...       0.00 
freq.    1465.52  E(vib)   ...       0.00 
freq.    1473.08  E(vib)   ...       0.00 
freq.    1475.99  E(vib)   ...       0.00 
freq.    1477.70  E(vib)   ...       0.00 
freq.    1480.34  E(vib)   ...       0.00 
freq.    1484.17  E(vib)   ...       0.00 
freq.    1488.99  E(vib)   ...       0.00 
freq.    1490.63  E(vib)   ...       0.00 
freq.    1493.56  E(vib)   ...       0.00 
freq.    1500.49  E(vib)   ...       0.00 
freq.    1530.27  E(vib)   ...       0.00 
freq.    1540.20  E(vib)   ...       0.00 
freq.    1657.98  E(vib)   ...       0.00 
freq.    1719.79  E(vib)   ...       0.00 
freq.    3082.28  E(vib)   ...       0.00 
freq.    3082.72  E(vib)   ...       0.00 
freq.    3101.54  E(vib)   ...       0.00 
freq.    3101.60  E(vib)   ...       0.00 
freq.    3150.23  E(vib)   ...       0.00 
freq.    3150.39  E(vib)   ...       0.00 
freq.    3187.36  E(vib)   ...       0.00 
freq.    3189.54  E(vib)   ...       0.00 
freq.    3189.68  E(vib)   ...       0.00 
freq.    3190.43  E(vib)   ...       0.00 
freq.    3204.56  E(vib)   ...       0.00 
freq.    3204.76  E(vib)   ...       0.00 
freq.    3298.79  E(vib)   ...       0.00 

------------
INNER ENERGY
------------

The inner energy is: U= E(el) + E(ZPE) + E(vib) + E(rot) + E(trans)
    E(el)   - is the total energy from the electronic structure calculation
              = E(kin-el) + E(nuc-el) + E(el-el) + E(nuc-nuc)
    E(ZPE)  - the the zero temperature vibrational energy from the frequency calculation
    E(vib)  - the the finite temperature correction to E(ZPE) due to population
              of excited vibrational states
    E(rot)  - is the rotational thermal energy
    E(trans)- is the translational thermal energy

Summary of contributions to the inner energy U:
Electronic energy                ...   -383.91564038 Eh
Zero point energy                ...      0.19808033 Eh     124.30 kcal/mol
Thermal vibrational correction   ...      0.00754962 Eh       4.74 kcal/mol
Thermal rotational correction    ...      0.00141627 Eh       0.89 kcal/mol
Thermal translational correction ...      0.00141627 Eh       0.89 kcal/mol
-----------------------------------------------------------------------
Total thermal energy                   -383.70717790 Eh


Summary of corrections to the electronic energy:
(perhaps to be used in another calculation)
Total thermal correction                  0.01038216 Eh       6.51 kcal/mol
Non-thermal (ZPE) correction              0.19808033 Eh     124.30 kcal/mol
-----------------------------------------------------------------------
Total correction                          0.20846249 Eh     130.81 kcal/mol


--------
ENTHALPY
--------

The enthalpy is H = U + kB*T
                kB is Boltzmann's constant
Total free energy                 ...   -383.70717790 Eh 
Thermal Enthalpy correction       ...      0.00094421 Eh       0.59 kcal/mol
-----------------------------------------------------------------------
Total Enthalpy                    ...   -383.70623369 Eh


Note: Only C1 symmetry has been detected, increase convergence thresholds 
      if your molecule has a higher symmetry. Symmetry factor of 1.0 is   
      used for the rotational entropy correction. 
 

Note: Rotational entropy computed according to Herzberg 
Infrared and Raman Spectra, Chapter V,1, Van Nostrand Reinhold, 1945 
Point Group:  C1, Symmetry Number:   1  
Rotational constants in cm-1:     0.081403     0.050675     0.031985 

Vibrational entropy computed according to the QRRHO of S. Grimme
Chem.Eur.J. 2012 18 9955


-------
ENTROPY
-------

The entropy contributions are T*S = T*(S(el)+S(vib)+S(rot)+S(trans))
     S(el)   - electronic entropy
     S(vib)  - vibrational entropy
     S(rot)  - rotational entropy
     S(trans)- translational entropy
The entropies will be listed as multiplied by the temperature to get
units of energy

Electronic entropy                ...      0.00000000 Eh      0.00 kcal/mol
Vibrational entropy               ...      0.01321168 Eh      8.29 kcal/mol
Rotational entropy                ...      0.01372807 Eh      8.61 kcal/mol
Translational entropy             ...      0.01918948 Eh     12.04 kcal/mol
-----------------------------------------------------------------------
Final entropy term                ...      0.04612923 Eh     28.95 kcal/mol

In case the symmetry of your molecule has not been determined correctly
or in case you have a reason to use a different symmetry number we print 
out the resulting rotational entropy values for sn=1,12 :
 --------------------------------------------------------
|  sn= 1 | S(rot)=       0.01372807 Eh      8.61 kcal/mol|
|  sn= 2 | S(rot)=       0.01307361 Eh      8.20 kcal/mol|
|  sn= 3 | S(rot)=       0.01269078 Eh      7.96 kcal/mol|
|  sn= 4 | S(rot)=       0.01241916 Eh      7.79 kcal/mol|
|  sn= 5 | S(rot)=       0.01220847 Eh      7.66 kcal/mol|
|  sn= 6 | S(rot)=       0.01203632 Eh      7.55 kcal/mol|
|  sn= 7 | S(rot)=       0.01189078 Eh      7.46 kcal/mol|
|  sn= 8 | S(rot)=       0.01176470 Eh      7.38 kcal/mol|
|  sn= 9 | S(rot)=       0.01165349 Eh      7.31 kcal/mol|
|  sn=10 | S(rot)=       0.01155401 Eh      7.25 kcal/mol|
|  sn=11 | S(rot)=       0.01146402 Eh      7.19 kcal/mol|
|  sn=12 | S(rot)=       0.01138187 Eh      7.14 kcal/mol|
 --------------------------------------------------------


-------------------
GIBBS FREE ENERGY
-------------------

The Gibbs free energy is G = H - T*S

Total enthalpy                    ...   -383.70623369 Eh 
Total entropy correction          ...     -0.04612923 Eh    -28.95 kcal/mol
-----------------------------------------------------------------------
Final Gibbs free energy         ...   -383.75236292 Eh

For completeness - the Gibbs free energy minus the electronic energy
G-E(el)                           ...      0.16327746 Eh    102.46 kcal/mol


Timings for individual modules:

Sum of individual times         ...     1778.456 sec (=  29.641 min)
GTO integral calculation        ...        3.603 sec (=   0.060 min)   0.2 %
SCF iterations                  ...      538.814 sec (=   8.980 min)  30.3 %
SCF Gradient evaluation         ...      136.732 sec (=   2.279 min)   7.7 %
Geometry relaxation             ...        0.256 sec (=   0.004 min)   0.0 %
Analytical frequency calculation...     1099.051 sec (=  18.318 min)  61.8 %
                             ****ORCA TERMINATED NORMALLY****
TOTAL RUN TIME: 0 days 0 hours 29 minutes 40 seconds 570 msec
