
                                 *****************
                                 * O   R   C   A *
                                 *****************

                                            #,                                       
                                            ###                                      
                                            ####                                     
                                            #####                                    
                                            ######                                   
                                           ########,                                 
                                     ,,################,,,,,                         
                               ,,#################################,,                 
                          ,,##########################################,,             
                       ,#########################################, ''#####,          
                    ,#############################################,,   '####,        
                  ,##################################################,,,,####,       
                ,###########''''           ''''###############################       
              ,#####''   ,,,,##########,,,,          '''####'''          '####       
            ,##' ,,,,###########################,,,                        '##       
           ' ,,###''''                  '''############,,,                           
         ,,##''                                '''############,,,,        ,,,,,,###''
      ,#''                                            '''#######################'''  
     '                                                          ''''####''''         
             ,#######,   #######,   ,#######,      ##                                
            ,#'     '#,  ##    ##  ,#'     '#,    #''#        ######   ,####,        
            ##       ##  ##   ,#'  ##            #'  '#       #        #'  '#        
            ##       ##  #######   ##           ,######,      #####,   #    #        
            '#,     ,#'  ##    ##  '#,     ,#' ,#      #,         ##   #,  ,#        
             '#######'   ##     ##  '#######'  #'      '#     #####' # '####'        



                  #######################################################
                  #                        -***-                        #
                  #          Department of theory and spectroscopy      #
                  #    Directorship and core code : Frank Neese         #
                  #        Max Planck Institute fuer Kohlenforschung    #
                  #                Kaiser Wilhelm Platz 1               #
                  #                 D-45470 Muelheim/Ruhr               #
                  #                      Germany                        #
                  #                                                     #
                  #                  All rights reserved                #
                  #                        -***-                        #
                  #######################################################


                         Program Version 5.0.4 -  RELEASE  -


 With contributions from (in alphabetic order):
   Daniel Aravena         : Magnetic Suceptibility
   Michael Atanasov       : Ab Initio Ligand Field Theory (pilot matlab implementation)
   Alexander A. Auer      : GIAO ZORA, VPT2 properties, NMR spectrum
   Ute Becker             : Parallelization
   Giovanni Bistoni       : ED, misc. LED, open-shell LED, HFLD
   Martin Brehm           : Molecular dynamics
   Dmytro Bykov           : SCF Hessian
   Vijay G. Chilkuri      : MRCI spin determinant printing, contributions to CSF-ICE
   Dipayan Datta          : RHF DLPNO-CCSD density
   Achintya Kumar Dutta   : EOM-CC, STEOM-CC
   Dmitry Ganyushin       : Spin-Orbit,Spin-Spin,Magnetic field MRCI
   Miquel Garcia          : C-PCM and meta-GGA Hessian, CC/C-PCM, Gaussian charge scheme
   Yang Guo               : DLPNO-NEVPT2, F12-NEVPT2, CIM, IAO-localization
   Andreas Hansen         : Spin unrestricted coupled pair/coupled cluster methods
   Benjamin Helmich-Paris : MC-RPA, TRAH-SCF, COSX integrals
   Lee Huntington         : MR-EOM, pCC
   Robert Izsak           : Overlap fitted RIJCOSX, COSX-SCS-MP3, EOM
   Marcus Kettner         : VPT2
   Christian Kollmar      : KDIIS, OOCD, Brueckner-CCSD(T), CCSD density, CASPT2, CASPT2-K
   Simone Kossmann        : Meta GGA functionals, TD-DFT gradient, OOMP2, MP2 Hessian
   Martin Krupicka        : Initial AUTO-CI
   Lucas Lang             : DCDCAS
   Marvin Lechner         : AUTO-CI (C++ implementation), FIC-MRCC
   Dagmar Lenk            : GEPOL surface, SMD
   Dimitrios Liakos       : Extrapolation schemes; Compound Job, initial MDCI parallelization
   Dimitrios Manganas     : Further ROCIS development; embedding schemes
   Dimitrios Pantazis     : SARC Basis sets
   Anastasios Papadopoulos: AUTO-CI, single reference methods and gradients
   Taras Petrenko         : DFT Hessian,TD-DFT gradient, ASA, ECA, R-Raman, ABS, FL, XAS/XES, NRVS
   Peter Pinski           : DLPNO-MP2, DLPNO-MP2 Gradient
   Christoph Reimann      : Effective Core Potentials
   Marius Retegan         : Local ZFS, SOC
   Christoph Riplinger    : Optimizer, TS searches, QM/MM, DLPNO-CCSD(T), (RO)-DLPNO pert. Triples
   Tobias Risthaus        : Range-separated hybrids, TD-DFT gradient, RPA, STAB
   Michael Roemelt        : Original ROCIS implementation
   Masaaki Saitow         : Open-shell DLPNO-CCSD energy and density
   Barbara Sandhoefer     : DKH picture change effects
   Avijit Sen             : IP-ROCIS
   Kantharuban Sivalingam : CASSCF convergence, NEVPT2, FIC-MRCI
   Bernardo de Souza      : ESD, SOC TD-DFT
   Georgi Stoychev        : AutoAux, RI-MP2 NMR, DLPNO-MP2 response
   Willem Van den Heuvel  : Paramagnetic NMR
   Boris Wezisla          : Elementary symmetry handling
   Frank Wennmohs         : Technical directorship


 We gratefully acknowledge several colleagues who have allowed us to
 interface, adapt or use parts of their codes:
   Stefan Grimme, W. Hujo, H. Kruse, P. Pracht,  : VdW corrections, initial TS optimization,
                  C. Bannwarth, S. Ehlert          DFT functionals, gCP, sTDA/sTD-DF
   Ed Valeev, F. Pavosevic, A. Kumar             : LibInt (2-el integral package), F12 methods
   Garnet Chan, S. Sharma, J. Yang, R. Olivares  : DMRG
   Ulf Ekstrom                                   : XCFun DFT Library
   Mihaly Kallay                                 : mrcc  (arbitrary order and MRCC methods)
   Jiri Pittner, Ondrej Demel                    : Mk-CCSD
   Frank Weinhold                                : gennbo (NPA and NBO analysis)
   Christopher J. Cramer and Donald G. Truhlar   : smd solvation model
   Lars Goerigk                                  : TD-DFT with DH, B97 family of functionals
   V. Asgeirsson, H. Jonsson                     : NEB implementation
   FAccTs GmbH                                   : IRC, NEB, NEB-TS, DLPNO-Multilevel, CI-OPT
                                                   MM, QMMM, 2- and 3-layer-ONIOM, Crystal-QMMM,
                                                   LR-CPCM, SF, NACMEs, symmetry and pop. for TD-DFT,
                                                   nearIR, NL-DFT gradient (VV10), updates on ESD,
                                                   ML-optimized integration grids
   S Lehtola, MJT Oliveira, MAL Marques          : LibXC Library
   Liviu Ungur et al                             : ANISO software


 Your calculation uses the libint2 library for the computation of 2-el integrals
 For citations please refer to: http://libint.valeyev.net

 Your ORCA version has been built with support for libXC version: 5.1.0
 For citations please refer to: https://tddft.org/programs/libxc/

 This ORCA versions uses:
   CBLAS   interface :  Fast vector & matrix operations
   LAPACKE interface :  Fast linear algebra routines
   SCALAPACK package :  Parallel linear algebra routines
   Shared memory     :  Shared parallel matrices
   BLAS/LAPACK       :  OpenBLAS 0.3.15  USE64BITINT DYNAMIC_ARCH NO_AFFINITY SkylakeX SINGLE_THREADED
        Core in use  :  SkylakeX
   Copyright (c) 2011-2014, The OpenBLAS Project




***************************************
The coordinates will be read from file: 11_prot.xyz
***************************************


Your calculation utilizes the atom-pairwise dispersion correction
based on tight binding partial charges (D4)
Cite in your paper:
E.Caldeweyher, C.Bannwarth, S.Grimme, J.Chem.Phys., (2017), 147, 034112.
E.Caldeweyher, S.Ehlert, A.Hansen, H.Neugebauer, S.Grimme, J.Chem.Phys., (2018), in progress.
   

XCFun DFT library Copyright 2009-2010 Ulf Ekstrom and contributors.
See http://admol.org/xcfun for more information.
This is free software; see the source code for copying conditions.
There is ABSOLUTELY NO WARRANTY; not even for MERCHANTABILITY or FITNESS FOR A PARTICULAR PURPOSE.
For details see the documentation.
Scientific users of this library should cite U. Ekstrom, L. Visscher, R. Bast, A. J. Thorvaldsen and K. Ruud;
J.Chem.Theor.Comp. 2010, DOI: 10.1021/ct100117s
XCFun Version 0.99 

================================================================================

----- Orbital basis set information -----
Your calculation utilizes the basis: def2-TZVP
   F. Weigend and R. Ahlrichs, Phys. Chem. Chem. Phys. 7, 3297 (2005).

----- AuxJ basis set information -----
Your calculation utilizes the auxiliary basis: def2/J
   F. Weigend, Phys. Chem. Chem. Phys. 8, 1057 (2006).

================================================================================
                                        WARNINGS
                       Please study these warnings very carefully!
================================================================================


WARNING: Geometry Optimization
  ===> : Switching off AutoStart
         For restart on a previous wavefunction, please use MOREAD

INFO   : the flag for use of the SHARK integral package has been found!

================================================================================
                                       INPUT FILE
================================================================================
NAME = 11_prot.inp
|  1> # ORCA 5.0.4 - /users/bwb16179/postgrad/2024_06/pKa_Reviewer_Comments/Gas_Z=1/11_prot.inp # write input file
|  2> # Basic Mode
|  3> #
|  4> ! Opt Freq wB97X Def2-TZVP D4 SlowConv TightSCF Defgrid2 Def2/J RIJCOSX 
|  5> 
|  6> %PAL NPROCS 4 END
|  7> 
|  8> %maxcore 4500
|  9> 
| 10> %geom
| 11> Maxiter 150
| 12> END
| 13> 
| 14> * xyzfile 1 1 11_prot.xyz
| 15> 
| 16>                          ****END OF INPUT****
================================================================================

                       *****************************
                       * Geometry Optimization Run *
                       *****************************

Geometry optimization settings:
Update method            Update   .... BFGS
Choice of coordinates    CoordSys .... Z-matrix Internals
Initial Hessian          InHess   .... Almoef's Model

Convergence Tolerances:
Energy Change            TolE     ....  5.0000e-06 Eh
Max. Gradient            TolMAXG  ....  3.0000e-04 Eh/bohr
RMS Gradient             TolRMSG  ....  1.0000e-04 Eh/bohr
Max. Displacement        TolMAXD  ....  4.0000e-03 bohr
RMS Displacement         TolRMSD  ....  2.0000e-03 bohr
Strict Convergence                ....  False
------------------------------------------------------------------------------
                        ORCA OPTIMIZATION COORDINATE SETUP
------------------------------------------------------------------------------

The optimization will be done in new redundant internal coordinates
Making redundant internal coordinates   ...  (new redundants) done
Evaluating the initial hessian          ...  (Almloef) done
Evaluating the coordinates              ...  done
Calculating the B-matrix                .... done
Calculating the G-matrix                .... done
Diagonalizing the G-matrix              .... done
Small eigenvalue found = 1.291e-02
The first mode is                       ....   30
The number of degrees of freedom        ....   54

    -----------------------------------------------------------------
                    Redundant Internal Coordinates


    -----------------------------------------------------------------
         Definition                    Initial Value    Approx d2E/dq
    -----------------------------------------------------------------
      1. B(N   1,C   0)                  1.3176         0.730179   
      2. B(N   2,C   0)                  1.3176         0.730179   
      3. B(C   3,N   1)                  1.4632         0.427675   
      4. B(C   4,N   2)                  1.4632         0.427675   
      5. B(H   5,C   3)                  1.0980         0.349723   
      6. B(H   6,C   4)                  1.0980         0.349723   
      7. B(H   7,C   3)                  1.0948         0.353862   
      8. B(H   8,C   4)                  1.0948         0.353863   
      9. B(H   9,C   3)                  1.1004         0.346549   
     10. B(H  10,C   4)                  1.1004         0.346550   
     11. B(C  11,N   1)                  1.4657         0.423671   
     12. B(C  12,N   2)                  1.4657         0.423672   
     13. B(H  13,C  11)                  1.0969         0.351140   
     14. B(H  14,C  12)                  1.0969         0.351140   
     15. B(H  15,C  11)                  1.0997         0.347452   
     16. B(H  16,C  12)                  1.0997         0.347451   
     17. B(H  17,C  11)                  1.0998         0.347363   
     18. B(H  18,C  12)                  1.0998         0.347362   
     19. B(H  19,C   0)                  1.0957         0.352589   
     20. A(N   1,C   0,N   2)          130.5749         0.454496   
     21. A(N   2,C   0,H  19)          114.7125         0.359316   
     22. A(N   1,C   0,H  19)          114.7125         0.359316   
     23. A(C   0,N   1,C   3)          126.4544         0.412818   
     24. A(C   0,N   1,C  11)          118.7950         0.412129   
     25. A(C   3,N   1,C  11)          114.7210         0.375282   
     26. A(C   0,N   2,C   4)          126.4544         0.412818   
     27. A(C   4,N   2,C  12)          114.7210         0.375282   
     28. A(C   0,N   2,C  12)          118.7950         0.412129   
     29. A(N   1,C   3,H   7)          111.1291         0.328687   
     30. A(H   7,C   3,H   9)          110.2240         0.288305   
     31. A(H   5,C   3,H   7)          107.6697         0.288717   
     32. A(N   1,C   3,H   9)          111.6973         0.327557   
     33. A(N   1,C   3,H   5)          107.7026         0.328050   
     34. A(H   5,C   3,H   9)          108.2571         0.287775   
     35. A(H   8,C   4,H  10)          110.2240         0.288305   
     36. A(H   6,C   4,H  10)          108.2570         0.287775   
     37. A(N   2,C   4,H  10)          111.6974         0.327557   
     38. A(N   2,C   4,H   6)          107.7026         0.328050   
     39. A(H   6,C   4,H   8)          107.6697         0.288717   
     40. A(N   2,C   4,H   8)          111.1291         0.328687   
     41. A(H  15,C  11,H  17)          109.0289         0.287587   
     42. A(H  13,C  11,H  17)          108.4928         0.288063   
     43. A(N   1,C  11,H  17)          109.6799         0.327176   
     44. A(H  13,C  11,H  15)          109.1933         0.288074   
     45. A(N   1,C  11,H  15)          109.8874         0.327190   
     46. A(N   1,C  11,H  13)          110.5258         0.327760   
     47. A(H  16,C  12,H  18)          109.0288         0.287587   
     48. A(H  14,C  12,H  18)          108.4927         0.288062   
     49. A(N   2,C  12,H  18)          109.6800         0.327176   
     50. A(H  14,C  12,H  16)          109.1932         0.288074   
     51. A(N   2,C  12,H  16)          109.8874         0.327190   
     52. A(N   2,C  12,H  14)          110.5259         0.327760   
     53. D(C  11,N   1,C   0,H  19)     -9.1070         0.044509   
     54. D(C  11,N   1,C   0,N   2)    170.8929         0.044509   
     55. D(C   3,N   1,C   0,N   2)    -11.1970         0.044509   
     56. D(C   3,N   1,C   0,H  19)    168.8030         0.044509   
     57. D(C  12,N   2,C   0,N   1)    170.8930         0.044509   
     58. D(C   4,N   2,C   0,N   1)    -11.1968         0.044509   
     59. D(C   4,N   2,C   0,H  19)    168.8031         0.044509   
     60. D(C  12,N   2,C   0,H  19)     -9.1071         0.044509   
     61. D(H   7,C   3,N   1,C   0)    -28.4229         0.015594   
     62. D(H   7,C   3,N   1,C  11)    149.5608         0.015594   
     63. D(H   9,C   3,N   1,C   0)     95.1250         0.015594   
     64. D(H   5,C   3,N   1,C  11)     31.8550         0.015594   
     65. D(H   9,C   3,N   1,C  11)    -86.8913         0.015594   
     66. D(H   5,C   3,N   1,C   0)   -146.1287         0.015594   
     67. D(H   6,C   4,N   2,C   0)   -146.1286         0.015594   
     68. D(H  10,C   4,N   2,C  12)    -86.8911         0.015594   
     69. D(H  10,C   4,N   2,C   0)     95.1251         0.015594   
     70. D(H   8,C   4,N   2,C  12)    149.5610         0.015594   
     71. D(H   8,C   4,N   2,C   0)    -28.4229         0.015594   
     72. D(H   6,C   4,N   2,C  12)     31.8552         0.015594   
     73. D(H  17,C  11,N   1,C   3)     60.9688         0.015304   
     74. D(H  17,C  11,N   1,C   0)   -120.8818         0.015304   
     75. D(H  15,C  11,N   1,C   3)    -58.8734         0.015304   
     76. D(H  15,C  11,N   1,C   0)    119.2761         0.015304   
     77. D(H  13,C  11,N   1,C   3)   -179.4535         0.015304   
     78. D(H  13,C  11,N   1,C   0)     -1.3040         0.015304   
     79. D(H  16,C  12,N   2,C   4)    -58.8734         0.015304   
     80. D(H  16,C  12,N   2,C   0)    119.2762         0.015304   
     81. D(H  14,C  12,N   2,C   4)   -179.4535         0.015304   
     82. D(H  18,C  12,N   2,C   0)   -120.8816         0.015304   
     83. D(H  14,C  12,N   2,C   0)     -1.3039         0.015304   
     84. D(H  18,C  12,N   2,C   4)     60.9687         0.015304   
    -----------------------------------------------------------------

Number of atoms                         .... 20
Number of degrees of freedom            .... 84

         *************************************************************
         *                GEOMETRY OPTIMIZATION CYCLE   1            *
         *************************************************************
---------------------------------
CARTESIAN COORDINATES (ANGSTROEM)
---------------------------------
  C      0.000000    0.000000    0.655468
  N     -0.007826    1.196879    0.104636
  N      0.007825   -1.196879    0.104636
  C      0.218691    1.505493   -1.307581
  C     -0.218691   -1.505493   -1.307581
  H      0.736175    2.472480   -1.359173
  H     -0.736177   -2.472479   -1.359173
  H      0.865647    0.756972   -1.776256
  H     -0.865645   -0.756971   -1.776256
  H     -0.727887    1.591021   -1.862239
  H      0.727886   -1.591024   -1.862239
  C     -0.218792    2.367120    0.961630
  C      0.218792   -2.367119    0.961630
  H     -0.371501    2.058622    2.003075
  H      0.371500   -2.058623    2.003076
  H      0.654223    3.033599    0.906286
  H     -0.654222   -3.033600    0.906285
  H     -1.110796    2.915991    0.626018
  H      1.110797   -2.915990    0.626019
  H      0.000000    0.000000    1.751206

----------------------------
CARTESIAN COORDINATES (A.U.)
----------------------------
  NO LB      ZA    FRAG     MASS         X           Y           Z
   0 C     6.0000    0    12.011    0.000000    0.000000    1.238655
   1 N     7.0000    0    14.007   -0.014789    2.261774    0.197733
   2 N     7.0000    0    14.007    0.014787   -2.261774    0.197733
   3 C     6.0000    0    12.011    0.413266    2.844969   -2.470970
   4 C     6.0000    0    12.011   -0.413266   -2.844969   -2.470970
   5 H     1.0000    0     1.008    1.391169    4.672310   -2.568465
   6 H     1.0000    0     1.008   -1.391173   -4.672308   -2.568465
   7 H     1.0000    0     1.008    1.635836    1.430470   -3.356637
   8 H     1.0000    0     1.008   -1.635832   -1.430468   -3.356637
   9 H     1.0000    0     1.008   -1.375507    3.006594   -3.519122
  10 H     1.0000    0     1.008    1.375505   -3.006600   -3.519122
  11 C     6.0000    0    12.011   -0.413457    4.473209    1.817217
  12 C     6.0000    0    12.011    0.413457   -4.473207    1.817217
  13 H     1.0000    0     1.008   -0.702035    3.890232    3.785263
  14 H     1.0000    0     1.008    0.702033   -3.890234    3.785265
  15 H     1.0000    0     1.008    1.236302    5.732671    1.712632
  16 H     1.0000    0     1.008   -1.236300   -5.732673    1.712630
  17 H     1.0000    0     1.008   -2.099100    5.510424    1.183003
  18 H     1.0000    0     1.008    2.099102   -5.510423    1.183004
  19 H     1.0000    0     1.008    0.000000    0.000000    3.309300

--------------------------------
INTERNAL COORDINATES (ANGSTROEM)
--------------------------------
 C      0   0   0     0.000000000000     0.00000000     0.00000000
 N      1   0   0     1.317572191245     0.00000000     0.00000000
 N      1   2   0     1.317572185305   130.57492074     0.00000000
 C      2   1   3     1.463184679859   126.45436215   348.80298223
 C      3   1   2     1.463184525048   126.45437548   348.80315595
 H      4   2   1     1.097959599844   107.70259309   213.87131866
 H      5   3   1     1.097959661762   107.70258003   213.87137067
 H      4   2   1     1.094756598063   111.12911009   331.57711911
 H      5   3   1     1.094756099880   111.12906849   331.57714615
 H      4   2   1     1.100441023332   111.69729691    95.12498144
 H      5   3   1     1.100440396320   111.69739270    95.12506199
 C      2   1   3     1.465745328245   118.79503356   170.89293077
 C      3   1   2     1.465744673784   118.79500036   170.89295440
 H     12   2   1     1.096858579175   110.52578835   358.69596406
 H     13   3   1     1.096858826922   110.52592428   358.69612163
 H     12   2   1     1.099732879386   109.88743708   119.27605257
 H     13   3   1     1.099733347945   109.88744336   119.27624482
 H     12   2   1     1.099802675575   109.67993634   239.11823411
 H     13   3   1     1.099803181477   109.67998933   239.11835550
 H      1   2   3     1.095738000000   114.71253957   180.00005725

---------------------------
INTERNAL COORDINATES (A.U.)
---------------------------
 C      0   0   0     0.000000000000     0.00000000     0.00000000
 N      1   0   0     2.489850603123     0.00000000     0.00000000
 N      1   2   0     2.489850591899   130.57492074     0.00000000
 C      2   1   3     2.765018328283   126.45436215   348.80298223
 C      3   1   2     2.765018035733   126.45437548   348.80315595
 H      4   2   1     2.074842949814   107.70259309   213.87131866
 H      5   3   1     2.074843066823   107.70258003   213.87137067
 H      4   2   1     2.068790153642   111.12911009   331.57711911
 H      5   3   1     2.068789212213   111.12906849   331.57714615
 H      4   2   1     2.079532160630   111.69729691    95.12498144
 H      5   3   1     2.079530975749   111.69739270    95.12506199
 C      2   1   3     2.769857252458   118.79503356   170.89293077
 C      3   1   2     2.769856015705   118.79500036   170.89295440
 H     12   2   1     2.072762322283   110.52578835   358.69596406
 H     13   3   1     2.072762790456   110.52592428   358.69612163
 H     12   2   1     2.078193962508   109.88743708   119.27605257
 H     13   3   1     2.078194847956   109.88744336   119.27624482
 H     12   2   1     2.078325858190   109.67993634   239.11823411
 H     13   3   1     2.078326814207   109.67998933   239.11835550
 H      1   2   3     2.070644734531   114.71253957   180.00005725

---------------------
BASIS SET INFORMATION
---------------------
There are 3 groups of distinct atoms

 Group   1 Type C   : 11s6p2d1f contracted to 5s3p2d1f pattern {62111/411/11/1}
 Group   2 Type N   : 11s6p2d1f contracted to 5s3p2d1f pattern {62111/411/11/1}
 Group   3 Type H   : 5s1p contracted to 3s1p pattern {311/1}

Atom   0C    basis set group =>   1
Atom   1N    basis set group =>   2
Atom   2N    basis set group =>   2
Atom   3C    basis set group =>   1
Atom   4C    basis set group =>   1
Atom   5H    basis set group =>   3
Atom   6H    basis set group =>   3
Atom   7H    basis set group =>   3
Atom   8H    basis set group =>   3
Atom   9H    basis set group =>   3
Atom  10H    basis set group =>   3
Atom  11C    basis set group =>   1
Atom  12C    basis set group =>   1
Atom  13H    basis set group =>   3
Atom  14H    basis set group =>   3
Atom  15H    basis set group =>   3
Atom  16H    basis set group =>   3
Atom  17H    basis set group =>   3
Atom  18H    basis set group =>   3
Atom  19H    basis set group =>   3
---------------------------------
AUXILIARY/J BASIS SET INFORMATION
---------------------------------
There are 3 groups of distinct atoms

 Group   1 Type C   : 12s5p4d2f1g contracted to 6s4p3d1f1g pattern {711111/2111/211/2/1}
 Group   2 Type N   : 12s5p4d2f1g contracted to 6s4p3d1f1g pattern {711111/2111/211/2/1}
 Group   3 Type H   : 5s2p1d contracted to 3s1p1d pattern {311/2/1}

Atom   0C    basis set group =>   1
Atom   1N    basis set group =>   2
Atom   2N    basis set group =>   2
Atom   3C    basis set group =>   1
Atom   4C    basis set group =>   1
Atom   5H    basis set group =>   3
Atom   6H    basis set group =>   3
Atom   7H    basis set group =>   3
Atom   8H    basis set group =>   3
Atom   9H    basis set group =>   3
Atom  10H    basis set group =>   3
Atom  11C    basis set group =>   1
Atom  12C    basis set group =>   1
Atom  13H    basis set group =>   3
Atom  14H    basis set group =>   3
Atom  15H    basis set group =>   3
Atom  16H    basis set group =>   3
Atom  17H    basis set group =>   3
Atom  18H    basis set group =>   3
Atom  19H    basis set group =>   3


           ************************************************************
           *        Program running with 4 parallel MPI-processes     *
           *              working on a common directory               *
           ************************************************************
------------------------------------------------------------------------------
                           ORCA GTO INTEGRAL CALCULATION
                           -- RI-GTO INTEGRALS CHOSEN --
------------------------------------------------------------------------------
------------------------------------------------------------------------------
                   ___                                                        
                  /   \      - P O W E R E D   B Y -                         
                 /     \                                                     
                 |  |  |   _    _      __       _____    __    __             
                 |  |  |  | |  | |    /  \     |  _  \  |  |  /  |          
                  \  \/   | |  | |   /    \    | | | |  |  | /  /          
                 / \  \   | |__| |  /  /\  \   | |_| |  |  |/  /          
                |  |  |   |  __  | /  /__\  \  |    /   |      \           
                |  |  |   | |  | | |   __   |  |    \   |  |\   \          
                \     /   | |  | | |  |  |  |  | |\  \  |  | \   \       
                 \___/    |_|  |_| |__|  |__|  |_| \__\ |__|  \__/        
                                                                              
                      - O R C A' S   B I G   F R I E N D -                    
                                      &                                       
                       - I N T E G R A L  F E E D E R -                       
                                                                              
 v1 FN, 2020, v2 2021                                                         
------------------------------------------------------------------------------


Reading SHARK input file 11_prot.SHARKINP.tmp ... ok
----------------------
SHARK INTEGRAL PACKAGE
----------------------

Number of atoms                             ...     20
Number of basis functions                   ...    295
Number of shells                            ...    129
Maximum angular momentum                    ...      3
Integral batch strategy                     ... SHARK/LIBINT Hybrid
RI-J (if used) integral strategy            ... SPLIT-RIJ (Revised 2003 algorithm where possible)
Printlevel                                  ...      1
Contraction scheme used                     ... SEGMENTED contraction
Coulomb Range Separation                    ... NOT USED
Exchange Range Separation                   ... Long Range
   Mu parameter                             ...  0.300000
   Scaling (regular/separated)              ...  0.157706  0.842294
Finite Nucleus Model                        ... NOT USED
Auxiliary Coulomb fitting basis             ... AVAILABLE
   # of basis functions in Aux-J            ...    486
   # of shells in Aux-J                     ...    170
   Maximum angular momentum in Aux-J        ...      4
Auxiliary J/K fitting basis                 ... NOT available
Auxiliary Correlation fitting basis         ... NOT available
Auxiliary 'external' fitting basis          ... NOT available
Integral threshold                          ...     2.500000e-11
Primitive cut-off                           ...     2.500000e-12
Primitive pair pre-selection threshold      ...     2.500000e-12

Calculating pre-screening integrals         ... done (  0.1 sec) Dimension = 129
Organizing shell pair data                  ... done (  0.1 sec)
Shell pair information
Total number of shell pairs                 ...      8385
Shell pairs after pre-screening             ...      7678
Total number of primitive shell pairs       ...     24064
Primitive shell pairs kept                  ...     16787
          la=0 lb=0:   2461 shell pairs
          la=1 lb=0:   2312 shell pairs
          la=1 lb=1:    551 shell pairs
          la=2 lb=0:    976 shell pairs
          la=2 lb=1:    450 shell pairs
          la=2 lb=2:    102 shell pairs
          la=3 lb=0:    476 shell pairs
          la=3 lb=1:    226 shell pairs
          la=3 lb=2:     96 shell pairs
          la=3 lb=3:     28 shell pairs

Calculating one electron integrals          ... done (  0.0 sec)
Calculating RI/J V-Matrix + Cholesky decomp.... done (  0.0 sec)
Calculating Nuclear repulsion               ... done (  0.0 sec) ENN=    332.233412379309 Eh

SHARK setup successfully completed in   0.3 seconds

Maximum memory used throughout the entire GTOINT-calculation: 20.7 MB


           ************************************************************
           *        Program running with 4 parallel MPI-processes     *
           *              working on a common directory               *
           ************************************************************
-------------------------------------------------------------------------------
                                 ORCA SCF
-------------------------------------------------------------------------------

------------
SCF SETTINGS
------------
Hamiltonian:
 Density Functional     Method          .... DFT(GTOs)
 Exchange Functional    Exchange        .... WB97X
 Correlation Functional Correlation     .... WB97X
 Gradients option       PostSCFGGA      .... off
 Hybrid DFT is turned on
   Fraction HF Exchange ScalHFX         ....  0.157706
   Scaling of DF-GGA-X  ScalDFX         ....  0.000000
   Scaling of DF-GGA-C  ScalDFC         ....  1.000000
   Scaling of DF-LDA-C  ScalLDAC        ....  1.000000
   Perturbative correction              ....  0.000000
   Density functional embedding theory  .... OFF
 Long-range corrected/Screened/Range-Separated Hybrid DFT is turned on
   Amount of maximum screened exact exchange              ....  0.842294
   Range separation parameter mu (erf(mu*r12)/r12)        ....  0.300000
 RI-approximation to the Coulomb term is turned on
   Number of AuxJ basis functions       .... 486
   RIJ-COSX (HFX calculated with COS-X)).... on


General Settings:
 Integral files         IntName         .... 11_prot
 Hartree-Fock type      HFTyp           .... RHF
 Total Charge           Charge          ....    1
 Multiplicity           Mult            ....    1
 Number of Electrons    NEL             ....   56
 Basis Dimension        Dim             ....  295
 Nuclear Repulsion      ENuc            ....    332.2334123793 Eh

Convergence Acceleration:
 DIIS                   CNVDIIS         .... on
   Start iteration      DIISMaxIt       ....     0
   Startup error        DIISStart       ....  0.200000
   # of expansion vecs  DIISMaxEq       ....     5
   Bias factor          DIISBfac        ....   1.050
   Max. coefficient     DIISMaxC        ....  10.000
 Trust-Rad. Augm. Hess. CNVTRAH         .... auto
   Auto Start mean grad. ratio tolernc. ....  1.125000
   Auto Start start iteration           ....    20
   Auto Start num. interpolation iter.  ....    10
   Max. Number of Micro iterations      ....    16
   Max. Number of Macro iterations      .... Maxiter - #DIIS iter
   Number of Davidson start vectors     ....     2
   Converg. threshold I  (grad. norm)   ....   1.000e-05
   Converg. threshold II (energy diff.) ....   1.000e-08
   Grad. Scal. Fac. for Micro threshold ....   0.100
   Minimum threshold for Micro iter.    ....   0.010
   NR start threshold (gradient norm)   ....   0.001
   Initial trust radius                 ....   0.400
   Minimum AH scaling param. (alpha)    ....   1.000
   Maximum AH scaling param. (alpha)    .... 1000.000
   Orbital update algorithm             .... Taylor
   White noise on init. David. guess    .... on
   Maximum white noise                  ....   0.010
   Quad. conv. algorithm                .... NR
 SOSCF                  CNVSOSCF        .... on
   Start iteration      SOSCFMaxIt      ....   150
   Startup grad/error   SOSCFStart      ....  0.001000
 Level Shifting         CNVShift        .... on
   Level shift para.    LevelShift      ....    0.2500
   Turn off err/grad.   ShiftErr        ....    0.0000
 Zerner damping         CNVZerner       .... off
 Static damping         CNVDamp         .... on
   Fraction old density DampFac         ....    0.8500
   Max. Damping (<1)    DampMax         ....    0.9800
   Min. Damping (>=0)   DampMin         ....    0.0000
   Turn off err/grad.   DampErr         ....    0.0300
 Fernandez-Rico         CNVRico         .... off

SCF Procedure:
 Maximum # iterations   MaxIter         ....   125
 SCF integral mode      SCFMode         .... Direct
   Integral package                     .... SHARK and LIBINT hybrid scheme
 Reset frequency        DirectResetFreq ....    20
 Integral Threshold     Thresh          ....  2.500e-11 Eh
 Primitive CutOff       TCut            ....  2.500e-12 Eh

Convergence Tolerance:
 Convergence Check Mode ConvCheckMode   .... Total+1el-Energy
 Convergence forced     ConvForced      .... 0
 Energy Change          TolE            ....  1.000e-08 Eh
 1-El. energy change                    ....  1.000e-05 Eh
 Orbital Gradient       TolG            ....  1.000e-05
 Orbital Rotation angle TolX            ....  1.000e-05
 DIIS Error             TolErr          ....  5.000e-07


Diagonalization of the overlap matrix:
Smallest eigenvalue                        ... 3.355e-04
Time for diagonalization                   ...    0.014 sec
Threshold for overlap eigenvalues          ... 1.000e-08
Number of eigenvalues below threshold      ... 0
Time for construction of square roots      ...    0.007 sec
Total time needed                          ...    0.022 sec

Time for model grid setup =    0.117 sec

------------------------------
INITIAL GUESS: MODEL POTENTIAL
------------------------------
Loading Hartree-Fock densities                     ... done
Calculating cut-offs                               ... done
Initializing the effective Hamiltonian             ... done
Setting up the integral package (SHARK)            ... done
Starting the Coulomb interaction                   ... done (   0.2 sec)
Reading the grid                                   ... done
Mapping shells                                     ... done
Starting the XC term evaluation                    ... done (   0.2 sec)
  promolecular density results
     # of electrons  =     56.989209362
     EX              =    -42.521790218
     EC              =     -1.868555653
     EX+EC           =    -44.390345871
Transforming the Hamiltonian                       ... done (   0.0 sec)
Diagonalizing the Hamiltonian                      ... done (   0.0 sec)
Back transforming the eigenvectors                 ... done (   0.0 sec)
Now organizing SCF variables                       ... done
                      ------------------
                      INITIAL GUESS DONE (   0.5 sec)
                      ------------------
-------------------
DFT GRID GENERATION
-------------------

General Integration Accuracy     IntAcc      ... 4.388
Radial Grid Type                 RadialGrid  ... OptM3 with GC (2021)
Angular Grid (max. ang.)         AngularGrid ... 4 (Lebedev-302)
Angular grid pruning method      GridPruning ... 4 (adaptive)
Weight generation scheme         WeightScheme... Becke
Basis function cutoff            BFCut       ... 1.0000e-11
Integration weight cutoff        WCut        ... 1.0000e-14
Angular grids for H and He will be reduced by one unit
Partially contracted basis set               ... off
Rotationally invariant grid construction     ... off

Total number of grid points                  ...    83821
Total number of batches                      ...     1320
Average number of points per batch           ...       63
Average number of grid points per atom       ...     4191
Time for grid setup =    0.705 sec

--------------------
COSX GRID GENERATION
--------------------

GRIDX 1
-------
General Integration Accuracy     IntAcc      ... 3.816
Radial Grid Type                 RadialGrid  ... OptM3 with GC (2021)
Angular Grid (max. ang.)         AngularGrid ... 1 (Lebedev-50)
Angular grid pruning method      GridPruning ... 4 (adaptive)
Weight generation scheme         WeightScheme... Becke
Basis function cutoff            BFCut       ... 1.0000e-11
Integration weight cutoff        WCut        ... 1.0000e-14
Angular grids for H and He will be reduced by one unit
Partially contracted basis set               ... on
Rotationally invariant grid construction     ... off

Total number of grid points                  ...    10794
Total number of batches                      ...      183
Average number of points per batch           ...       58
Average number of grid points per atom       ...      540
UseSFitting                                  ... on

GRIDX 2
-------
General Integration Accuracy     IntAcc      ... 4.020
Radial Grid Type                 RadialGrid  ... OptM3 with GC (2021)
Angular Grid (max. ang.)         AngularGrid ... 2 (Lebedev-110)
Angular grid pruning method      GridPruning ... 4 (adaptive)
Weight generation scheme         WeightScheme... Becke
Basis function cutoff            BFCut       ... 1.0000e-11
Integration weight cutoff        WCut        ... 1.0000e-14
Angular grids for H and He will be reduced by one unit
Partially contracted basis set               ... on
Rotationally invariant grid construction     ... off

Total number of grid points                  ...    22353
Total number of batches                      ...      358
Average number of points per batch           ...       62
Average number of grid points per atom       ...     1118
UseSFitting                                  ... on

GRIDX 3
-------
General Integration Accuracy     IntAcc      ... 4.338
Radial Grid Type                 RadialGrid  ... OptM3 with GC (2021)
Angular Grid (max. ang.)         AngularGrid ... 3 (Lebedev-194)
Angular grid pruning method      GridPruning ... 4 (adaptive)
Weight generation scheme         WeightScheme... Becke
Basis function cutoff            BFCut       ... 1.0000e-11
Integration weight cutoff        WCut        ... 1.0000e-14
Angular grids for H and He will be reduced by one unit
Partially contracted basis set               ... on
Rotationally invariant grid construction     ... off

Total number of grid points                  ...    48792
Total number of batches                      ...      771
Average number of points per batch           ...       63
Average number of grid points per atom       ...     2440
UseSFitting                                  ... on

Time for X-Grid setup             =    0.764 sec

--------------
SCF ITERATIONS
--------------
ITER       Energy         Delta-E        Max-DP      RMS-DP      [F,P]     Damp
               ***  Starting incremental Fock matrix formation  ***
  0   -307.5352901660   0.000000000000 0.01140678  0.00028062  0.1225232 0.8500
  1   -307.5607870259  -0.025496859894 0.00989641  0.00027703  0.0987264 0.8500
                               ***Turning on DIIS***
  2   -307.5799687480  -0.019181722136 0.00761802  0.00023081  0.0759676 0.8500
  3   -307.5941842748  -0.014215526817 0.00550272  0.00017683  0.0578121 0.8500
  4   -307.6051603195  -0.010976044719 0.00461762  0.00014268  0.0462165 0.8500
  5   -307.6138105099  -0.008650190352 0.00395538  0.00012025  0.0383799 0.8500
  6   -307.6208534056  -0.007042895707 0.00341621  0.00010299  0.0324173 0.8500
  7   -307.6266924586  -0.005839053012 0.01978051  0.00059442  0.0275521 0.0000
  8   -307.6579095428  -0.031217084161 0.00060354  0.00001844  0.0010201 0.0000
                      *** Initiating the SOSCF procedure ***
                           *** Shutting down DIIS ***
                      *** Re-Reading the Fockian *** 
                      *** Removing any level shift *** 
ITER      Energy       Delta-E        Grad      Rot      Max-DP    RMS-DP
  9   -307.65791958  -0.0000100416  0.000222  0.000222  0.000322  0.000008
               *** Restarting incremental Fock matrix formation ***
 10   -307.65792198  -0.0000023982  0.000210  0.000400  0.000189  0.000006
 11   -307.65792239  -0.0000004029  0.000073  0.000129  0.000099  0.000003
 12   -307.65792249  -0.0000001036  0.000026  0.000028  0.000027  0.000001
 13   -307.65792250  -0.0000000135  0.000003  0.000003  0.000005  0.000000
                  ***Gradient check signals convergence***
              ***Rediagonalizing the Fockian in SOSCF/NRSCF***

               *****************************************************
               *                     SUCCESS                       *
               *           SCF CONVERGED AFTER  14 CYCLES          *
               *****************************************************

Old exchange energy                            =    -14.235854829 Eh
New exchange energy                            =    -14.235858673 Eh
Exchange energy change after final integration =     -0.000003844 Eh
Total energy after final integration           =   -307.657926346 Eh
Final COS-X integration done in                =    16.091 sec

----------------
TOTAL SCF ENERGY
----------------

Total Energy       :         -307.65792635 Eh           -8371.79779 eV

Components:
Nuclear Repulsion  :          332.23341238 Eh            9040.53076 eV
Electronic Energy  :         -639.89133873 Eh          -17412.32855 eV
One Electron Energy:        -1061.32553676 Eh          -28880.13609 eV
Two Electron Energy:          421.43419803 Eh           11467.80754 eV
Max COSX asymmetry :            0.00000074 Eh               0.00002 eV

Virial components:
Potential Energy   :         -613.71204585 Eh          -16699.95378 eV
Kinetic Energy     :          306.05411951 Eh            8328.15599 eV
Virial Ratio       :            2.00524027


DFT components:
N(Alpha)           :       27.999936011114 electrons
N(Beta)            :       27.999936011114 electrons
N(Total)           :       55.999872022228 electrons
E(XC)              :      -31.293308930527 Eh       
DFET-embed. en.    :        0.000000000000 Eh       

---------------
SCF CONVERGENCE
---------------

  Last Energy change         ...    5.0511e-10  Tolerance :   1.0000e-08
  Last MAX-Density change    ...    8.8818e-16  Tolerance :   1.0000e-07
  Last RMS-Density change    ...    1.3914e-17  Tolerance :   5.0000e-09
  Last Orbital Gradient      ...    1.0273e-06  Tolerance :   1.0000e-05
  Last Orbital Rotation      ...    3.6682e-06  Tolerance :   1.0000e-05

             **** THE GBW FILE WAS UPDATED (11_prot.gbw) ****
             **** DENSITY 11_prot.scfp WAS UPDATED ****
             **** ENERGY FILE WAS UPDATED (11_prot.en.tmp) ****
             **** THE GBW FILE WAS UPDATED (11_prot.gbw) ****
             **** DENSITY 11_prot.scfp WAS UPDATED ****
----------------
ORBITAL ENERGIES
----------------

  NO   OCC          E(Eh)            E(eV) 
   0   2.0000     -14.631314      -398.1383 
   1   2.0000     -14.631296      -398.1378 
   2   2.0000     -10.542991      -286.8894 
   3   2.0000     -10.457638      -284.5668 
   4   2.0000     -10.457638      -284.5668 
   5   2.0000     -10.454053      -284.4693 
   6   2.0000     -10.454052      -284.4692 
   7   2.0000      -1.317552       -35.8524 
   8   2.0000      -1.253287       -34.1037 
   9   2.0000      -1.059298       -28.8250 
  10   2.0000      -1.032942       -28.1078 
  11   2.0000      -1.017724       -27.6937 
  12   2.0000      -0.967685       -26.3320 
  13   2.0000      -0.872058       -23.7299 
  14   2.0000      -0.812232       -22.1020 
  15   2.0000      -0.807896       -21.9840 
  16   2.0000      -0.783187       -21.3116 
  17   2.0000      -0.744962       -20.2715 
  18   2.0000      -0.732431       -19.9305 
  19   2.0000      -0.706172       -19.2159 
  20   2.0000      -0.689006       -18.7488 
  21   2.0000      -0.683248       -18.5921 
  22   2.0000      -0.672659       -18.3040 
  23   2.0000      -0.672567       -18.3015 
  24   2.0000      -0.663536       -18.0557 
  25   2.0000      -0.641180       -17.4474 
  26   2.0000      -0.627166       -17.0660 
  27   2.0000      -0.514369       -13.9967 
  28   0.0000      -0.102729        -2.7954 
  29   0.0000      -0.042867        -1.1665 
  30   0.0000      -0.011844        -0.3223 
  31   0.0000      -0.005046        -0.1373 
  32   0.0000       0.013412         0.3650 
  33   0.0000       0.018269         0.4971 
  34   0.0000       0.021982         0.5982 
  35   0.0000       0.038628         1.0511 
  36   0.0000       0.041633         1.1329 
  37   0.0000       0.051891         1.4120 
  38   0.0000       0.057031         1.5519 
  39   0.0000       0.063186         1.7194 
  40   0.0000       0.067236         1.8296 
  41   0.0000       0.078670         2.1407 
  42   0.0000       0.083897         2.2829 
  43   0.0000       0.090139         2.4528 
  44   0.0000       0.111587         3.0364 
  45   0.0000       0.113012         3.0752 
  46   0.0000       0.130175         3.5423 
  47   0.0000       0.132387         3.6024 
  48   0.0000       0.158728         4.3192 
  49   0.0000       0.168856         4.5948 
  50   0.0000       0.187123         5.0919 
  51   0.0000       0.192108         5.2275 
  52   0.0000       0.192168         5.2292 
  53   0.0000       0.202048         5.4980 
  54   0.0000       0.233898         6.3647 
  55   0.0000       0.242718         6.6047 
  56   0.0000       0.246216         6.6999 
  57   0.0000       0.260283         7.0826 
  58   0.0000       0.275076         7.4852 
  59   0.0000       0.300807         8.1854 
  60   0.0000       0.302953         8.2438 
  61   0.0000       0.307677         8.3723 
  62   0.0000       0.332400         9.0451 
  63   0.0000       0.345076         9.3900 
  64   0.0000       0.351010         9.5515 
  65   0.0000       0.362615         9.8673 
  66   0.0000       0.377242        10.2653 
  67   0.0000       0.383857        10.4453 
  68   0.0000       0.400629        10.9017 
  69   0.0000       0.411599        11.2002 
  70   0.0000       0.413709        11.2576 
  71   0.0000       0.415181        11.2977 
  72   0.0000       0.417542        11.3619 
  73   0.0000       0.431091        11.7306 
  74   0.0000       0.441084        12.0025 
  75   0.0000       0.451100        12.2751 
  76   0.0000       0.463785        12.6202 
  77   0.0000       0.465469        12.6660 
  78   0.0000       0.470902        12.8139 
  79   0.0000       0.480345        13.0708 
  80   0.0000       0.489102        13.3091 
  81   0.0000       0.494300        13.4506 
  82   0.0000       0.520619        14.1668 
  83   0.0000       0.540450        14.7064 
  84   0.0000       0.549502        14.9527 
  85   0.0000       0.589137        16.0312 
  86   0.0000       0.590679        16.0732 
  87   0.0000       0.603964        16.4347 
  88   0.0000       0.642384        17.4802 
  89   0.0000       0.657161        17.8823 
  90   0.0000       0.677075        18.4241 
  91   0.0000       0.692589        18.8463 
  92   0.0000       0.747721        20.3465 
  93   0.0000       0.758399        20.6371 
  94   0.0000       0.784856        21.3570 
  95   0.0000       0.810778        22.0624 
  96   0.0000       0.811060        22.0701 
  97   0.0000       0.824450        22.4344 
  98   0.0000       0.849693        23.1213 
  99   0.0000       0.895528        24.3685 
 100   0.0000       0.903088        24.5743 
 101   0.0000       0.945911        25.7395 
 102   0.0000       0.965301        26.2672 
 103   0.0000       0.971991        26.4492 
 104   0.0000       0.972497        26.4630 
 105   0.0000       0.988810        26.9069 
 106   0.0000       0.994246        27.0548 
 107   0.0000       1.001648        27.2562 
 108   0.0000       1.024884        27.8885 
 109   0.0000       1.036672        28.2093 
 110   0.0000       1.047683        28.5089 
 111   0.0000       1.082637        29.4600 
 112   0.0000       1.184067        32.2201 
 113   0.0000       1.186122        32.2760 
 114   0.0000       1.280098        34.8332 
 115   0.0000       1.295846        35.2618 
 116   0.0000       1.329411        36.1751 
 117   0.0000       1.332647        36.2632 
 118   0.0000       1.360267        37.0147 
 119   0.0000       1.397222        38.0203 
 120   0.0000       1.426622        38.8204 
 121   0.0000       1.437463        39.1154 
 122   0.0000       1.439476        39.1701 
 123   0.0000       1.440017        39.1849 
 124   0.0000       1.449873        39.4531 
 125   0.0000       1.472343        40.0645 
 126   0.0000       1.480036        40.2738 
 127   0.0000       1.480974        40.2994 
 128   0.0000       1.493879        40.6505 
 129   0.0000       1.494742        40.6740 
 130   0.0000       1.500553        40.8321 
 131   0.0000       1.513612        41.1875 
 132   0.0000       1.526074        41.5266 
 133   0.0000       1.539406        41.8894 
 134   0.0000       1.542571        41.9755 
 135   0.0000       1.559907        42.4472 
 136   0.0000       1.566379        42.6233 
 137   0.0000       1.586870        43.1809 
 138   0.0000       1.603224        43.6260 
 139   0.0000       1.604320        43.6558 
 140   0.0000       1.615857        43.9697 
 141   0.0000       1.670562        45.4583 
 142   0.0000       1.709311        46.5127 
 143   0.0000       1.760144        47.8959 
 144   0.0000       1.771380        48.2017 
 145   0.0000       1.818048        49.4716 
 146   0.0000       1.823270        49.6137 
 147   0.0000       1.829992        49.7966 
 148   0.0000       1.862685        50.6862 
 149   0.0000       1.863888        50.7190 
 150   0.0000       1.908437        51.9312 
 151   0.0000       1.921012        52.2734 
 152   0.0000       1.939521        52.7770 
 153   0.0000       1.954657        53.1889 
 154   0.0000       1.958517        53.2939 
 155   0.0000       2.030241        55.2457 
 156   0.0000       2.030922        55.2642 
 157   0.0000       2.042381        55.5760 
 158   0.0000       2.057007        55.9740 
 159   0.0000       2.110434        57.4278 
 160   0.0000       2.126805        57.8733 
 161   0.0000       2.130448        57.9724 
 162   0.0000       2.171741        59.0961 
 163   0.0000       2.183745        59.4227 
 164   0.0000       2.193009        59.6748 
 165   0.0000       2.242662        61.0259 
 166   0.0000       2.249062        61.2001 
 167   0.0000       2.261056        61.5265 
 168   0.0000       2.264619        61.6234 
 169   0.0000       2.267331        61.6972 
 170   0.0000       2.282265        62.1036 
 171   0.0000       2.293285        62.4034 
 172   0.0000       2.311177        62.8903 
 173   0.0000       2.312796        62.9344 
 174   0.0000       2.339110        63.6504 
 175   0.0000       2.364984        64.3545 
 176   0.0000       2.388006        64.9809 
 177   0.0000       2.394973        65.1705 
 178   0.0000       2.413226        65.6672 
 179   0.0000       2.444560        66.5198 
 180   0.0000       2.454393        66.7874 
 181   0.0000       2.464189        67.0540 
 182   0.0000       2.492349        67.8203 
 183   0.0000       2.501228        68.0619 
 184   0.0000       2.509321        68.2821 
 185   0.0000       2.532626        68.9163 
 186   0.0000       2.536134        69.0117 
 187   0.0000       2.543932        69.2239 
 188   0.0000       2.568605        69.8953 
 189   0.0000       2.590840        70.5003 
 190   0.0000       2.591313        70.5132 
 191   0.0000       2.615116        71.1609 
 192   0.0000       2.643971        71.9461 
 193   0.0000       2.662639        72.4541 
 194   0.0000       2.704367        73.5896 
 195   0.0000       2.718834        73.9832 
 196   0.0000       2.761398        75.1415 
 197   0.0000       2.790142        75.9236 
 198   0.0000       2.843690        77.3807 
 199   0.0000       2.896035        78.8051 
 200   0.0000       2.927471        79.6605 
 201   0.0000       2.933241        79.8175 
 202   0.0000       2.945937        80.1630 
 203   0.0000       2.955109        80.4126 
 204   0.0000       2.990807        81.3840 
 205   0.0000       3.009618        81.8959 
 206   0.0000       3.045098        82.8613 
 207   0.0000       3.053266        83.0836 
 208   0.0000       3.060095        83.2694 
 209   0.0000       3.078628        83.7737 
 210   0.0000       3.097496        84.2872 
 211   0.0000       3.123543        84.9959 
 212   0.0000       3.136850        85.3580 
 213   0.0000       3.138362        85.3992 
 214   0.0000       3.152043        85.7715 
 215   0.0000       3.165919        86.1490 
 216   0.0000       3.184466        86.6537 
 217   0.0000       3.194777        86.9343 
 218   0.0000       3.229957        87.8916 
 219   0.0000       3.247874        88.3791 
 220   0.0000       3.269941        88.9796 
 221   0.0000       3.273264        89.0700 
 222   0.0000       3.286733        89.4366 
 223   0.0000       3.295318        89.6702 
 224   0.0000       3.309185        90.0475 
 225   0.0000       3.329944        90.6124 
 226   0.0000       3.332793        90.6899 
 227   0.0000       3.337597        90.8206 
 228   0.0000       3.385264        92.1177 
 229   0.0000       3.437318        93.5342 
 230   0.0000       3.449541        93.8668 
 231   0.0000       3.483392        94.7879 
 232   0.0000       3.492212        95.0279 
 233   0.0000       3.496056        95.1325 
 234   0.0000       3.507465        95.4430 
 235   0.0000       3.508241        95.4641 
 236   0.0000       3.542232        96.3890 
 237   0.0000       3.588799        97.6562 
 238   0.0000       3.605271        98.1044 
 239   0.0000       3.630935        98.8028 
 240   0.0000       3.639464        99.0349 
 241   0.0000       3.706836       100.8681 
 242   0.0000       3.718218       101.1779 
 243   0.0000       3.785512       103.0090 
 244   0.0000       3.792654       103.2034 
 245   0.0000       3.861649       105.0808 
 246   0.0000       3.925476       106.8176 
 247   0.0000       3.930424       106.9523 
 248   0.0000       3.997869       108.7876 
 249   0.0000       4.002690       108.9187 
 250   0.0000       4.045447       110.0822 
 251   0.0000       4.085763       111.1793 
 252   0.0000       4.105609       111.7193 
 253   0.0000       4.167072       113.3918 
 254   0.0000       4.178638       113.7065 
 255   0.0000       4.211809       114.6092 
 256   0.0000       4.244444       115.4972 
 257   0.0000       4.284106       116.5765 
 258   0.0000       4.310832       117.3037 
 259   0.0000       4.330363       117.8352 
 260   0.0000       4.359314       118.6230 
 261   0.0000       4.382686       119.2590 
 262   0.0000       4.451426       121.1295 
 263   0.0000       4.497815       122.3918 
 264   0.0000       4.715455       128.3140 
 265   0.0000       4.745604       129.1345 
 266   0.0000       4.805471       130.7635 
 267   0.0000       4.850381       131.9856 
 268   0.0000       4.953784       134.7993 
 269   0.0000       4.978205       135.4639 
 270   0.0000       5.018045       136.5480 
 271   0.0000       5.027979       136.8183 
 272   0.0000       5.050336       137.4266 
 273   0.0000       5.052291       137.4798 
 274   0.0000       5.091815       138.5553 
 275   0.0000       5.165100       140.5495 
 276   0.0000       5.233574       142.4128 
 277   0.0000       5.245112       142.7267 
 278   0.0000       5.262999       143.2135 
 279   0.0000       5.318712       144.7295 
 280   0.0000       5.397230       146.8661 
 281   0.0000       5.499569       149.6509 
 282   0.0000       5.655417       153.8917 
 283   0.0000       5.664351       154.1348 
 284   0.0000       5.720226       155.6552 
 285   0.0000       5.810753       158.1186 
 286   0.0000       5.850751       159.2070 
 287   0.0000       6.138096       167.0261 
 288   0.0000      22.231585       604.9522 
 289   0.0000      22.237927       605.1248 
 290   0.0000      22.298282       606.7671 
 291   0.0000      22.331164       607.6619 
 292   0.0000      23.006827       626.0476 
 293   0.0000      32.541656       885.5035 
 294   0.0000      32.643697       888.2801 

                    ********************************
                    * MULLIKEN POPULATION ANALYSIS *
                    ********************************

-----------------------
MULLIKEN ATOMIC CHARGES
-----------------------
   0 C :    0.155321
   1 N :   -0.079669
   2 N :   -0.079669
   3 C :   -0.353304
   4 C :   -0.353304
   5 H :    0.176834
   6 H :    0.176835
   7 H :    0.173512
   8 H :    0.173513
   9 H :    0.196531
  10 H :    0.196531
  11 C :   -0.277256
  12 C :   -0.277262
  13 H :    0.143330
  14 H :    0.143328
  15 H :    0.176784
  16 H :    0.176784
  17 H :    0.178083
  18 H :    0.178084
  19 H :    0.174994
Sum of atomic charges:    1.0000000

--------------------------------
MULLIKEN REDUCED ORBITAL CHARGES
--------------------------------
  0 C s       :     3.058644  s :     3.058644
      pz      :     1.001201  p :     2.601201
      px      :     0.803224
      py      :     0.796777
      dz2     :     0.032825  d :     0.169032
      dxz     :     0.006696
      dyz     :     0.037688
      dx2y2   :     0.013784
      dxy     :     0.078040
      f0      :     0.001001  f :     0.015802
      f+1     :     0.000018
      f-1     :     0.003692
      f+2     :     0.002155
      f-2     :     0.002733
      f+3     :     0.004095
      f-3     :     0.002106
  1 N s       :     3.416132  s :     3.416132
      pz      :     1.066184  p :     3.577437
      px      :     1.460795
      py      :     1.050458
      dz2     :     0.018556  d :     0.081007
      dxz     :     0.011438
      dyz     :     0.025756
      dx2y2   :     0.009276
      dxy     :     0.015982
      f0      :     0.000665  f :     0.005093
      f+1     :     0.000478
      f-1     :     0.001177
      f+2     :     0.000746
      f-2     :     0.000506
      f+3     :     0.000851
      f-3     :     0.000670
  2 N s       :     3.416136  s :     3.416136
      pz      :     1.066183  p :     3.577432
      px      :     1.460794
      py      :     1.050455
      dz2     :     0.018556  d :     0.081007
      dxz     :     0.011438
      dyz     :     0.025756
      dx2y2   :     0.009275
      dxy     :     0.015983
      f0      :     0.000665  f :     0.005093
      f+1     :     0.000478
      f-1     :     0.001177
      f+2     :     0.000746
      f-2     :     0.000507
      f+3     :     0.000851
      f-3     :     0.000670
  3 C s       :     3.333183  s :     3.333183
      pz      :     0.739507  p :     2.951811
      px      :     1.100916
      py      :     1.111389
      dz2     :     0.014375  d :     0.063353
      dxz     :     0.022174
      dyz     :     0.012041
      dx2y2   :     0.004509
      dxy     :     0.010255
      f0      :     0.001618  f :     0.004957
      f+1     :     0.001426
      f-1     :     0.001097
      f+2     :     0.000121
      f-2     :     0.000265
      f+3     :     0.000454
      f-3     :    -0.000025
  4 C s       :     3.333177  s :     3.333177
      pz      :     0.739508  p :     2.951817
      px      :     1.100917
      py      :     1.111392
      dz2     :     0.014375  d :     0.063354
      dxz     :     0.022174
      dyz     :     0.012041
      dx2y2   :     0.004509
      dxy     :     0.010254
      f0      :     0.001618  f :     0.004957
      f+1     :     0.001426
      f-1     :     0.001097
      f+2     :     0.000121
      f-2     :     0.000265
      f+3     :     0.000454
      f-3     :    -0.000025
  5 H s       :     0.800711  s :     0.800711
      pz      :     0.003238  p :     0.022455
      px      :     0.006561
      py      :     0.012656
  6 H s       :     0.800710  s :     0.800710
      pz      :     0.003237  p :     0.022455
      px      :     0.006561
      py      :     0.012656
  7 H s       :     0.804241  s :     0.804241
      pz      :     0.005754  p :     0.022246
      px      :     0.007814
      py      :     0.008679
  8 H s       :     0.804241  s :     0.804241
      pz      :     0.005754  p :     0.022246
      px      :     0.007814
      py      :     0.008679
  9 H s       :     0.781698  s :     0.781698
      pz      :     0.006254  p :     0.021771
      px      :     0.011411
      py      :     0.004105
 10 H s       :     0.781699  s :     0.781699
      pz      :     0.006254  p :     0.021771
      px      :     0.011411
      py      :     0.004105
 11 C s       :     3.311142  s :     3.311142
      pz      :     0.955062  p :     2.897418
      px      :     1.096303
      py      :     0.846053
      dz2     :     0.012629  d :     0.063638
      dxz     :     0.006464
      dyz     :     0.012016
      dx2y2   :     0.007386
      dxy     :     0.025142
      f0      :     0.000612  f :     0.005057
      f+1     :    -0.000034
      f-1     :     0.001280
      f+2     :     0.000608
      f-2     :     0.001037
      f+3     :     0.000688
      f-3     :     0.000866
 12 C s       :     3.311151  s :     3.311151
      pz      :     0.955064  p :     2.897418
      px      :     1.096304
      py      :     0.846049
      dz2     :     0.012628  d :     0.063637
      dxz     :     0.006464
      dyz     :     0.012017
      dx2y2   :     0.007386
      dxy     :     0.025142
      f0      :     0.000612  f :     0.005057
      f+1     :    -0.000034
      f-1     :     0.001280
      f+2     :     0.000608
      f-2     :     0.001037
      f+3     :     0.000688
      f-3     :     0.000866
 13 H s       :     0.834142  s :     0.834142
      pz      :     0.014519  p :     0.022528
      px      :     0.004471
      py      :     0.003538
 14 H s       :     0.834144  s :     0.834144
      pz      :     0.014519  p :     0.022528
      px      :     0.004471
      py      :     0.003538
 15 H s       :     0.801319  s :     0.801319
      pz      :     0.003485  p :     0.021897
      px      :     0.010390
      py      :     0.008022
 16 H s       :     0.801319  s :     0.801319
      pz      :     0.003485  p :     0.021897
      px      :     0.010390
      py      :     0.008022
 17 H s       :     0.800136  s :     0.800136
      pz      :     0.004175  p :     0.021781
      px      :     0.011066
      py      :     0.006540
 18 H s       :     0.800135  s :     0.800135
      pz      :     0.004175  p :     0.021781
      px      :     0.011066
      py      :     0.006540
 19 H s       :     0.801676  s :     0.801676
      pz      :     0.017528  p :     0.023330
      px      :     0.003037
      py      :     0.002765


                     *******************************
                     * LOEWDIN POPULATION ANALYSIS *
                     *******************************

----------------------
LOEWDIN ATOMIC CHARGES
----------------------
   0 C :   -0.172102
   1 N :    0.182638
   2 N :    0.182638
   3 C :   -0.251684
   4 C :   -0.251684
   5 H :    0.140994
   6 H :    0.140994
   7 H :    0.133740
   8 H :    0.133740
   9 H :    0.133936
  10 H :    0.133936
  11 C :   -0.242196
  12 C :   -0.242197
  13 H :    0.132554
  14 H :    0.132554
  15 H :    0.134501
  16 H :    0.134501
  17 H :    0.136786
  18 H :    0.136786
  19 H :    0.169566

-------------------------------
LOEWDIN REDUCED ORBITAL CHARGES
-------------------------------
  0 C s       :     2.759514  s :     2.759514
      pz      :     0.995219  p :     2.716257
      px      :     0.780196
      py      :     0.940843
      dz2     :     0.139646  d :     0.614301
      dxz     :     0.014273
      dyz     :     0.144785
      dx2y2   :     0.110917
      dxy     :     0.204681
      f0      :     0.006327  f :     0.082030
      f+1     :     0.000074
      f-1     :     0.022132
      f+2     :     0.012246
      f-2     :     0.017878
      f+3     :     0.011519
      f-3     :     0.011854
  1 N s       :     2.879361  s :     2.879361
      pz      :     1.164518  p :     3.612936
      px      :     1.285804
      py      :     1.162614
      dz2     :     0.075547  d :     0.304160
      dxz     :     0.038342
      dyz     :     0.105318
      dx2y2   :     0.038055
      dxy     :     0.046897
      f0      :     0.002397  f :     0.020905
      f+1     :     0.002040
      f-1     :     0.006529
      f+2     :     0.002924
      f-2     :     0.002418
      f+3     :     0.002163
      f-3     :     0.002433
  2 N s       :     2.879361  s :     2.879361
      pz      :     1.164518  p :     3.612936
      px      :     1.285803
      py      :     1.162614
      dz2     :     0.075548  d :     0.304160
      dxz     :     0.038342
      dyz     :     0.105318
      dx2y2   :     0.038055
      dxy     :     0.046898
      f0      :     0.002397  f :     0.020905
      f+1     :     0.002040
      f-1     :     0.006529
      f+2     :     0.002924
      f-2     :     0.002418
      f+3     :     0.002163
      f-3     :     0.002433
  3 C s       :     2.837934  s :     2.837934
      pz      :     0.880308  p :     3.074193
      px      :     1.100705
      py      :     1.093180
      dz2     :     0.084851  d :     0.301899
      dxz     :     0.097769
      dyz     :     0.055204
      dx2y2   :     0.023058
      dxy     :     0.041017
      f0      :     0.010720  f :     0.037659
      f+1     :     0.008274
      f-1     :     0.008524
      f+2     :     0.003874
      f-2     :     0.002989
      f+3     :     0.002643
      f-3     :     0.000635
  4 C s       :     2.837933  s :     2.837933
      pz      :     0.880308  p :     3.074193
      px      :     1.100705
      py      :     1.093180
      dz2     :     0.084851  d :     0.301899
      dxz     :     0.097769
      dyz     :     0.055204
      dx2y2   :     0.023058
      dxy     :     0.041017
      f0      :     0.010720  f :     0.037659
      f+1     :     0.008274
      f-1     :     0.008524
      f+2     :     0.003874
      f-2     :     0.002989
      f+3     :     0.002643
      f-3     :     0.000635
  5 H s       :     0.797599  s :     0.797599
      pz      :     0.008842  p :     0.061406
      px      :     0.019010
      py      :     0.033554
  6 H s       :     0.797599  s :     0.797599
      pz      :     0.008842  p :     0.061406
      px      :     0.019010
      py      :     0.033554
  7 H s       :     0.803841  s :     0.803841
      pz      :     0.014801  p :     0.062419
      px      :     0.022589
      py      :     0.025029
  8 H s       :     0.803841  s :     0.803841
      pz      :     0.014801  p :     0.062419
      px      :     0.022589
      py      :     0.025029
  9 H s       :     0.804700  s :     0.804700
      pz      :     0.016562  p :     0.061365
      px      :     0.031666
      py      :     0.013137
 10 H s       :     0.804700  s :     0.804700
      pz      :     0.016562  p :     0.061365
      px      :     0.031666
      py      :     0.013137
 11 C s       :     2.839717  s :     2.839717
      pz      :     1.014671  p :     3.061831
      px      :     1.104929
      py      :     0.942231
      dz2     :     0.074598  d :     0.303019
      dxz     :     0.022775
      dyz     :     0.064805
      dx2y2   :     0.036298
      dxy     :     0.104543
      f0      :     0.003309  f :     0.037629
      f+1     :     0.002175
      f-1     :     0.007931
      f+2     :     0.007754
      f-2     :     0.007261
      f+3     :     0.003709
      f-3     :     0.005490
 12 C s       :     2.839717  s :     2.839717
      pz      :     1.014671  p :     3.061831
      px      :     1.104929
      py      :     0.942231
      dz2     :     0.074598  d :     0.303019
      dxz     :     0.022774
      dyz     :     0.064805
      dx2y2   :     0.036298
      dxy     :     0.104544
      f0      :     0.003309  f :     0.037629
      f+1     :     0.002175
      f-1     :     0.007931
      f+2     :     0.007754
      f-2     :     0.007261
      f+3     :     0.003709
      f-3     :     0.005490
 13 H s       :     0.806388  s :     0.806388
      pz      :     0.035972  p :     0.061058
      px      :     0.013776
      py      :     0.011309
 14 H s       :     0.806388  s :     0.806388
      pz      :     0.035973  p :     0.061058
      px      :     0.013776
      py      :     0.011309
 15 H s       :     0.804393  s :     0.804393
      pz      :     0.011167  p :     0.061106
      px      :     0.029242
      py      :     0.020697
 16 H s       :     0.804393  s :     0.804393
      pz      :     0.011167  p :     0.061106
      px      :     0.029242
      py      :     0.020697
 17 H s       :     0.801930  s :     0.801930
      pz      :     0.013406  p :     0.061285
      px      :     0.030537
      py      :     0.017341
 18 H s       :     0.801930  s :     0.801930
      pz      :     0.013406  p :     0.061285
      px      :     0.030537
      py      :     0.017341
 19 H s       :     0.772034  s :     0.772034
      pz      :     0.041705  p :     0.058401
      px      :     0.009609
      py      :     0.007087


                      *****************************
                      * MAYER POPULATION ANALYSIS *
                      *****************************

  NA   - Mulliken gross atomic population
  ZA   - Total nuclear charge
  QA   - Mulliken gross atomic charge
  VA   - Mayer's total valence
  BVA  - Mayer's bonded valence
  FA   - Mayer's free valence

  ATOM       NA         ZA         QA         VA         BVA        FA
  0 C      5.8447     6.0000     0.1553     4.0474     4.0474     0.0000
  1 N      7.0797     7.0000    -0.0797     3.2725     3.2725     0.0000
  2 N      7.0797     7.0000    -0.0797     3.2725     3.2725     0.0000
  3 C      6.3533     6.0000    -0.3533     3.8036     3.8036    -0.0000
  4 C      6.3533     6.0000    -0.3533     3.8036     3.8036    -0.0000
  5 H      0.8232     1.0000     0.1768     0.9647     0.9647     0.0000
  6 H      0.8232     1.0000     0.1768     0.9647     0.9647     0.0000
  7 H      0.8265     1.0000     0.1735     0.9443     0.9443    -0.0000
  8 H      0.8265     1.0000     0.1735     0.9443     0.9443    -0.0000
  9 H      0.8035     1.0000     0.1965     0.9447     0.9447     0.0000
 10 H      0.8035     1.0000     0.1965     0.9447     0.9447    -0.0000
 11 C      6.2773     6.0000    -0.2773     3.8111     3.8111     0.0000
 12 C      6.2773     6.0000    -0.2773     3.8111     3.8111     0.0000
 13 H      0.8567     1.0000     0.1433     0.9734     0.9734    -0.0000
 14 H      0.8567     1.0000     0.1433     0.9734     0.9734     0.0000
 15 H      0.8232     1.0000     0.1768     0.9541     0.9541     0.0000
 16 H      0.8232     1.0000     0.1768     0.9541     0.9541     0.0000
 17 H      0.8219     1.0000     0.1781     0.9499     0.9499    -0.0000
 18 H      0.8219     1.0000     0.1781     0.9499     0.9499     0.0000
 19 H      0.8250     1.0000     0.1750     0.9659     0.9659     0.0000

  Mayer bond orders larger than 0.100000
B(  0-C ,  1-N ) :   1.4880 B(  0-C ,  2-N ) :   1.4880 B(  0-C , 19-H ) :   0.9230 
B(  1-N ,  3-C ) :   0.8631 B(  1-N , 11-C ) :   0.8741 B(  2-N ,  4-C ) :   0.8631 
B(  2-N , 12-C ) :   0.8740 B(  3-C ,  5-H ) :   0.9587 B(  3-C ,  7-H ) :   0.9547 
B(  3-C ,  9-H ) :   0.9571 B(  4-C ,  6-H ) :   0.9587 B(  4-C ,  8-H ) :   0.9547 
B(  4-C , 10-H ) :   0.9571 B( 11-C , 13-H ) :   0.9616 B( 11-C , 15-H ) :   0.9628 
B( 11-C , 17-H ) :   0.9558 B( 12-C , 14-H ) :   0.9616 B( 12-C , 16-H ) :   0.9628 
B( 12-C , 18-H ) :   0.9558 

-------
TIMINGS
-------

Total SCF time: 0 days 0 hours 1 min 37 sec 

Total time                  ....      97.952 sec
Sum of individual times     ....      97.400 sec  ( 99.4%)

Fock matrix formation       ....      94.998 sec  ( 97.0%)
  Split-RI-J                ....       4.188 sec  (  4.4% of F)
  Chain of spheres X        ....      81.132 sec  ( 85.4% of F)
  XC integration            ....       9.311 sec  (  9.8% of F)
    Basis function eval.    ....       2.208 sec  ( 23.7% of XC)
    Density eval.           ....       2.523 sec  ( 27.1% of XC)
    XC-Functional eval.     ....       0.865 sec  (  9.3% of XC)
    XC-Potential eval.      ....       2.990 sec  ( 32.1% of XC)
Diagonalization             ....       0.212 sec  (  0.2%)
Density matrix formation    ....       0.013 sec  (  0.0%)
Population analysis         ....       0.029 sec  (  0.0%)
Initial guess               ....       0.346 sec  (  0.4%)
Orbital Transformation      ....       0.000 sec  (  0.0%)
Orbital Orthonormalization  ....       0.000 sec  (  0.0%)
DIIS solution               ....       0.124 sec  (  0.1%)
SOSCF solution              ....       0.093 sec  (  0.1%)
Grid generation             ....       1.585 sec  (  1.6%)

Maximum memory used throughout the entire SCF-calculation: 80.3 MB


-------------------------------------------------------------------------------
                          DFT DISPERSION CORRECTION                            
                                                                               
                                 DFTD4 V2.5                                    
-------------------------------------------------------------------------------
The WB97X functional is recognized
Active option DFTDOPT                   ...         5   

Starting D4
-------------------------   ----------------
Dispersion correction           -0.002063190
-------------------------   ----------------


-------------------------   --------------------
FINAL SINGLE POINT ENERGY      -307.659989536492
-------------------------   --------------------



           ************************************************************
           *        Program running with 4 parallel MPI-processes     *
           *              working on a common directory               *
           ************************************************************
------------------------------------------------------------------------------
                         ORCA SCF GRADIENT CALCULATION
------------------------------------------------------------------------------

 ... reading COSX grid (gridx3)
Gradient of the Kohn-Sham DFT energy:
Kohn-Sham wavefunction type      ... RKS
Hartree-Fock exchange scaling    ...    0.158
Number of operators              ...    1
Number of atoms                  ...   20
Basis set dimensions             ...  295
Integral neglect threshold       ... 2.5e-11
Integral primitive cutoff        ... 2.5e-12
SHARK Integral package           ... ON

Nuc. rep. gradient       (SHARK) ... done (  0.0 sec)
HCore & Overlap gradient (SHARK) ... done (  0.2 sec)
RI-J gradient            (SHARK) ... done (  1.1 sec)
COSX-gradient                    ... done ( 16.8 sec)
Exchange-correlation gradient    ... done
Dispersion correction            ... Starting D4


------------------- 
Dispersion Gradient 
------------------- 
   1  :    0.000000000   -0.000000000    0.000008853
   2  :   -0.000000241    0.000018145    0.000000596
   3  :    0.000000241   -0.000018145    0.000000596
   4  :    0.000003031    0.000022039   -0.000024028
   5  :   -0.000003031   -0.000022039   -0.000024028
   6  :    0.000000591    0.000006723   -0.000002231
   7  :   -0.000000591   -0.000006723   -0.000002231
   8  :    0.000001098    0.000006127   -0.000002497
   9  :   -0.000001098   -0.000006127   -0.000002497
  10  :    0.000000336    0.000007155   -0.000002825
  11  :   -0.000000336   -0.000007155   -0.000002825
  12  :   -0.000003169    0.000036704    0.000015683
  13  :    0.000003169   -0.000036704    0.000015683
  14  :   -0.000001017    0.000010472    0.000003701
  15  :    0.000001017   -0.000010472    0.000003701
  16  :   -0.000001092    0.000006958    0.000002888
  17  :    0.000001092   -0.000006958    0.000002888
  18  :    0.000000007    0.000007327    0.000003121
  19  :   -0.000000007   -0.000007327    0.000003121
  20  :    0.000000000   -0.000000000    0.000002330

  |G| =    0.000071148

Starting D4
Starting D4
Starting D4
done

------------------
CARTESIAN GRADIENT
------------------

   1   C   :    0.000000084   -0.000000182   -0.002064823
   2   N   :   -0.000168211    0.004924037   -0.002135249
   3   N   :    0.000167871   -0.004924253   -0.002135313
   4   C   :   -0.001609592   -0.001614110    0.005910573
   5   C   :    0.001609999    0.001614396    0.005910306
   6   H   :    0.003025399    0.005209954   -0.000848380
   7   H   :   -0.003025342   -0.005209998   -0.000848387
   8   H   :    0.003939067   -0.003908811   -0.002922082
   9   H   :   -0.003938868    0.003908641   -0.002921909
  10   H   :   -0.005236465    0.000636758   -0.003642495
  11   H   :    0.005236041   -0.000636864   -0.003642443
  12   C   :    0.000885144   -0.004863214   -0.003607062
  13   C   :   -0.000885227    0.004864184   -0.003607179
  14   H   :   -0.000836044   -0.001466171    0.005926462
  15   H   :    0.000836121    0.001465962    0.005926635
  16   H   :    0.004743485    0.004169290    0.000069968
  17   H   :   -0.004743640   -0.004169475    0.000069913
  18   H   :   -0.004960917    0.003349912   -0.001466307
  19   H   :    0.004961124   -0.003350118   -0.001466323
  20   H   :   -0.000000004   -0.000000007    0.007362194

Difference to translation invariance:
           :    0.0000000225   -0.0000000699   -0.0001319024

Difference to rotation invariance:
           :    0.0000002965   -0.0000001737    0.0015418966

Norm of the cartesian gradient     ...    0.0271637602
RMS gradient                       ...    0.0035068264
[...]
     28      -0.003509  -0.037620  -0.035090   0.006895   0.004326   0.035881
     29       0.024450   0.257685   0.262545  -0.041911  -0.026726  -0.201467
     30      -0.046708   0.459839  -0.468004   0.071496  -0.045005   0.356879
     31       0.003512  -0.037622   0.035090  -0.006893   0.004330  -0.035885
     32       0.024468  -0.257697   0.262535  -0.041901   0.026749  -0.201484
     33       0.004257  -0.001083  -0.001236   0.063827   0.064713  -0.014385
     34      -0.031652   0.004090   0.003093   0.001688   0.001691  -0.002261
     35      -0.012068   0.001882   0.001762   0.015072   0.015078   0.000208
     36      -0.004259  -0.001083   0.001236  -0.063797   0.064743   0.014387
     37       0.031670   0.004090  -0.003093  -0.001687   0.001692   0.002261
     38      -0.012074  -0.001883   0.001762   0.015064  -0.015085   0.000208
     39      -0.047821   0.006310   0.005044   0.016707   0.016733   0.001105
     40      -0.096786   0.012323   0.009940   0.013745   0.013444   0.007281
     41       0.310278  -0.042321  -0.034845  -0.042492  -0.041012  -0.026253
     42       0.047848   0.006310  -0.005043  -0.016699   0.016740  -0.001106
     43       0.096841   0.012324  -0.009939  -0.013738   0.013450  -0.007282
     44       0.310454   0.042323  -0.034844  -0.042472   0.041030  -0.026256
     45       0.354098  -0.042994  -0.031153  -0.373880  -0.378385   0.090609
     46       0.257309  -0.032204  -0.023826  -0.283508  -0.286671   0.066811
     47      -0.023181   0.002479   0.001332   0.030986   0.031610  -0.008183
     48      -0.354299  -0.042996   0.031150   0.373701  -0.378560  -0.090621
     49      -0.257455  -0.032205   0.023824   0.283372  -0.286804  -0.066820
     50      -0.023194  -0.002480   0.001331   0.030971  -0.031624  -0.008184
     51      -0.357146   0.047497   0.038378  -0.401059  -0.406545   0.077852
     52       0.212509  -0.028750  -0.023597   0.250045   0.253387  -0.048423
     53      -0.142580   0.018185   0.014079  -0.165217  -0.167575   0.033066
     54       0.357348   0.047500  -0.038376   0.400867  -0.406732  -0.077863
     55      -0.212629  -0.028752   0.023596  -0.249926   0.253504   0.048430
     56      -0.142660  -0.018186   0.014079  -0.165138   0.167652   0.033070
     57       0.000000   0.000115   0.000000   0.000000   0.000099  -0.000000
     58       0.000000   0.001210   0.000000   0.000000   0.000770   0.000000
     59      -0.025347  -0.000000   0.020606  -0.000096   0.000000   0.032432
                 54         55         56         57         58         59    
      0      -0.000293   0.000000  -0.000108   0.000000  -0.000170  -0.000000
      1      -0.000292  -0.000000  -0.000260   0.000000  -0.000117  -0.000000
      2       0.000000   0.026933  -0.000001   0.083459  -0.000001   0.005203
      3       0.000271  -0.000145   0.000102  -0.000083  -0.000164   0.000315
      4       0.000162   0.001305  -0.000477   0.001752   0.000108   0.000391
      5      -0.000247  -0.000070   0.000020  -0.000917   0.000483  -0.000576
      6       0.000271   0.000145   0.000102   0.000083  -0.000164  -0.000315
      7       0.000162  -0.001305  -0.000477  -0.001752   0.000108  -0.000391
      8       0.000247  -0.000070  -0.000020  -0.000917  -0.000483  -0.000576
      9      -0.053849   0.004368  -0.004652   0.002226   0.036325  -0.032309
     10      -0.035000   0.000878  -0.000336  -0.001332  -0.053616   0.054421
     11      -0.012011  -0.000126  -0.000354  -0.001782  -0.014186   0.016420
     12      -0.053844  -0.004368  -0.004652  -0.002226   0.036324   0.032310
     13      -0.034997  -0.000878  -0.000336   0.001331  -0.053614  -0.054423
     14       0.012010  -0.000126   0.000354  -0.001782   0.014186   0.016421
     15       0.259967  -0.015162   0.013608   0.000214   0.109843  -0.120438
     16       0.500118  -0.028682   0.025871  -0.001835   0.183118  -0.207662
     17      -0.018230   0.002450  -0.002184  -0.000802  -0.007203   0.006212
     18       0.259944   0.015163   0.013607  -0.000213   0.109839   0.120443
     19       0.500072   0.028683   0.025869   0.001838   0.183110   0.207669
     20       0.018228   0.002450   0.002184  -0.000801   0.007202   0.006212
     21       0.027972  -0.015907   0.016639  -0.019019  -0.368636   0.372367
     22      -0.049373   0.019165  -0.020073   0.024362   0.449251  -0.452606
     23      -0.029830   0.012163  -0.012802   0.014175   0.268715  -0.269754
     24       0.027968   0.015909   0.016639   0.019013  -0.368622  -0.372380
     25      -0.049366  -0.019167  -0.020072  -0.024355   0.449235   0.452623
     26       0.029826   0.012165   0.012802   0.014171  -0.268706  -0.269764
     27       0.350120  -0.020995   0.026814  -0.003211  -0.171994   0.122790
     28      -0.035990   0.001764  -0.002294  -0.000106   0.002239  -0.001650
     29       0.196543  -0.011225   0.014802  -0.001264  -0.098857   0.073195
     30       0.350085   0.020996   0.026813   0.003208  -0.171988  -0.122796
     31      -0.035987  -0.001764  -0.002294   0.000106   0.002239   0.001650
     32      -0.196522  -0.011226  -0.014802  -0.001262   0.098854   0.073198
     33       0.009788   0.010883  -0.011731  -0.004269  -0.000200  -0.000157
     34       0.002367   0.033559  -0.034824  -0.009454  -0.001245   0.000419
     35      -0.001683  -0.052771   0.055429   0.017066   0.002166  -0.000798
     36       0.009787  -0.010883  -0.011730   0.004269  -0.000200   0.000157
     37       0.002367  -0.033561  -0.034822   0.009454  -0.001245  -0.000420
     38       0.001683  -0.052774  -0.055426   0.017065  -0.002166  -0.000798
     39      -0.002884  -0.086070   0.090674   0.028547   0.003277  -0.001069
     40      -0.009531  -0.173256   0.182473   0.056907   0.006995  -0.002404
     41       0.033277   0.556954  -0.587795  -0.187827  -0.020486   0.005497
     42      -0.002884   0.086075   0.090669  -0.028546   0.003278   0.001069
     43      -0.009531   0.173267   0.182464  -0.056906   0.006996   0.002404
     44      -0.033274   0.556988   0.587763  -0.187825   0.020489   0.005498
     45      -0.063959  -0.203656   0.211784   0.058000   0.008350  -0.003157
     46      -0.046449  -0.144150   0.149425   0.039182   0.006150  -0.002628
     47       0.006079   0.006654  -0.007513  -0.003974   0.000288  -0.000467
     48      -0.063955   0.203668   0.211772  -0.057999   0.008352   0.003157
     49      -0.046446   0.144157   0.149416  -0.039181   0.006151   0.002628
     50      -0.006078   0.006655   0.007512  -0.003974  -0.000288  -0.000467
     51      -0.047377   0.162189  -0.165282  -0.038055  -0.008229   0.004644
     52       0.029436  -0.089070   0.090408   0.019889   0.004530  -0.002596
     53      -0.020443   0.055363  -0.056418  -0.013274  -0.002041   0.000928
     54      -0.047375  -0.162200  -0.165274   0.038054  -0.008229  -0.004644
     55       0.029435   0.089076   0.090404  -0.019889   0.004530   0.002597
     56       0.020442   0.055367   0.056415  -0.013274   0.002041   0.000928
     57      -0.001687  -0.000000   0.000416  -0.000000   0.000443   0.000000
     58       0.000245   0.000000   0.002639  -0.000000   0.001231   0.000000
     59      -0.000002  -0.303103   0.000010  -0.947276   0.000008  -0.049525


-----------
IR SPECTRUM
-----------

 Mode   freq       eps      Int      T**2         TX        TY        TZ
       cm**-1   L/(mol*cm) km/mol    a.u.
----------------------------------------------------------------------------
  6:     59.78   0.000007    0.04  0.000038  (-0.000000  0.000000 -0.006205)
  7:    143.79   0.000050    0.25  0.000109  ( 0.006411  0.008218  0.000000)
  8:    146.60   0.000358    1.81  0.000763  ( 0.024454  0.012850  0.000000)
  9:    157.47   0.000010    0.05  0.000019  ( 0.000001  0.000000 -0.004359)
 10:    177.50   0.000004    0.02  0.000007  ( 0.000000 -0.000000  0.002555)
 11:    220.10   0.000398    2.01  0.000564  ( 0.023129  0.005400 -0.000000)
 12:    275.80   0.000000    0.00  0.000000  ( 0.000000 -0.000000 -0.000590)
 13:    308.17   0.000116    0.59  0.000117  (-0.000000  0.000000  0.010831)
 14:    345.49   0.000862    4.36  0.000779  ( 0.025504 -0.011325 -0.000000)
 15:    408.45   0.000014    0.07  0.000011  ( 0.000000 -0.000000 -0.003290)
 16:    442.99   0.002663   13.46  0.001876  ( 0.037800 -0.021143  0.000000)
 17:    496.22   0.001413    7.14  0.000889  (-0.028637  0.008293 -0.000000)
 18:    618.78   0.000231    1.17  0.000116  ( 0.000000  0.000000 -0.010788)
 19:    881.12   0.001322    6.68  0.000468  ( 0.000000  0.000000 -0.021637)
 20:    896.47   0.003297   16.66  0.001148  (-0.000652  0.033871 -0.000000)
 21:   1018.85   0.002071   10.47  0.000634  ( 0.012182 -0.022045 -0.000000)
 22:   1085.59   0.001341    6.77  0.000385  (-0.006374  0.018567  0.000001)
 23:   1087.35   0.003528   17.83  0.001012  ( 0.000000 -0.000000  0.031819)
 24:   1119.96   0.000343    1.73  0.000096  ( 0.000000 -0.000000 -0.009776)
 25:   1133.46   0.000059    0.30  0.000016  ( 0.000000 -0.000000 -0.004043)
 26:   1135.79   0.001013    5.12  0.000278  (-0.009730  0.013556 -0.000000)
 27:   1177.07   0.002096   10.59  0.000556  (-0.008699 -0.021912  0.000000)
 28:   1177.93   0.000022    0.11  0.000006  ( 0.000001  0.000004  0.002392)
 29:   1194.82   0.011840   59.84  0.003092  (-0.003477  0.055501 -0.000000)
 30:   1231.69   0.000055    0.28  0.000014  ( 0.003370  0.001630 -0.000000)
 31:   1327.97   0.004991   25.22  0.001173  ( 0.000000  0.000000 -0.034246)
 32:   1454.10   0.003713   18.76  0.000797  (-0.006791  0.027400  0.000000)
 33:   1466.35   0.003378   17.07  0.000719  (-0.007601 -0.025712  0.000007)
 34:   1466.46   0.000798    4.03  0.000170  ( 0.000004  0.000014  0.013028)
 35:   1474.63   0.000830    4.19  0.000176  (-0.005136  0.012214  0.000000)
 36:   1476.04   0.000064    0.32  0.000014  ( 0.000000 -0.000001  0.003681)
 37:   1484.39   0.012282   62.07  0.002582  (-0.001914  0.050778  0.000000)
 38:   1490.67   0.000214    1.08  0.000045  (-0.000001 -0.000001 -0.006691)
 39:   1492.19   0.009821   49.63  0.002054  ( 0.044733  0.007275 -0.000000)
 40:   1497.93   0.000196    0.99  0.000041  ( 0.000000 -0.000000 -0.006398)
 41:   1503.84   0.001907    9.64  0.000396  ( 0.000000 -0.000000  0.019893)
 42:   1514.32   0.003368   17.02  0.000694  (-0.026321  0.001170 -0.000000)
 43:   1518.91   0.000956    4.83  0.000196  ( 0.000000  0.000000 -0.014013)
 44:   1529.79   0.006547   33.09  0.001336  (-0.007310  0.035807  0.000000)
 45:   1571.49   0.005593   28.26  0.001111  ( 0.000000  0.000000  0.033326)
 46:   1785.47   0.139756  706.27  0.024426  ( 0.000142 -0.156289 -0.000000)
 47:   3086.62   0.002633   13.31  0.000266  (-0.001334  0.016261  0.000003)
 48:   3086.80   0.000849    4.29  0.000086  (-0.000000  0.000005 -0.009266)
 49:   3092.50   0.000679    3.43  0.000068  (-0.001177  0.008191  0.000000)
 50:   3096.47   0.001636    8.27  0.000165  ( 0.000000  0.000000 -0.012840)
 51:   3167.67   0.000053    0.27  0.000005  ( 0.000002  0.000001  0.002275)
 52:   3167.87   0.001108    5.60  0.000109  ( 0.010025  0.002942 -0.000001)
 53:   3172.96   0.000039    0.20  0.000004  (-0.000000 -0.000000  0.001967)
 54:   3174.85   0.000371    1.87  0.000036  (-0.005094 -0.003238 -0.000000)
 55:   3194.76   0.000633    3.20  0.000062  (-0.000000 -0.000000 -0.007860)
 56:   3196.33   0.000587    2.97  0.000057  (-0.002559 -0.007128  0.000000)
 57:   3214.89   0.000008    0.04  0.000001  ( 0.000000 -0.000000  0.000886)
 58:   3217.73   0.000716    3.62  0.000069  ( 0.005724 -0.006054 -0.000000)
 59:   3221.47   0.000104    0.53  0.000010  ( 0.000000 -0.000000  0.003174)

* The epsilon (eps) is given for a Dirac delta lineshape.
** The dipole moment derivative (T) already includes vibrational overlap.

The first frequency considered to be a vibration is 6
The total number of vibrations considered is 54


--------------------------
THERMOCHEMISTRY AT 298.15K
--------------------------

Temperature         ... 298.15 K
Pressure            ... 1.00 atm
Total Mass          ... 101.17 AMU

Throughout the following assumptions are being made:
  (1) The electronic state is orbitally nondegenerate
  (2) There are no thermally accessible electronically excited states
  (3) Hindered rotations indicated by low frequency modes are not
      treated as such but are treated as vibrations and this may
      cause some error
  (4) All equations used are the standard statistical mechanics
      equations for an ideal gas
  (5) All vibrations are strictly harmonic

freq.      59.78  E(vib)   ...       0.51 
freq.     143.79  E(vib)   ...       0.41 
freq.     146.60  E(vib)   ...       0.41 
freq.     157.47  E(vib)   ...       0.40 
freq.     177.50  E(vib)   ...       0.37 
freq.     220.10  E(vib)   ...       0.33 
freq.     275.80  E(vib)   ...       0.28 
freq.     308.17  E(vib)   ...       0.26 
freq.     345.49  E(vib)   ...       0.23 
freq.     408.45  E(vib)   ...       0.19 
freq.     442.99  E(vib)   ...       0.17 
freq.     496.22  E(vib)   ...       0.14 
freq.     618.78  E(vib)   ...       0.09 
freq.     881.12  E(vib)   ...       0.04 
freq.     896.47  E(vib)   ...       0.03 
freq.    1018.85  E(vib)   ...       0.02 
freq.    1085.59  E(vib)   ...       0.02 
freq.    1087.35  E(vib)   ...       0.02 
freq.    1119.96  E(vib)   ...       0.01 
freq.    1133.46  E(vib)   ...       0.01 
freq.    1135.79  E(vib)   ...       0.01 
freq.    1177.07  E(vib)   ...       0.01 
freq.    1177.93  E(vib)   ...       0.01 
freq.    1194.82  E(vib)   ...       0.01 
freq.    1231.69  E(vib)   ...       0.01 
freq.    1327.97  E(vib)   ...       0.01 
freq.    1454.10  E(vib)   ...       0.00 
freq.    1466.35  E(vib)   ...       0.00 
freq.    1466.46  E(vib)   ...       0.00 
freq.    1474.63  E(vib)   ...       0.00 
freq.    1476.04  E(vib)   ...       0.00 
freq.    1484.39  E(vib)   ...       0.00 
freq.    1490.67  E(vib)   ...       0.00 
freq.    1492.19  E(vib)   ...       0.00 
freq.    1497.93  E(vib)   ...       0.00 
freq.    1503.84  E(vib)   ...       0.00 
freq.    1514.32  E(vib)   ...       0.00 
freq.    1518.91  E(vib)   ...       0.00 
freq.    1529.79  E(vib)   ...       0.00 
freq.    1571.49  E(vib)   ...       0.00 
freq.    1785.47  E(vib)   ...       0.00 
freq.    3086.62  E(vib)   ...       0.00 
freq.    3086.80  E(vib)   ...       0.00 
freq.    3092.50  E(vib)   ...       0.00 
freq.    3096.47  E(vib)   ...       0.00 
freq.    3167.67  E(vib)   ...       0.00 
freq.    3167.87  E(vib)   ...       0.00 
freq.    3172.96  E(vib)   ...       0.00 
freq.    3174.85  E(vib)   ...       0.00 
freq.    3194.76  E(vib)   ...       0.00 
freq.    3196.33  E(vib)   ...       0.00 
freq.    3214.89  E(vib)   ...       0.00 
freq.    3217.73  E(vib)   ...       0.00 
freq.    3221.47  E(vib)   ...       0.00 

------------
INNER ENERGY
------------

The inner energy is: U= E(el) + E(ZPE) + E(vib) + E(rot) + E(trans)
    E(el)   - is the total energy from the electronic structure calculation
              = E(kin-el) + E(nuc-el) + E(el-el) + E(nuc-nuc)
    E(ZPE)  - the the zero temperature vibrational energy from the frequency calculation
    E(vib)  - the the finite temperature correction to E(ZPE) due to population
              of excited vibrational states
    E(rot)  - is the rotational thermal energy
    E(trans)- is the translational thermal energy

Summary of contributions to the inner energy U:
Electronic energy                ...   -307.66085573 Eh
Zero point energy                ...      0.18700718 Eh     117.35 kcal/mol
Thermal vibrational correction   ...      0.00646766 Eh       4.06 kcal/mol
Thermal rotational correction    ...      0.00141627 Eh       0.89 kcal/mol
Thermal translational correction ...      0.00141627 Eh       0.89 kcal/mol
-----------------------------------------------------------------------
Total thermal energy                   -307.46454835 Eh


Summary of corrections to the electronic energy:
(perhaps to be used in another calculation)
Total thermal correction                  0.00930020 Eh       5.84 kcal/mol
Non-thermal (ZPE) correction              0.18700718 Eh     117.35 kcal/mol
-----------------------------------------------------------------------
Total correction                          0.19630738 Eh     123.18 kcal/mol


--------
ENTHALPY
--------

The enthalpy is H = U + kB*T
                kB is Boltzmann's constant
Total free energy                 ...   -307.46454835 Eh 
Thermal Enthalpy correction       ...      0.00094421 Eh       0.59 kcal/mol
-----------------------------------------------------------------------
Total Enthalpy                    ...   -307.46360414 Eh


Note: Rotational entropy computed according to Herzberg 
Infrared and Raman Spectra, Chapter V,1, Van Nostrand Reinhold, 1945 
Point Group:  C2, Symmetry Number:   2  
Rotational constants in cm-1:     0.155840     0.056191     0.043299 

Vibrational entropy computed according to the QRRHO of S. Grimme
Chem.Eur.J. 2012 18 9955


-------
ENTROPY
-------

The entropy contributions are T*S = T*(S(el)+S(vib)+S(rot)+S(trans))
     S(el)   - electronic entropy
     S(vib)  - vibrational entropy
     S(rot)  - rotational entropy
     S(trans)- translational entropy
The entropies will be listed as multiplied by the temperature to get
units of energy

Electronic entropy                ...      0.00000000 Eh      0.00 kcal/mol
Vibrational entropy               ...      0.01128344 Eh      7.08 kcal/mol
Rotational entropy                ...      0.01257527 Eh      7.89 kcal/mol
Translational entropy             ...      0.01888776 Eh     11.85 kcal/mol
-----------------------------------------------------------------------
Final entropy term                ...      0.04274646 Eh     26.82 kcal/mol

In case the symmetry of your molecule has not been determined correctly
or in case you have a reason to use a different symmetry number we print 
out the resulting rotational entropy values for sn=1,12 :
 --------------------------------------------------------
|  sn= 1 | S(rot)=       0.01322972 Eh      8.30 kcal/mol|
|  sn= 2 | S(rot)=       0.01257527 Eh      7.89 kcal/mol|
|  sn= 3 | S(rot)=       0.01219243 Eh      7.65 kcal/mol|
|  sn= 4 | S(rot)=       0.01192081 Eh      7.48 kcal/mol|
|  sn= 5 | S(rot)=       0.01171012 Eh      7.35 kcal/mol|
|  sn= 6 | S(rot)=       0.01153798 Eh      7.24 kcal/mol|
|  sn= 7 | S(rot)=       0.01139243 Eh      7.15 kcal/mol|
|  sn= 8 | S(rot)=       0.01126635 Eh      7.07 kcal/mol|
|  sn= 9 | S(rot)=       0.01115514 Eh      7.00 kcal/mol|
|  sn=10 | S(rot)=       0.01105566 Eh      6.94 kcal/mol|
|  sn=11 | S(rot)=       0.01096567 Eh      6.88 kcal/mol|
|  sn=12 | S(rot)=       0.01088352 Eh      6.83 kcal/mol|
 --------------------------------------------------------


-------------------
GIBBS FREE ENERGY
-------------------

The Gibbs free energy is G = H - T*S

Total enthalpy                    ...   -307.46360414 Eh 
Total entropy correction          ...     -0.04274646 Eh    -26.82 kcal/mol
-----------------------------------------------------------------------
Final Gibbs free energy         ...   -307.50635060 Eh

For completeness - the Gibbs free energy minus the electronic energy
G-E(el)                           ...      0.15450513 Eh     96.95 kcal/mol


Timings for individual modules:

Sum of individual times         ...     1016.945 sec (=  16.949 min)
GTO integral calculation        ...        3.256 sec (=   0.054 min)   0.3 %
SCF iterations                  ...      333.215 sec (=   5.554 min)  32.8 %
SCF Gradient evaluation         ...       87.403 sec (=   1.457 min)   8.6 %
Geometry relaxation             ...        0.193 sec (=   0.003 min)   0.0 %
Analytical frequency calculation...      592.877 sec (=   9.881 min)  58.3 %
                             ****ORCA TERMINATED NORMALLY****
TOTAL RUN TIME: 0 days 0 hours 16 minutes 58 seconds 905 msec
