
                                 *****************
                                 * O   R   C   A *
                                 *****************

                                            #,                                       
                                            ###                                      
                                            ####                                     
                                            #####                                    
                                            ######                                   
                                           ########,                                 
                                     ,,################,,,,,                         
                               ,,#################################,,                 
                          ,,##########################################,,             
                       ,#########################################, ''#####,          
                    ,#############################################,,   '####,        
                  ,##################################################,,,,####,       
                ,###########''''           ''''###############################       
              ,#####''   ,,,,##########,,,,          '''####'''          '####       
            ,##' ,,,,###########################,,,                        '##       
           ' ,,###''''                  '''############,,,                           
         ,,##''                                '''############,,,,        ,,,,,,###''
      ,#''                                            '''#######################'''  
     '                                                          ''''####''''         
             ,#######,   #######,   ,#######,      ##                                
            ,#'     '#,  ##    ##  ,#'     '#,    #''#        ######   ,####,        
            ##       ##  ##   ,#'  ##            #'  '#       #        #'  '#        
            ##       ##  #######   ##           ,######,      #####,   #    #        
            '#,     ,#'  ##    ##  '#,     ,#' ,#      #,         ##   #,  ,#        
             '#######'   ##     ##  '#######'  #'      '#     #####' # '####'        



                  #######################################################
                  #                        -***-                        #
                  #          Department of theory and spectroscopy      #
                  #    Directorship and core code : Frank Neese         #
                  #        Max Planck Institute fuer Kohlenforschung    #
                  #                Kaiser Wilhelm Platz 1               #
                  #                 D-45470 Muelheim/Ruhr               #
                  #                      Germany                        #
                  #                                                     #
                  #                  All rights reserved                #
                  #                        -***-                        #
                  #######################################################


                         Program Version 5.0.4 -  RELEASE  -


 With contributions from (in alphabetic order):
   Daniel Aravena         : Magnetic Suceptibility
   Michael Atanasov       : Ab Initio Ligand Field Theory (pilot matlab implementation)
   Alexander A. Auer      : GIAO ZORA, VPT2 properties, NMR spectrum
   Ute Becker             : Parallelization
   Giovanni Bistoni       : ED, misc. LED, open-shell LED, HFLD
   Martin Brehm           : Molecular dynamics
   Dmytro Bykov           : SCF Hessian
   Vijay G. Chilkuri      : MRCI spin determinant printing, contributions to CSF-ICE
   Dipayan Datta          : RHF DLPNO-CCSD density
   Achintya Kumar Dutta   : EOM-CC, STEOM-CC
   Dmitry Ganyushin       : Spin-Orbit,Spin-Spin,Magnetic field MRCI
   Miquel Garcia          : C-PCM and meta-GGA Hessian, CC/C-PCM, Gaussian charge scheme
   Yang Guo               : DLPNO-NEVPT2, F12-NEVPT2, CIM, IAO-localization
   Andreas Hansen         : Spin unrestricted coupled pair/coupled cluster methods
   Benjamin Helmich-Paris : MC-RPA, TRAH-SCF, COSX integrals
   Lee Huntington         : MR-EOM, pCC
   Robert Izsak           : Overlap fitted RIJCOSX, COSX-SCS-MP3, EOM
   Marcus Kettner         : VPT2
   Christian Kollmar      : KDIIS, OOCD, Brueckner-CCSD(T), CCSD density, CASPT2, CASPT2-K
   Simone Kossmann        : Meta GGA functionals, TD-DFT gradient, OOMP2, MP2 Hessian
   Martin Krupicka        : Initial AUTO-CI
   Lucas Lang             : DCDCAS
   Marvin Lechner         : AUTO-CI (C++ implementation), FIC-MRCC
   Dagmar Lenk            : GEPOL surface, SMD
   Dimitrios Liakos       : Extrapolation schemes; Compound Job, initial MDCI parallelization
   Dimitrios Manganas     : Further ROCIS development; embedding schemes
   Dimitrios Pantazis     : SARC Basis sets
   Anastasios Papadopoulos: AUTO-CI, single reference methods and gradients
   Taras Petrenko         : DFT Hessian,TD-DFT gradient, ASA, ECA, R-Raman, ABS, FL, XAS/XES, NRVS
   Peter Pinski           : DLPNO-MP2, DLPNO-MP2 Gradient
   Christoph Reimann      : Effective Core Potentials
   Marius Retegan         : Local ZFS, SOC
   Christoph Riplinger    : Optimizer, TS searches, QM/MM, DLPNO-CCSD(T), (RO)-DLPNO pert. Triples
   Tobias Risthaus        : Range-separated hybrids, TD-DFT gradient, RPA, STAB
   Michael Roemelt        : Original ROCIS implementation
   Masaaki Saitow         : Open-shell DLPNO-CCSD energy and density
   Barbara Sandhoefer     : DKH picture change effects
   Avijit Sen             : IP-ROCIS
   Kantharuban Sivalingam : CASSCF convergence, NEVPT2, FIC-MRCI
   Bernardo de Souza      : ESD, SOC TD-DFT
   Georgi Stoychev        : AutoAux, RI-MP2 NMR, DLPNO-MP2 response
   Willem Van den Heuvel  : Paramagnetic NMR
   Boris Wezisla          : Elementary symmetry handling
   Frank Wennmohs         : Technical directorship


 We gratefully acknowledge several colleagues who have allowed us to
 interface, adapt or use parts of their codes:
   Stefan Grimme, W. Hujo, H. Kruse, P. Pracht,  : VdW corrections, initial TS optimization,
                  C. Bannwarth, S. Ehlert          DFT functionals, gCP, sTDA/sTD-DF
   Ed Valeev, F. Pavosevic, A. Kumar             : LibInt (2-el integral package), F12 methods
   Garnet Chan, S. Sharma, J. Yang, R. Olivares  : DMRG
   Ulf Ekstrom                                   : XCFun DFT Library
   Mihaly Kallay                                 : mrcc  (arbitrary order and MRCC methods)
   Jiri Pittner, Ondrej Demel                    : Mk-CCSD
   Frank Weinhold                                : gennbo (NPA and NBO analysis)
   Christopher J. Cramer and Donald G. Truhlar   : smd solvation model
   Lars Goerigk                                  : TD-DFT with DH, B97 family of functionals
   V. Asgeirsson, H. Jonsson                     : NEB implementation
   FAccTs GmbH                                   : IRC, NEB, NEB-TS, DLPNO-Multilevel, CI-OPT
                                                   MM, QMMM, 2- and 3-layer-ONIOM, Crystal-QMMM,
                                                   LR-CPCM, SF, NACMEs, symmetry and pop. for TD-DFT,
                                                   nearIR, NL-DFT gradient (VV10), updates on ESD,
                                                   ML-optimized integration grids
   S Lehtola, MJT Oliveira, MAL Marques          : LibXC Library
   Liviu Ungur et al                             : ANISO software


 Your calculation uses the libint2 library for the computation of 2-el integrals
 For citations please refer to: http://libint.valeyev.net

 Your ORCA version has been built with support for libXC version: 5.1.0
 For citations please refer to: https://tddft.org/programs/libxc/

 This ORCA versions uses:
   CBLAS   interface :  Fast vector & matrix operations
   LAPACKE interface :  Fast linear algebra routines
   SCALAPACK package :  Parallel linear algebra routines
   Shared memory     :  Shared parallel matrices
   BLAS/LAPACK       :  OpenBLAS 0.3.15  USE64BITINT DYNAMIC_ARCH NO_AFFINITY SkylakeX SINGLE_THREADED
        Core in use  :  SkylakeX
   Copyright (c) 2011-2014, The OpenBLAS Project




***************************************
The coordinates will be read from file: 11_prot.xyz
***************************************


Your calculation utilizes the atom-pairwise dispersion correction
based on tight binding partial charges (D4)
Cite in your paper:
E.Caldeweyher, C.Bannwarth, S.Grimme, J.Chem.Phys., (2017), 147, 034112.
E.Caldeweyher, S.Ehlert, A.Hansen, H.Neugebauer, S.Grimme, J.Chem.Phys., (2018), in progress.
   

XCFun DFT library Copyright 2009-2010 Ulf Ekstrom and contributors.
See http://admol.org/xcfun for more information.
This is free software; see the source code for copying conditions.
There is ABSOLUTELY NO WARRANTY; not even for MERCHANTABILITY or FITNESS FOR A PARTICULAR PURPOSE.
For details see the documentation.
Scientific users of this library should cite U. Ekstrom, L. Visscher, R. Bast, A. J. Thorvaldsen and K. Ruud;
J.Chem.Theor.Comp. 2010, DOI: 10.1021/ct100117s
XCFun Version 0.99 

================================================================================

----- Orbital basis set information -----
Your calculation utilizes the basis: def2-TZVP
   F. Weigend and R. Ahlrichs, Phys. Chem. Chem. Phys. 7, 3297 (2005).

----- AuxJ basis set information -----
Your calculation utilizes the auxiliary basis: def2/J
   F. Weigend, Phys. Chem. Chem. Phys. 8, 1057 (2006).

================================================================================
                                        WARNINGS
                       Please study these warnings very carefully!
================================================================================


WARNING: Geometry Optimization
  ===> : Switching off AutoStart
         For restart on a previous wavefunction, please use MOREAD

INFO   : the flag for use of the SHARK integral package has been found!

================================================================================
                                       INPUT FILE
================================================================================
NAME = 11_prot.inp
|  1> # ORCA 5.0.4 - /users/bwb16179/postgrad/2024_06/pKa_Reviewer_Comments/Aq_Z=1/11_prot.inp # write input file
|  2> # Basic Mode
|  3> #
|  4> ! Opt Freq wB97X Def2-TZVP D4 SlowConv TightSCF Defgrid2 Def2/J RIJCOSX CPCM(Water)
|  5> 
|  6> %PAL NPROCS 4 END
|  7> 
|  8> %maxcore 4500
|  9> 
| 10> %geom
| 11> Maxiter 150
| 12> END
| 13> 
| 14> * xyzfile 1 1 11_prot.xyz
| 15> 
| 16>                          ****END OF INPUT****
================================================================================

                       *****************************
                       * Geometry Optimization Run *
                       *****************************

Geometry optimization settings:
Update method            Update   .... BFGS
Choice of coordinates    CoordSys .... Z-matrix Internals
Initial Hessian          InHess   .... Almoef's Model

Convergence Tolerances:
Energy Change            TolE     ....  5.0000e-06 Eh
Max. Gradient            TolMAXG  ....  3.0000e-04 Eh/bohr
RMS Gradient             TolRMSG  ....  1.0000e-04 Eh/bohr
Max. Displacement        TolMAXD  ....  4.0000e-03 bohr
RMS Displacement         TolRMSD  ....  2.0000e-03 bohr
Strict Convergence                ....  False
------------------------------------------------------------------------------
                        ORCA OPTIMIZATION COORDINATE SETUP
------------------------------------------------------------------------------

The optimization will be done in new redundant internal coordinates
Making redundant internal coordinates   ...  (new redundants) done
Evaluating the initial hessian          ...  (Almloef) done
Evaluating the coordinates              ...  done
Calculating the B-matrix                .... done
Calculating the G-matrix                .... done
Diagonalizing the G-matrix              .... done
Small eigenvalue found = 1.295e-02
The first mode is                       ....   30
The number of degrees of freedom        ....   54

    -----------------------------------------------------------------
                    Redundant Internal Coordinates


    -----------------------------------------------------------------
         Definition                    Initial Value    Approx d2E/dq
    -----------------------------------------------------------------
      1. B(N   1,C   0)                  1.3169         0.731946   
      2. B(N   2,C   0)                  1.3169         0.731946   
      3. B(C   3,N   1)                  1.4609         0.431246   
      4. B(C   4,N   2)                  1.4609         0.431246   
      5. B(H   5,C   3)                  1.0978         0.349947   
      6. B(H   6,C   4)                  1.0978         0.349947   
      7. B(H   7,C   3)                  1.0949         0.353691   
      8. B(H   8,C   4)                  1.0949         0.353691   
      9. B(H   9,C   3)                  1.1000         0.347130   
     10. B(H  10,C   4)                  1.1000         0.347130   
     11. B(C  11,N   1)                  1.4619         0.429683   
     12. B(C  12,N   2)                  1.4619         0.429683   
     13. B(H  13,C  11)                  1.0966         0.351486   
     14. B(H  14,C  12)                  1.0966         0.351486   
     15. B(H  15,C  11)                  1.0998         0.347388   
     16. B(H  16,C  12)                  1.0998         0.347388   
     17. B(H  17,C  11)                  1.1000         0.347056   
     18. B(H  18,C  12)                  1.1000         0.347055   
     19. B(H  19,C   0)                  1.0953         0.353202   
     20. A(N   1,C   0,N   2)          129.9695         0.454896   
     21. A(N   2,C   0,H  19)          115.0153         0.359571   
     22. A(N   1,C   0,H  19)          115.0153         0.359571   
     23. A(C   0,N   1,C   3)          126.2851         0.413605   
     24. A(C   0,N   1,C  11)          118.7250         0.413339   
     25. A(C   3,N   1,C  11)          114.9707         0.376738   
     26. A(C   0,N   2,C   4)          126.2851         0.413605   
     27. A(C   4,N   2,C  12)          114.9707         0.376738   
     28. A(C   0,N   2,C  12)          118.7250         0.413339   
     29. A(N   1,C   3,H   7)          110.8541         0.329112   
     30. A(H   7,C   3,H   9)          110.2040         0.288359   
     31. A(H   5,C   3,H   7)          107.9425         0.288724   
     32. A(N   1,C   3,H   9)          111.6096         0.328097   
     33. A(N   1,C   3,H   5)          107.4757         0.328535   
     34. A(H   5,C   3,H   9)          108.6197         0.287879   
     35. A(H   8,C   4,H  10)          110.2039         0.288359   
     36. A(H   6,C   4,H  10)          108.6197         0.287879   
     37. A(N   2,C   4,H  10)          111.6096         0.328097   
     38. A(N   2,C   4,H   6)          107.4757         0.328535   
     39. A(H   6,C   4,H   8)          107.9425         0.288724   
     40. A(N   2,C   4,H   8)          110.8541         0.329112   
     41. A(H  15,C  11,H  17)          109.0040         0.287539   
     42. A(H  13,C  11,H  17)          108.8938         0.288067   
     43. A(N   1,C  11,H  17)          109.5039         0.327889   
     44. A(H  13,C  11,H  15)          109.5007         0.288110   
     45. A(N   1,C  11,H  15)          109.6528         0.327941   
     46. A(N   1,C  11,H  13)          110.2625         0.328576   
     47. A(H  16,C  12,H  18)          109.0040         0.287539   
     48. A(H  14,C  12,H  18)          108.8938         0.288067   
     49. A(N   2,C  12,H  18)          109.5040         0.327889   
     50. A(H  14,C  12,H  16)          109.5007         0.288110   
     51. A(N   2,C  12,H  16)          109.6528         0.327941   
     52. A(N   2,C  12,H  14)          110.2625         0.328576   
     53. D(C  11,N   1,C   0,H  19)     -9.9506         0.044748   
     54. D(C  11,N   1,C   0,N   2)    170.0494         0.044748   
     55. D(C   3,N   1,C   0,N   2)    -11.6263         0.044748   
     56. D(C   3,N   1,C   0,H  19)    168.3737         0.044748   
     57. D(C  12,N   2,C   0,N   1)    170.0494         0.044748   
     58. D(C   4,N   2,C   0,N   1)    -11.6263         0.044748   
     59. D(C   4,N   2,C   0,H  19)    168.3737         0.044748   
     60. D(C  12,N   2,C   0,H  19)     -9.9506         0.044748   
     61. D(H   7,C   3,N   1,C   0)    -29.5351         0.015856   
     62. D(H   7,C   3,N   1,C  11)    148.8438         0.015856   
     63. D(H   9,C   3,N   1,C   0)     93.7232         0.015856   
     64. D(H   5,C   3,N   1,C  11)     31.0984         0.015856   
     65. D(H   9,C   3,N   1,C  11)    -87.8979         0.015856   
     66. D(H   5,C   3,N   1,C   0)   -147.2806         0.015856   
     67. D(H   6,C   4,N   2,C   0)   -147.2805         0.015856   
     68. D(H  10,C   4,N   2,C  12)    -87.8979         0.015856   
     69. D(H  10,C   4,N   2,C   0)     93.7232         0.015856   
     70. D(H   8,C   4,N   2,C  12)    148.8439         0.015856   
     71. D(H   8,C   4,N   2,C   0)    -29.5350         0.015856   
     72. D(H   6,C   4,N   2,C  12)     31.0984         0.015856   
     73. D(H  17,C  11,N   1,C   3)     62.3849         0.015741   
     74. D(H  17,C  11,N   1,C   0)   -119.1052         0.015741   
     75. D(H  15,C  11,N   1,C   3)    -57.1740         0.015741   
     76. D(H  15,C  11,N   1,C   0)    121.3360         0.015741   
     77. D(H  13,C  11,N   1,C   3)   -177.8170         0.015741   
     78. D(H  13,C  11,N   1,C   0)      0.6929         0.015741   
     79. D(H  16,C  12,N   2,C   4)    -57.1740         0.015741   
     80. D(H  16,C  12,N   2,C   0)    121.3360         0.015741   
     81. D(H  14,C  12,N   2,C   4)   -177.8170         0.015741   
     82. D(H  18,C  12,N   2,C   0)   -119.1052         0.015741   
     83. D(H  14,C  12,N   2,C   0)      0.6929         0.015741   
     84. D(H  18,C  12,N   2,C   4)     62.3849         0.015741   
    -----------------------------------------------------------------

Number of atoms                         .... 20
Number of degrees of freedom            .... 84

         *************************************************************
         *                GEOMETRY OPTIMIZATION CYCLE   1            *
         *************************************************************
---------------------------------
CARTESIAN COORDINATES (ANGSTROEM)
---------------------------------
  C      0.000000   -0.000000    0.663030
  N     -0.008672    1.193350    0.106160
  N      0.008672   -1.193350    0.106160
  C      0.226497    1.490792   -1.304696
  C     -0.226497   -1.490792   -1.304696
  H      0.722268    2.468843   -1.357227
  H     -0.722269   -2.468843   -1.357227
  H      0.895419    0.749044   -1.753175
  H     -0.895418   -0.749043   -1.753175
  H     -0.715601    1.543770   -1.870039
  H      0.715601   -1.543770   -1.870039
  C     -0.238701    2.362357    0.953325
  C      0.238701   -2.362357    0.953325
  H     -0.367192    2.054895    1.998059
  H      0.367192   -2.054895    1.998059
  H      0.616344    3.049633    0.875398
  H     -0.616344   -3.049633    0.875398
  H     -1.148638    2.883510    0.620895
  H      1.148638   -2.883511    0.620895
  H      0.000000    0.000000    1.758295

----------------------------
CARTESIAN COORDINATES (A.U.)
----------------------------
  NO LB      ZA    FRAG     MASS         X           Y           Z
   0 C     6.0000    0    12.011    0.000000   -0.000000    1.252945
   1 N     7.0000    0    14.007   -0.016388    2.255105    0.200613
   2 N     7.0000    0    14.007    0.016388   -2.255105    0.200613
   3 C     6.0000    0    12.011    0.428017    2.817189   -2.465518
   4 C     6.0000    0    12.011   -0.428017   -2.817189   -2.465518
   5 H     1.0000    0     1.008    1.364889    4.665437   -2.564787
   6 H     1.0000    0     1.008   -1.364891   -4.665437   -2.564787
   7 H     1.0000    0     1.008    1.692097    1.415488   -3.313021
   8 H     1.0000    0     1.008   -1.692095   -1.415486   -3.313021
   9 H     1.0000    0     1.008   -1.352290    2.917303   -3.533862
  10 H     1.0000    0     1.008    1.352290   -2.917303   -3.533862
  11 C     6.0000    0    12.011   -0.451080    4.464208    1.801523
  12 C     6.0000    0    12.011    0.451080   -4.464208    1.801523
  13 H     1.0000    0     1.008   -0.693892    3.883189    3.775784
  14 H     1.0000    0     1.008    0.693892   -3.883189    3.775784
  15 H     1.0000    0     1.008    1.164721    5.762971    1.654262
  16 H     1.0000    0     1.008   -1.164721   -5.762971    1.654262
  17 H     1.0000    0     1.008   -2.170611    5.449044    1.173322
  18 H     1.0000    0     1.008    2.170611   -5.449046    1.173322
  19 H     1.0000    0     1.008    0.000000    0.000000    3.322696

--------------------------------
INTERNAL COORDINATES (ANGSTROEM)
--------------------------------
 C      0   0   0     0.000000000000     0.00000000     0.00000000
 N      1   0   0     1.316914432674     0.00000000     0.00000000
 N      1   2   0     1.316914432674   129.96947521     0.00000000
 C      2   1   3     1.460921234927   126.28512299   348.37365532
 C      3   1   2     1.460921234927   126.28512299   348.37365532
 H      4   2   1     1.097785110576   107.47572328   212.71941273
 H      5   3   1     1.097785562187   107.47572467   212.71946153
 H      4   2   1     1.094888191109   110.85412477   330.46488344
 H      5   3   1     1.094888257624   110.85410303   330.46495905
 H      4   2   1     1.099985462512   111.60958497    93.72316381
 H      5   3   1     1.099985462512   111.60958497    93.72316381
 C      2   1   3     1.461909451408   118.72503004   170.04942467
 C      3   1   2     1.461909451408   118.72503004   170.04942467
 H     12   2   1     1.096591058363   110.26247370     0.69294864
 H     13   3   1     1.096591058363   110.26247370     0.69294864
 H     12   2   1     1.099783101129   109.65277344   121.33599698
 H     13   3   1     1.099783101129   109.65277344   121.33599698
 H     12   2   1     1.100043407452   109.50393903   240.89483732
 H     13   3   1     1.100043881209   109.50397448   240.89480643
 H      1   2   3     1.095265000000   115.01526240   180.00000000

---------------------------
INTERNAL COORDINATES (A.U.)
---------------------------
 C      0   0   0     0.000000000000     0.00000000     0.00000000
 N      1   0   0     2.488607619561     0.00000000     0.00000000
 N      1   2   0     2.488607619561   129.96947521     0.00000000
 C      2   1   3     2.760741037242   126.28512299   348.37365532
 C      3   1   2     2.760741037242   126.28512299   348.37365532
 H      4   2   1     2.074513212886   107.47572328   212.71941273
 H      5   3   1     2.074514066306   107.47572467   212.71946153
 H      4   2   1     2.069038828460   110.85412477   330.46488344
 H      5   3   1     2.069038954156   110.85410303   330.46495905
 H      4   2   1     2.078671275442   111.60958497    93.72316381
 H      5   3   1     2.078671275442   111.60958497    93.72316381
 C      2   1   3     2.762608495752   118.72503004   170.04942467
 C      3   1   2     2.762608495752   118.72503004   170.04942467
 H     12   2   1     2.072256781212   110.26247370     0.69294864
 H     13   3   1     2.072256781212   110.26247370     0.69294864
 H     12   2   1     2.078288867849   109.65277344   121.33599698
 H     13   3   1     2.078288867849   109.65277344   121.33599698
 H     12   2   1     2.078780775509   109.50393903   240.89483732
 H     13   3   1     2.078781670781   109.50397448   240.89480643
 H      1   2   3     2.069750894069   115.01526240   180.00000000

---------------------
BASIS SET INFORMATION
---------------------
There are 3 groups of distinct atoms

 Group   1 Type C   : 11s6p2d1f contracted to 5s3p2d1f pattern {62111/411/11/1}
 Group   2 Type N   : 11s6p2d1f contracted to 5s3p2d1f pattern {62111/411/11/1}
 Group   3 Type H   : 5s1p contracted to 3s1p pattern {311/1}

Atom   0C    basis set group =>   1
Atom   1N    basis set group =>   2
Atom   2N    basis set group =>   2
Atom   3C    basis set group =>   1
Atom   4C    basis set group =>   1
Atom   5H    basis set group =>   3
Atom   6H    basis set group =>   3
Atom   7H    basis set group =>   3
Atom   8H    basis set group =>   3
Atom   9H    basis set group =>   3
Atom  10H    basis set group =>   3
Atom  11C    basis set group =>   1
Atom  12C    basis set group =>   1
Atom  13H    basis set group =>   3
Atom  14H    basis set group =>   3
Atom  15H    basis set group =>   3
Atom  16H    basis set group =>   3
Atom  17H    basis set group =>   3
Atom  18H    basis set group =>   3
Atom  19H    basis set group =>   3
---------------------------------
AUXILIARY/J BASIS SET INFORMATION
---------------------------------
There are 3 groups of distinct atoms

 Group   1 Type C   : 12s5p4d2f1g contracted to 6s4p3d1f1g pattern {711111/2111/211/2/1}
 Group   2 Type N   : 12s5p4d2f1g contracted to 6s4p3d1f1g pattern {711111/2111/211/2/1}
 Group   3 Type H   : 5s2p1d contracted to 3s1p1d pattern {311/2/1}

Atom   0C    basis set group =>   1
Atom   1N    basis set group =>   2
Atom   2N    basis set group =>   2
Atom   3C    basis set group =>   1
Atom   4C    basis set group =>   1
Atom   5H    basis set group =>   3
Atom   6H    basis set group =>   3
Atom   7H    basis set group =>   3
Atom   8H    basis set group =>   3
Atom   9H    basis set group =>   3
Atom  10H    basis set group =>   3
Atom  11C    basis set group =>   1
Atom  12C    basis set group =>   1
Atom  13H    basis set group =>   3
Atom  14H    basis set group =>   3
Atom  15H    basis set group =>   3
Atom  16H    basis set group =>   3
Atom  17H    basis set group =>   3
Atom  18H    basis set group =>   3
Atom  19H    basis set group =>   3


           ************************************************************
           *        Program running with 4 parallel MPI-processes     *
           *              working on a common directory               *
           ************************************************************
------------------------------------------------------------------------------
                           ORCA GTO INTEGRAL CALCULATION
                           -- RI-GTO INTEGRALS CHOSEN --
------------------------------------------------------------------------------
------------------------------------------------------------------------------
                   ___                                                        
                  /   \      - P O W E R E D   B Y -                         
                 /     \                                                     
                 |  |  |   _    _      __       _____    __    __             
                 |  |  |  | |  | |    /  \     |  _  \  |  |  /  |          
                  \  \/   | |  | |   /    \    | | | |  |  | /  /          
                 / \  \   | |__| |  /  /\  \   | |_| |  |  |/  /          
                |  |  |   |  __  | /  /__\  \  |    /   |      \           
                |  |  |   | |  | | |   __   |  |    \   |  |\   \          
                \     /   | |  | | |  |  |  |  | |\  \  |  | \   \       
                 \___/    |_|  |_| |__|  |__|  |_| \__\ |__|  \__/        
                                                                              
                      - O R C A' S   B I G   F R I E N D -                    
                                      &                                       
                       - I N T E G R A L  F E E D E R -                       
                                                                              
 v1 FN, 2020, v2 2021                                                         
------------------------------------------------------------------------------


Reading SHARK input file 11_prot.SHARKINP.tmp ... ok
----------------------
SHARK INTEGRAL PACKAGE
----------------------

Number of atoms                             ...     20
Number of basis functions                   ...    295
Number of shells                            ...    129
Maximum angular momentum                    ...      3
Integral batch strategy                     ... SHARK/LIBINT Hybrid
RI-J (if used) integral strategy            ... SPLIT-RIJ (Revised 2003 algorithm where possible)
Printlevel                                  ...      1
Contraction scheme used                     ... SEGMENTED contraction
Coulomb Range Separation                    ... NOT USED
Exchange Range Separation                   ... Long Range
   Mu parameter                             ...  0.300000
   Scaling (regular/separated)              ...  0.157706  0.842294
Finite Nucleus Model                        ... NOT USED
Auxiliary Coulomb fitting basis             ... AVAILABLE
   # of basis functions in Aux-J            ...    486
   # of shells in Aux-J                     ...    170
   Maximum angular momentum in Aux-J        ...      4
Auxiliary J/K fitting basis                 ... NOT available
Auxiliary Correlation fitting basis         ... NOT available
Auxiliary 'external' fitting basis          ... NOT available
Integral threshold                          ...     2.500000e-11
Primitive cut-off                           ...     2.500000e-12
Primitive pair pre-selection threshold      ...     2.500000e-12

Calculating pre-screening integrals         ... done (  0.1 sec) Dimension = 129
Organizing shell pair data                  ... done (  0.1 sec)
Shell pair information
Total number of shell pairs                 ...      8385
Shell pairs after pre-screening             ...      7694
Total number of primitive shell pairs       ...     24064
Primitive shell pairs kept                  ...     16825
          la=0 lb=0:   2471 shell pairs
          la=1 lb=0:   2316 shell pairs
          la=1 lb=1:    551 shell pairs
          la=2 lb=0:    976 shell pairs
          la=2 lb=1:    450 shell pairs
          la=2 lb=2:    102 shell pairs
          la=3 lb=0:    476 shell pairs
          la=3 lb=1:    228 shell pairs
          la=3 lb=2:     96 shell pairs
          la=3 lb=3:     28 shell pairs

Calculating one electron integrals          ... done (  0.0 sec)
Calculating RI/J V-Matrix + Cholesky decomp.... done (  0.0 sec)
Calculating Nuclear repulsion               ... done (  0.0 sec) ENN=    332.982504626751 Eh

SHARK setup successfully completed in   0.4 seconds

Maximum memory used throughout the entire GTOINT-calculation: 20.8 MB


           ************************************************************
           *        Program running with 4 parallel MPI-processes     *
           *              working on a common directory               *
           ************************************************************
-------------------------------------------------------------------------------
                                 ORCA SCF
-------------------------------------------------------------------------------

------------
SCF SETTINGS
------------
Hamiltonian:
 Density Functional     Method          .... DFT(GTOs)
 Exchange Functional    Exchange        .... WB97X
 Correlation Functional Correlation     .... WB97X
 Gradients option       PostSCFGGA      .... off
 Hybrid DFT is turned on
   Fraction HF Exchange ScalHFX         ....  0.157706
   Scaling of DF-GGA-X  ScalDFX         ....  0.000000
   Scaling of DF-GGA-C  ScalDFC         ....  1.000000
   Scaling of DF-LDA-C  ScalLDAC        ....  1.000000
   Perturbative correction              ....  0.000000
   Density functional embedding theory  .... OFF
 Long-range corrected/Screened/Range-Separated Hybrid DFT is turned on
   Amount of maximum screened exact exchange              ....  0.842294
   Range separation parameter mu (erf(mu*r12)/r12)        ....  0.300000
 RI-approximation to the Coulomb term is turned on
   Number of AuxJ basis functions       .... 486
   RIJ-COSX (HFX calculated with COS-X)).... on


General Settings:
 Integral files         IntName         .... 11_prot
 Hartree-Fock type      HFTyp           .... RHF
 Total Charge           Charge          ....    1
 Multiplicity           Mult            ....    1
 Number of Electrons    NEL             ....   56
 Basis Dimension        Dim             ....  295
 Nuclear Repulsion      ENuc            ....    332.9825046268 Eh

Convergence Acceleration:
 DIIS                   CNVDIIS         .... on
   Start iteration      DIISMaxIt       ....     0
   Startup error        DIISStart       ....  0.200000
   # of expansion vecs  DIISMaxEq       ....     5
   Bias factor          DIISBfac        ....   1.050
   Max. coefficient     DIISMaxC        ....  10.000
 Trust-Rad. Augm. Hess. CNVTRAH         .... auto
   Auto Start mean grad. ratio tolernc. ....  1.125000
   Auto Start start iteration           ....    20
   Auto Start num. interpolation iter.  ....    10
   Max. Number of Micro iterations      ....    16
   Max. Number of Macro iterations      .... Maxiter - #DIIS iter
   Number of Davidson start vectors     ....     2
   Converg. threshold I  (grad. norm)   ....   1.000e-05
   Converg. threshold II (energy diff.) ....   1.000e-08
   Grad. Scal. Fac. for Micro threshold ....   0.100
   Minimum threshold for Micro iter.    ....   0.010
   NR start threshold (gradient norm)   ....   0.001
   Initial trust radius                 ....   0.400
   Minimum AH scaling param. (alpha)    ....   1.000
   Maximum AH scaling param. (alpha)    .... 1000.000
   Orbital update algorithm             .... Taylor
   White noise on init. David. guess    .... on
   Maximum white noise                  ....   0.010
   Quad. conv. algorithm                .... NR
 SOSCF                  CNVSOSCF        .... on
   Start iteration      SOSCFMaxIt      ....   150
   Startup grad/error   SOSCFStart      ....  0.001000
 Level Shifting         CNVShift        .... on
   Level shift para.    LevelShift      ....    0.2500
   Turn off err/grad.   ShiftErr        ....    0.0000
 Zerner damping         CNVZerner       .... off
 Static damping         CNVDamp         .... on
   Fraction old density DampFac         ....    0.8500
   Max. Damping (<1)    DampMax         ....    0.9800
   Min. Damping (>=0)   DampMin         ....    0.0000
   Turn off err/grad.   DampErr         ....    0.0300
 Fernandez-Rico         CNVRico         .... off

SCF Procedure:
 Maximum # iterations   MaxIter         ....   125
 SCF integral mode      SCFMode         .... Direct
   Integral package                     .... SHARK and LIBINT hybrid scheme
 Reset frequency        DirectResetFreq ....    20
 Integral Threshold     Thresh          ....  2.500e-11 Eh
 Primitive CutOff       TCut            ....  2.500e-12 Eh

Convergence Tolerance:
 Convergence Check Mode ConvCheckMode   .... Total+1el-Energy
 Convergence forced     ConvForced      .... 0
 Energy Change          TolE            ....  1.000e-08 Eh
 1-El. energy change                    ....  1.000e-05 Eh
 Orbital Gradient       TolG            ....  1.000e-05
 Orbital Rotation angle TolX            ....  1.000e-05
 DIIS Error             TolErr          ....  5.000e-07


Diagonalization of the overlap matrix:
Smallest eigenvalue                        ... 3.343e-04
Time for diagonalization                   ...    0.014 sec
Threshold for overlap eigenvalues          ... 1.000e-08
Number of eigenvalues below threshold      ... 0
Time for construction of square roots      ...    0.050 sec
Total time needed                          ...    0.065 sec

Time for model grid setup =    0.136 sec

------------------------------
INITIAL GUESS: MODEL POTENTIAL
------------------------------
Loading Hartree-Fock densities                     ... done
Calculating cut-offs                               ... done
Initializing the effective Hamiltonian             ... done
Setting up the integral package (SHARK)            ... done
Starting the Coulomb interaction                   ... done (   0.1 sec)
Reading the grid                                   ... done
Mapping shells                                     ... done
Starting the XC term evaluation                    ... done (   0.2 sec)
  promolecular density results
     # of electrons  =     56.988189651
     EX              =    -42.527112861
     EC              =     -1.869863004
     EX+EC           =    -44.396975864
Transforming the Hamiltonian                       ... done (   0.0 sec)
Diagonalizing the Hamiltonian                      ... done (   0.0 sec)
Back transforming the eigenvectors                 ... done (   0.0 sec)
Now organizing SCF variables                       ... done
                      ------------------
                      INITIAL GUESS DONE (   0.5 sec)
                      ------------------
-------------------
DFT GRID GENERATION
-------------------

General Integration Accuracy     IntAcc      ... 4.388
Radial Grid Type                 RadialGrid  ... OptM3 with GC (2021)
Angular Grid (max. ang.)         AngularGrid ... 4 (Lebedev-302)
Angular grid pruning method      GridPruning ... 4 (adaptive)
Weight generation scheme         WeightScheme... Becke
Basis function cutoff            BFCut       ... 1.0000e-11
Integration weight cutoff        WCut        ... 1.0000e-14
Angular grids for H and He will be reduced by one unit
Partially contracted basis set               ... off
Rotationally invariant grid construction     ... off

Total number of grid points                  ...    83805
Total number of batches                      ...     1322
Average number of points per batch           ...       63
Average number of grid points per atom       ...     4190
Time for grid setup =    0.546 sec

--------------------
COSX GRID GENERATION
--------------------

GRIDX 1
-------
General Integration Accuracy     IntAcc      ... 3.816
Radial Grid Type                 RadialGrid  ... OptM3 with GC (2021)
Angular Grid (max. ang.)         AngularGrid ... 1 (Lebedev-50)
Angular grid pruning method      GridPruning ... 4 (adaptive)
Weight generation scheme         WeightScheme... Becke
Basis function cutoff            BFCut       ... 1.0000e-11
Integration weight cutoff        WCut        ... 1.0000e-14
Angular grids for H and He will be reduced by one unit
Partially contracted basis set               ... on
Rotationally invariant grid construction     ... off

Total number of grid points                  ...    10789
Total number of batches                      ...      183
Average number of points per batch           ...       58
Average number of grid points per atom       ...      539
UseSFitting                                  ... on

GRIDX 2
-------
General Integration Accuracy     IntAcc      ... 4.020
Radial Grid Type                 RadialGrid  ... OptM3 with GC (2021)
Angular Grid (max. ang.)         AngularGrid ... 2 (Lebedev-110)
Angular grid pruning method      GridPruning ... 4 (adaptive)
Weight generation scheme         WeightScheme... Becke
Basis function cutoff            BFCut       ... 1.0000e-11
Integration weight cutoff        WCut        ... 1.0000e-14
Angular grids for H and He will be reduced by one unit
Partially contracted basis set               ... on
Rotationally invariant grid construction     ... off

Total number of grid points                  ...    22359
Total number of batches                      ...      358
Average number of points per batch           ...       62
Average number of grid points per atom       ...     1118
UseSFitting                                  ... on

GRIDX 3
-------
General Integration Accuracy     IntAcc      ... 4.338
Radial Grid Type                 RadialGrid  ... OptM3 with GC (2021)
Angular Grid (max. ang.)         AngularGrid ... 3 (Lebedev-194)
Angular grid pruning method      GridPruning ... 4 (adaptive)
Weight generation scheme         WeightScheme... Becke
Basis function cutoff            BFCut       ... 1.0000e-11
Integration weight cutoff        WCut        ... 1.0000e-14
Angular grids for H and He will be reduced by one unit
Partially contracted basis set               ... on
Rotationally invariant grid construction     ... off

Total number of grid points                  ...    48762
Total number of batches                      ...      774
Average number of points per batch           ...       63
Average number of grid points per atom       ...     2438
UseSFitting                                  ... on

Time for X-Grid setup             =    0.716 sec


--------------------
CPCM SOLVATION MODEL
--------------------
CPCM parameters:
  Epsilon                                         ...      80.4000
  Refrac                                          ...       1.3300
  Rsolv                                           ...       1.3000
  Surface type                                    ... GAUSSIAN VDW
  Epsilon function type                           ...         CPCM
Radii:
 Radius for C  used is    3.8550 Bohr (=   2.0400 Ang.)
 Radius for N  used is    3.5149 Bohr (=   1.8600 Ang.)
 Radius for H  used is    2.4944 Bohr (=   1.3200 Ang.)
Calculating surface                               ...        done! (  0.0s)
GEPOL surface points                              ...         1101
GEPOL Volume                                      ...    1008.7214
GEPOL Surface-area                                ...     588.8496
Calculating surface distance matrix               ...        done! (  0.0s)
Performing Cholesky decomposition & store         ...        done! (  0.0s)
Overall time for CPCM initialization              ...                 0.1s
--------------
SCF ITERATIONS
--------------
ITER       Energy         Delta-E        Max-DP      RMS-DP      [F,P]     Damp
               ***  Starting incremental Fock matrix formation  ***
  0   -307.6185518600   0.000000000000 0.01153780  0.00026348  0.1230761 0.8500
  1   -307.6438203339  -0.025268473980 0.01002484  0.00025591  0.0993165 0.8500
                               ***Turning on DIIS***
  2   -307.6628644622  -0.019044128283 0.00772304  0.00021049  0.0765263 0.8500
  3   -307.6769902857  -0.014125823522 0.00517219  0.00015655  0.0582793 0.8500
  4   -307.6878962829  -0.010905997130 0.00418884  0.00012345  0.0465349 0.8500
  5   -307.6964909136  -0.008594630745 0.00349487  0.00010279  0.0385982 0.8500
  6   -307.7034858128  -0.006994899182 0.00294877  0.00008751  0.0325865 0.8500
  7   -307.7092827221  -0.005796909291 0.01663284  0.00050391  0.0276899 0.0000
  8   -307.7402785305  -0.030995808408 0.00067797  0.00001799  0.0010599 0.0000
                      *** Initiating the SOSCF procedure ***
                           *** Shutting down DIIS ***
                      *** Re-Reading the Fockian *** 
                      *** Removing any level shift *** 
ITER      Energy       Delta-E        Grad      Rot      Max-DP    RMS-DP
  9   -307.74028894  -0.0000104068  0.000235  0.000235  0.000299  0.000008
               *** Restarting incremental Fock matrix formation ***
 10   -307.74029396  -0.0000050198  0.000245  0.000466  0.000225  0.000006
 11   -307.74029443  -0.0000004681  0.000068  0.000174  0.000105  0.000003
 12   -307.74029455  -0.0000001251  0.000025  0.000027  0.000027  0.000001
 13   -307.74029457  -0.0000000160  0.000003  0.000004  0.000006  0.000000
                  ***Gradient check signals convergence***
              ***Rediagonalizing the Fockian in SOSCF/NRSCF***

               *****************************************************
               *                     SUCCESS                       *
               *           SCF CONVERGED AFTER  14 CYCLES          *
               *****************************************************

Old exchange energy                            =    -14.236021745 Eh
New exchange energy                            =    -14.236025444 Eh
Exchange energy change after final integration =     -0.000003699 Eh
Total energy after final integration           =   -307.740298269 Eh
Final COS-X integration done in                =    15.117 sec

----------------
TOTAL SCF ENERGY
----------------

Total Energy       :         -307.74029827 Eh           -8374.03924 eV

Components:
Nuclear Repulsion  :          332.98250463 Eh            9060.91460 eV
Electronic Energy  :         -640.72280290 Eh          -17434.95384 eV
One Electron Energy:        -1062.58257301 Eh          -28914.34179 eV
Two Electron Energy:          421.85977011 Eh           11479.38795 eV
Max COSX asymmetry :            0.00000087 Eh               0.00002 eV
CPCM Dielectric    :           -0.08323243 Eh              -2.26487 eV

Virial components:
Potential Energy   :         -613.80616022 Eh          -16702.51476 eV
Kinetic Energy     :          306.06586195 Eh            8328.47552 eV
Virial Ratio       :            2.00547084


DFT components:
N(Alpha)           :       27.999950309988 electrons
N(Beta)            :       27.999950309988 electrons
N(Total)           :       55.999900619977 electrons
E(XC)              :      -31.295017551654 Eh       
DFET-embed. en.    :        0.000000000000 Eh       
CPCM Solvation Model Properties:
Surface-charge          :           -1.01932605
Charge-correction       :            0.00157806 Eh               0.04294 eV
Free-energy (cav+disp)  :  This term is not implemented in the current solvation scheme

---------------
SCF CONVERGENCE
---------------

  Last Energy change         ...   -3.8198e-09  Tolerance :   1.0000e-08
  Last MAX-Density change    ...    1.2212e-15  Tolerance :   1.0000e-07
  Last RMS-Density change    ...    1.7465e-17  Tolerance :   5.0000e-09
  Last Orbital Gradient      ...    1.2051e-06  Tolerance :   1.0000e-05
  Last Orbital Rotation      ...    4.4116e-06  Tolerance :   1.0000e-05

             **** THE GBW FILE WAS UPDATED (11_prot.gbw) ****
             **** DENSITY 11_prot.scfp WAS UPDATED ****
             **** ENERGY FILE WAS UPDATED (11_prot.en.tmp) ****
             **** THE GBW FILE WAS UPDATED (11_prot.gbw) ****
             **** DENSITY 11_prot.scfp WAS UPDATED ****
----------------
ORBITAL ENERGIES
----------------

  NO   OCC          E(Eh)            E(eV) 
   0   2.0000     -14.473057      -393.8319 
   1   2.0000     -14.473040      -393.8314 
   2   2.0000     -10.382199      -282.5140 
   3   2.0000     -10.301001      -280.3045 
   4   2.0000     -10.301000      -280.3045 
   5   2.0000     -10.300143      -280.2811 
   6   2.0000     -10.300142      -280.2811 
   7   2.0000      -1.160394       -31.5759 
   8   2.0000      -1.096605       -29.8401 
   9   2.0000      -0.901968       -24.5438 
  10   2.0000      -0.878492       -23.9050 
  11   2.0000      -0.862150       -23.4603 
  12   2.0000      -0.811659       -22.0864 
  13   2.0000      -0.713606       -19.4182 
  14   2.0000      -0.655801       -17.8453 
  15   2.0000      -0.651414       -17.7259 
  16   2.0000      -0.626747       -17.0546 
  17   2.0000      -0.589851       -16.0507 
  18   2.0000      -0.577304       -15.7092 
  19   2.0000      -0.550890       -14.9905 
  20   2.0000      -0.530491       -14.4354 
  21   2.0000      -0.528875       -14.3914 
  22   2.0000      -0.518333       -14.1046 
  23   2.0000      -0.517771       -14.0893 
  24   2.0000      -0.508427       -13.8350 
  25   2.0000      -0.485476       -13.2105 
  26   2.0000      -0.469669       -12.7803 
  27   2.0000      -0.357251        -9.7213 
  28   0.0000       0.055829         1.5192 
  29   0.0000       0.109803         2.9879 
  30   0.0000       0.139649         3.8000 
  31   0.0000       0.146835         3.9956 
  32   0.0000       0.161110         4.3840 
  33   0.0000       0.164370         4.4727 
  34   0.0000       0.169687         4.6174 
  35   0.0000       0.184335         5.0160 
  36   0.0000       0.188694         5.1346 
  37   0.0000       0.196813         5.3555 
  38   0.0000       0.201583         5.4854 
  39   0.0000       0.209748         5.7075 
  40   0.0000       0.215567         5.8659 
  41   0.0000       0.227627         6.1940 
  42   0.0000       0.231528         6.3002 
  43   0.0000       0.243500         6.6260 
  44   0.0000       0.261175         7.1069 
  45   0.0000       0.263198         7.1620 
  46   0.0000       0.281741         7.6665 
  47   0.0000       0.284718         7.7476 
  48   0.0000       0.304522         8.2865 
  49   0.0000       0.319652         8.6982 
  50   0.0000       0.335608         9.1323 
  51   0.0000       0.339662         9.2427 
  52   0.0000       0.346027         9.4159 
  53   0.0000       0.353824         9.6280 
  54   0.0000       0.386403        10.5145 
  55   0.0000       0.390448        10.6246 
  56   0.0000       0.393918        10.7191 
  57   0.0000       0.412086        11.2134 
  58   0.0000       0.427208        11.6249 
  59   0.0000       0.447711        12.1828 
  60   0.0000       0.452772        12.3206 
  61   0.0000       0.457566        12.4510 
  62   0.0000       0.480021        13.0620 
  63   0.0000       0.497023        13.5247 
  64   0.0000       0.501813        13.6550 
  65   0.0000       0.510020        13.8784 
  66   0.0000       0.525349        14.2955 
  67   0.0000       0.529975        14.4214 
  68   0.0000       0.548064        14.9136 
  69   0.0000       0.558988        15.2108 
  70   0.0000       0.560548        15.2533 
  71   0.0000       0.565492        15.3878 
  72   0.0000       0.566460        15.4142 
  73   0.0000       0.579904        15.7800 
  74   0.0000       0.593407        16.1474 
  75   0.0000       0.600563        16.3422 
  76   0.0000       0.616747        16.7825 
  77   0.0000       0.618535        16.8312 
  78   0.0000       0.626386        17.0448 
  79   0.0000       0.632651        17.2153 
  80   0.0000       0.642061        17.4714 
  81   0.0000       0.647365        17.6157 
  82   0.0000       0.674265        18.3477 
  83   0.0000       0.694486        18.8979 
  84   0.0000       0.702993        19.1294 
  85   0.0000       0.743913        20.2429 
  86   0.0000       0.747584        20.3428 
  87   0.0000       0.757686        20.6177 
  88   0.0000       0.796808        21.6822 
  89   0.0000       0.813632        22.1400 
  90   0.0000       0.829292        22.5662 
  91   0.0000       0.848730        23.0951 
  92   0.0000       0.905701        24.6454 
  93   0.0000       0.916750        24.9460 
  94   0.0000       0.937119        25.5003 
  95   0.0000       0.965566        26.2744 
  96   0.0000       0.965774        26.2801 
  97   0.0000       0.977250        26.5923 
  98   0.0000       1.007455        27.4142 
  99   0.0000       1.042230        28.3605 
 100   0.0000       1.057725        28.7822 
 101   0.0000       1.099188        29.9104 
 102   0.0000       1.117074        30.3971 
 103   0.0000       1.122415        30.5425 
 104   0.0000       1.125505        30.6265 
 105   0.0000       1.146297        31.1923 
 106   0.0000       1.152755        31.3681 
 107   0.0000       1.156993        31.4834 
 108   0.0000       1.182631        32.1810 
 109   0.0000       1.194322        32.4991 
 110   0.0000       1.206624        32.8339 
 111   0.0000       1.238168        33.6923 
 112   0.0000       1.340630        36.4804 
 113   0.0000       1.340915        36.4881 
 114   0.0000       1.435495        39.0618 
 115   0.0000       1.454087        39.5677 
 116   0.0000       1.485274        40.4164 
 117   0.0000       1.485728        40.4287 
 118   0.0000       1.519143        41.3380 
 119   0.0000       1.546688        42.0875 
 120   0.0000       1.582456        43.0608 
 121   0.0000       1.582645        43.0660 
 122   0.0000       1.593038        43.3488 
 123   0.0000       1.596832        43.4520 
 124   0.0000       1.604278        43.6546 
 125   0.0000       1.626002        44.2458 
 126   0.0000       1.632072        44.4110 
 127   0.0000       1.637092        44.5475 
 128   0.0000       1.647083        44.8194 
 129   0.0000       1.652411        44.9644 
 130   0.0000       1.655568        45.0503 
 131   0.0000       1.671633        45.4874 
 132   0.0000       1.684316        45.8326 
 133   0.0000       1.695185        46.1283 
 134   0.0000       1.705017        46.3959 
 135   0.0000       1.718641        46.7666 
 136   0.0000       1.719254        46.7833 
 137   0.0000       1.741678        47.3935 
 138   0.0000       1.759311        47.8733 
 139   0.0000       1.760423        47.9035 
 140   0.0000       1.772905        48.2432 
 141   0.0000       1.828043        49.7436 
 142   0.0000       1.867251        50.8105 
 143   0.0000       1.915121        52.1131 
 144   0.0000       1.928531        52.4780 
 145   0.0000       1.975229        53.7487 
 146   0.0000       1.980115        53.8817 
 147   0.0000       1.983169        53.9648 
 148   0.0000       2.016355        54.8678 
 149   0.0000       2.020811        54.9891 
 150   0.0000       2.060718        56.0750 
 151   0.0000       2.077217        56.5239 
 152   0.0000       2.094547        56.9955 
 153   0.0000       2.107182        57.3393 
 154   0.0000       2.123361        57.7796 
 155   0.0000       2.186042        59.4852 
 156   0.0000       2.188597        59.5548 
 157   0.0000       2.198784        59.8320 
 158   0.0000       2.218828        60.3774 
 159   0.0000       2.269417        61.7540 
 160   0.0000       2.285049        62.1794 
 161   0.0000       2.285938        62.2035 
 162   0.0000       2.331040        63.4308 
 163   0.0000       2.342218        63.7350 
 164   0.0000       2.346254        63.8448 
 165   0.0000       2.400273        65.3147 
 166   0.0000       2.401633        65.3517 
 167   0.0000       2.413601        65.6774 
 168   0.0000       2.424454        65.9727 
 169   0.0000       2.428587        66.0852 
 170   0.0000       2.434766        66.2534 
 171   0.0000       2.455664        66.8220 
 172   0.0000       2.467302        67.1387 
 173   0.0000       2.473246        67.3005 
 174   0.0000       2.492958        67.8368 
 175   0.0000       2.518413        68.5295 
 176   0.0000       2.551498        69.4298 
 177   0.0000       2.555442        69.5371 
 178   0.0000       2.566326        69.8333 
 179   0.0000       2.601718        70.7963 
 180   0.0000       2.607690        70.9589 
 181   0.0000       2.623353        71.3851 
 182   0.0000       2.642865        71.9160 
 183   0.0000       2.657176        72.3054 
 184   0.0000       2.667237        72.5792 
 185   0.0000       2.690232        73.2049 
 186   0.0000       2.693255        73.2872 
 187   0.0000       2.697411        73.4003 
 188   0.0000       2.722298        74.0775 
 189   0.0000       2.751062        74.8602 
 190   0.0000       2.755883        74.9914 
 191   0.0000       2.772593        75.4461 
 192   0.0000       2.800645        76.2094 
 193   0.0000       2.824724        76.8646 
 194   0.0000       2.857247        77.7497 
 195   0.0000       2.874636        78.2228 
 196   0.0000       2.917131        79.3792 
 197   0.0000       2.949957        80.2724 
 198   0.0000       3.004676        81.7614 
 199   0.0000       3.054175        83.1083 
 200   0.0000       3.082816        83.8877 
 201   0.0000       3.094775        84.2131 
 202   0.0000       3.102801        84.4315 
 203   0.0000       3.113778        84.7302 
 204   0.0000       3.148110        85.6644 
 205   0.0000       3.169011        86.2332 
 206   0.0000       3.204360        87.1951 
 207   0.0000       3.212738        87.4231 
 208   0.0000       3.220289        87.6285 
 209   0.0000       3.239166        88.1422 
 210   0.0000       3.258501        88.6683 
 211   0.0000       3.283237        89.3414 
 212   0.0000       3.297838        89.7387 
 213   0.0000       3.302097        89.8546 
 214   0.0000       3.312595        90.1403 
 215   0.0000       3.322634        90.4135 
 216   0.0000       3.349233        91.1373 
 217   0.0000       3.351281        91.1930 
 218   0.0000       3.385022        92.1111 
 219   0.0000       3.402149        92.5772 
 220   0.0000       3.429279        93.3154 
 221   0.0000       3.431864        93.3858 
 222   0.0000       3.446428        93.7821 
 223   0.0000       3.452780        93.9549 
 224   0.0000       3.465527        94.3018 
 225   0.0000       3.490190        94.9729 
 226   0.0000       3.490795        94.9894 
 227   0.0000       3.497665        95.1763 
 228   0.0000       3.546252        96.4984 
 229   0.0000       3.592683        97.7619 
 230   0.0000       3.608798        98.2004 
 231   0.0000       3.639707        99.0415 
 232   0.0000       3.651059        99.3504 
 233   0.0000       3.659300        99.5746 
 234   0.0000       3.666425        99.7685 
 235   0.0000       3.666479        99.7700 
 236   0.0000       3.703582       100.7796 
 237   0.0000       3.747403       101.9720 
 238   0.0000       3.768271       102.5399 
 239   0.0000       3.788917       103.1017 
 240   0.0000       3.794476       103.2529 
 241   0.0000       3.866746       105.2195 
 242   0.0000       3.876920       105.4964 
 243   0.0000       3.945075       107.3509 
 244   0.0000       3.950572       107.5005 
 245   0.0000       4.018948       109.3611 
 246   0.0000       4.084242       111.1379 
 247   0.0000       4.087455       111.2253 
 248   0.0000       4.157346       113.1271 
 249   0.0000       4.161511       113.2405 
 250   0.0000       4.204515       114.4107 
 251   0.0000       4.240059       115.3779 
 252   0.0000       4.259292       115.9012 
 253   0.0000       4.318652       117.5165 
 254   0.0000       4.330534       117.8398 
 255   0.0000       4.369007       118.8867 
 256   0.0000       4.402203       119.7900 
 257   0.0000       4.443472       120.9130 
 258   0.0000       4.473246       121.7232 
 259   0.0000       4.491233       122.2127 
 260   0.0000       4.520980       123.0221 
 261   0.0000       4.540986       123.5665 
 262   0.0000       4.613885       125.5502 
 263   0.0000       4.657214       126.7292 
 264   0.0000       4.883386       132.8837 
 265   0.0000       4.910915       133.6328 
 266   0.0000       4.970414       135.2519 
 267   0.0000       5.014831       136.4605 
 268   0.0000       5.115997       139.2134 
 269   0.0000       5.136236       139.7641 
 270   0.0000       5.177816       140.8955 
 271   0.0000       5.186302       141.1264 
 272   0.0000       5.215924       141.9325 
 273   0.0000       5.218972       142.0154 
 274   0.0000       5.251112       142.8900 
 275   0.0000       5.321753       144.8123 
 276   0.0000       5.397028       146.8606 
 277   0.0000       5.408226       147.1653 
 278   0.0000       5.425590       147.6378 
 279   0.0000       5.474458       148.9676 
 280   0.0000       5.557788       151.2351 
 281   0.0000       5.660372       154.0265 
 282   0.0000       5.816873       158.2852 
 283   0.0000       5.824259       158.4862 
 284   0.0000       5.879852       159.9989 
 285   0.0000       5.968208       162.4032 
 286   0.0000       6.011413       163.5789 
 287   0.0000       6.295850       171.3188 
 288   0.0000      22.392261       609.3244 
 289   0.0000      22.398900       609.5051 
 290   0.0000      22.459321       611.1492 
 291   0.0000      22.492519       612.0525 
 292   0.0000      23.169213       630.4663 
 293   0.0000      32.705770       889.9693 
 294   0.0000      32.807581       892.7397 

                    ********************************
                    * MULLIKEN POPULATION ANALYSIS *
                    ********************************

-----------------------
MULLIKEN ATOMIC CHARGES
-----------------------
   0 C :    0.161157
   1 N :   -0.075919
   2 N :   -0.075922
   3 C :   -0.356902
   4 C :   -0.356904
   5 H :    0.172673
   6 H :    0.172675
   7 H :    0.182256
   8 H :    0.182257
   9 H :    0.189739
  10 H :    0.189739
  11 C :   -0.291269
  12 C :   -0.291269
  13 H :    0.158349
  14 H :    0.158350
  15 H :    0.167701
  16 H :    0.167701
  17 H :    0.168411
  18 H :    0.168410
  19 H :    0.208767
Sum of atomic charges:    1.0000000

--------------------------------
MULLIKEN REDUCED ORBITAL CHARGES
--------------------------------
  0 C s       :     3.077304  s :     3.077304
      pz      :     1.010641  p :     2.576606
      px      :     0.790751
      py      :     0.775215
      dz2     :     0.034610  d :     0.169082
      dxz     :     0.007104
      dyz     :     0.037760
      dx2y2   :     0.013471
      dxy     :     0.076137
      f0      :     0.001058  f :     0.015851
      f+1     :     0.000022
      f-1     :     0.003704
      f+2     :     0.002149
      f-2     :     0.002772
      f+3     :     0.004068
      f-3     :     0.002078
  1 N s       :     3.417296  s :     3.417296
      pz      :     1.065477  p :     3.570520
      px      :     1.459708
      py      :     1.045335
      dz2     :     0.019226  d :     0.082940
      dxz     :     0.011834
      dyz     :     0.026352
      dx2y2   :     0.009548
      dxy     :     0.015979
      f0      :     0.000664  f :     0.005164
      f+1     :     0.000498
      f-1     :     0.001207
      f+2     :     0.000744
      f-2     :     0.000518
      f+3     :     0.000857
      f-3     :     0.000677
  2 N s       :     3.417299  s :     3.417299
      pz      :     1.065478  p :     3.570518
      px      :     1.459707
      py      :     1.045332
      dz2     :     0.019227  d :     0.082941
      dxz     :     0.011834
      dyz     :     0.026353
      dx2y2   :     0.009547
      dxy     :     0.015979
      f0      :     0.000664  f :     0.005164
      f+1     :     0.000498
      f-1     :     0.001207
      f+2     :     0.000744
      f-2     :     0.000518
      f+3     :     0.000857
      f-3     :     0.000677
  3 C s       :     3.321069  s :     3.321069
      pz      :     0.750546  p :     2.963744
      px      :     1.098237
      py      :     1.114960
      dz2     :     0.014947  d :     0.066970
      dxz     :     0.024287
      dyz     :     0.012219
      dx2y2   :     0.005066
      dxy     :     0.010450
      f0      :     0.001637  f :     0.005119
      f+1     :     0.001460
      f-1     :     0.001103
      f+2     :     0.000171
      f-2     :     0.000271
      f+3     :     0.000477
      f-3     :    -0.000001
  4 C s       :     3.321070  s :     3.321070
      pz      :     0.750545  p :     2.963745
      px      :     1.098239
      py      :     1.114961
      dz2     :     0.014947  d :     0.066970
      dxz     :     0.024288
      dyz     :     0.012219
      dx2y2   :     0.005066
      dxy     :     0.010450
      f0      :     0.001637  f :     0.005119
      f+1     :     0.001460
      f-1     :     0.001103
      f+2     :     0.000171
      f-2     :     0.000271
      f+3     :     0.000477
      f-3     :    -0.000001
  5 H s       :     0.805181  s :     0.805181
      pz      :     0.003227  p :     0.022146
      px      :     0.006311
      py      :     0.012607
  6 H s       :     0.805179  s :     0.805179
      pz      :     0.003227  p :     0.022146
      px      :     0.006311
      py      :     0.012607
  7 H s       :     0.795665  s :     0.795665
      pz      :     0.005430  p :     0.022079
      px      :     0.008003
      py      :     0.008645
  8 H s       :     0.795664  s :     0.795664
      pz      :     0.005430  p :     0.022078
      px      :     0.008003
      py      :     0.008645
  9 H s       :     0.788802  s :     0.788802
      pz      :     0.006179  p :     0.021459
      px      :     0.011288
      py      :     0.003993
 10 H s       :     0.788801  s :     0.788801
      pz      :     0.006179  p :     0.021459
      px      :     0.011288
      py      :     0.003993
 11 C s       :     3.301757  s :     3.301757
      pz      :     0.973729  p :     2.915726
      px      :     1.086970
      py      :     0.855027
      dz2     :     0.014953  d :     0.068521
      dxz     :     0.006518
      dyz     :     0.012061
      dx2y2   :     0.007672
      dxy     :     0.027316
      f0      :     0.000653  f :     0.005265
      f+1     :    -0.000016
      f-1     :     0.001327
      f+2     :     0.000621
      f-2     :     0.001049
      f+3     :     0.000715
      f-3     :     0.000916
 12 C s       :     3.301755  s :     3.301755
      pz      :     0.973731  p :     2.915726
      px      :     1.086971
      py      :     0.855025
      dz2     :     0.014955  d :     0.068523
      dxz     :     0.006518
      dyz     :     0.012061
      dx2y2   :     0.007672
      dxy     :     0.027316
      f0      :     0.000653  f :     0.005265
      f+1     :    -0.000016
      f-1     :     0.001327
      f+2     :     0.000621
      f-2     :     0.001049
      f+3     :     0.000715
      f-3     :     0.000916
 13 H s       :     0.819510  s :     0.819510
      pz      :     0.014232  p :     0.022141
      px      :     0.004264
      py      :     0.003645
 14 H s       :     0.819508  s :     0.819508
      pz      :     0.014232  p :     0.022141
      px      :     0.004264
      py      :     0.003645
 15 H s       :     0.810765  s :     0.810765
      pz      :     0.003521  p :     0.021535
      px      :     0.009995
      py      :     0.008019
 16 H s       :     0.810764  s :     0.810764
      pz      :     0.003521  p :     0.021535
      px      :     0.009995
      py      :     0.008019
 17 H s       :     0.810152  s :     0.810152
      pz      :     0.004231  p :     0.021438
      px      :     0.011144
      py      :     0.006063
 18 H s       :     0.810153  s :     0.810153
      pz      :     0.004231  p :     0.021438
      px      :     0.011144
      py      :     0.006063
 19 H s       :     0.768159  s :     0.768159
      pz      :     0.017485  p :     0.023074
      px      :     0.002902
      py      :     0.002688


                     *******************************
                     * LOEWDIN POPULATION ANALYSIS *
                     *******************************

----------------------
LOEWDIN ATOMIC CHARGES
----------------------
   0 C :   -0.159951
   1 N :    0.184908
   2 N :    0.184908
   3 C :   -0.254333
   4 C :   -0.254333
   5 H :    0.138147
   6 H :    0.138147
   7 H :    0.136510
   8 H :    0.136510
   9 H :    0.133078
  10 H :    0.133078
  11 C :   -0.247619
  12 C :   -0.247619
  13 H :    0.135525
  14 H :    0.135525
  15 H :    0.131368
  16 H :    0.131368
  17 H :    0.132907
  18 H :    0.132907
  19 H :    0.178973

-------------------------------
LOEWDIN REDUCED ORBITAL CHARGES
-------------------------------
  0 C s       :     2.759714  s :     2.759714
      pz      :     0.999767  p :     2.707163
      px      :     0.770088
      py      :     0.937308
      dz2     :     0.137915  d :     0.610565
      dxz     :     0.014929
      dyz     :     0.144697
      dx2y2   :     0.110495
      dxy     :     0.202530
      f0      :     0.006183  f :     0.082508
      f+1     :     0.000071
      f-1     :     0.022364
      f+2     :     0.012306
      f-2     :     0.018194
      f+3     :     0.011603
      f-3     :     0.011786
  1 N s       :     2.876957  s :     2.876957
      pz      :     1.163369  p :     3.611276
      px      :     1.286263
      py      :     1.161644
      dz2     :     0.076285  d :     0.305759
      dxz     :     0.038582
      dyz     :     0.105939
      dx2y2   :     0.038418
      dxy     :     0.046535
      f0      :     0.002393  f :     0.021100
      f+1     :     0.002075
      f-1     :     0.006660
      f+2     :     0.002938
      f-2     :     0.002409
      f+3     :     0.002162
      f-3     :     0.002464
  2 N s       :     2.876957  s :     2.876957
      pz      :     1.163369  p :     3.611276
      px      :     1.286263
      py      :     1.161644
      dz2     :     0.076286  d :     0.305759
      dxz     :     0.038582
      dyz     :     0.105939
      dx2y2   :     0.038418
      dxy     :     0.046535
      f0      :     0.002393  f :     0.021100
      f+1     :     0.002075
      f-1     :     0.006660
      f+2     :     0.002938
      f-2     :     0.002409
      f+3     :     0.002162
      f-3     :     0.002464
  3 C s       :     2.837077  s :     2.837077
      pz      :     0.883999  p :     3.076234
      px      :     1.099530
      py      :     1.092704
      dz2     :     0.085412  d :     0.303131
      dxz     :     0.099761
      dyz     :     0.053863
      dx2y2   :     0.023862
      dxy     :     0.040233
      f0      :     0.010794  f :     0.037892
      f+1     :     0.008319
      f-1     :     0.008692
      f+2     :     0.003880
      f-2     :     0.002951
      f+3     :     0.002581
      f-3     :     0.000675
  4 C s       :     2.837077  s :     2.837077
      pz      :     0.883999  p :     3.076234
      px      :     1.099530
      py      :     1.092704
      dz2     :     0.085412  d :     0.303131
      dxz     :     0.099761
      dyz     :     0.053863
      dx2y2   :     0.023862
      dxy     :     0.040233
      f0      :     0.010794  f :     0.037892
      f+1     :     0.008319
      f-1     :     0.008692
      f+2     :     0.003880
      f-2     :     0.002951
      f+3     :     0.002581
      f-3     :     0.000675
  5 H s       :     0.800596  s :     0.800596
      pz      :     0.008904  p :     0.061257
      px      :     0.018530
      py      :     0.033822
  6 H s       :     0.800596  s :     0.800596
      pz      :     0.008904  p :     0.061257
      px      :     0.018530
      py      :     0.033822
  7 H s       :     0.800760  s :     0.800760
      pz      :     0.014291  p :     0.062730
      px      :     0.023257
      py      :     0.025182
  8 H s       :     0.800760  s :     0.800760
      pz      :     0.014291  p :     0.062730
      px      :     0.023257
      py      :     0.025182
  9 H s       :     0.805444  s :     0.805444
      pz      :     0.016745  p :     0.061478
      px      :     0.031763
      py      :     0.012970
 10 H s       :     0.805444  s :     0.805444
      pz      :     0.016745  p :     0.061478
      px      :     0.031763
      py      :     0.012970
 11 C s       :     2.838591  s :     2.838591
      pz      :     1.020729  p :     3.065047
      px      :     1.099671
      py      :     0.944647
      dz2     :     0.076201  d :     0.305948
      dxz     :     0.022233
      dyz     :     0.063303
      dx2y2   :     0.037546
      dxy     :     0.106666
      f0      :     0.003296  f :     0.038033
      f+1     :     0.002094
      f-1     :     0.007989
      f+2     :     0.007864
      f-2     :     0.007404
      f+3     :     0.003863
      f-3     :     0.005522
 12 C s       :     2.838591  s :     2.838591
      pz      :     1.020729  p :     3.065047
      px      :     1.099671
      py      :     0.944647
      dz2     :     0.076201  d :     0.305948
      dxz     :     0.022233
      dyz     :     0.063303
      dx2y2   :     0.037546
      dxy     :     0.106666
      f0      :     0.003296  f :     0.038033
      f+1     :     0.002094
      f-1     :     0.007989
      f+2     :     0.007864
      f-2     :     0.007404
      f+3     :     0.003863
      f-3     :     0.005522
 13 H s       :     0.803060  s :     0.803060
      pz      :     0.036450  p :     0.061416
      px      :     0.013434
      py      :     0.011531
 14 H s       :     0.803059  s :     0.803059
      pz      :     0.036450  p :     0.061416
      px      :     0.013434
      py      :     0.011531
 15 H s       :     0.807787  s :     0.807787
      pz      :     0.011357  p :     0.060845
      px      :     0.028513
      py      :     0.020975
 16 H s       :     0.807787  s :     0.807787
      pz      :     0.011357  p :     0.060845
      px      :     0.028513
      py      :     0.020975
 17 H s       :     0.806133  s :     0.806133
      pz      :     0.013610  p :     0.060961
      px      :     0.030952
      py      :     0.016398
 18 H s       :     0.806133  s :     0.806133
      pz      :     0.013610  p :     0.060960
      px      :     0.030952
      py      :     0.016398
 19 H s       :     0.761385  s :     0.761385
      pz      :     0.043373  p :     0.059642
      px      :     0.009332
      py      :     0.006937


                      *****************************
                      * MAYER POPULATION ANALYSIS *
                      *****************************

  NA   - Mulliken gross atomic population
  ZA   - Total nuclear charge
  QA   - Mulliken gross atomic charge
  VA   - Mayer's total valence
  BVA  - Mayer's bonded valence
  FA   - Mayer's free valence

  ATOM       NA         ZA         QA         VA         BVA        FA
  0 C      5.8388     6.0000     0.1612     3.9927     3.9927     0.0000
  1 N      7.0759     7.0000    -0.0759     3.2975     3.2975    -0.0000
  2 N      7.0759     7.0000    -0.0759     3.2975     3.2975     0.0000
  3 C      6.3569     6.0000    -0.3569     3.8050     3.8050    -0.0000
  4 C      6.3569     6.0000    -0.3569     3.8050     3.8050     0.0000
  5 H      0.8273     1.0000     0.1727     0.9607     0.9607    -0.0000
  6 H      0.8273     1.0000     0.1727     0.9607     0.9607     0.0000
  7 H      0.8177     1.0000     0.1823     0.9418     0.9418    -0.0000
  8 H      0.8177     1.0000     0.1823     0.9418     0.9418     0.0000
  9 H      0.8103     1.0000     0.1897     0.9463     0.9463    -0.0000
 10 H      0.8103     1.0000     0.1897     0.9463     0.9463     0.0000
 11 C      6.2913     6.0000    -0.2913     3.8182     3.8182    -0.0000
 12 C      6.2913     6.0000    -0.2913     3.8182     3.8182    -0.0000
 13 H      0.8417     1.0000     0.1583     0.9682     0.9682    -0.0000
 14 H      0.8416     1.0000     0.1584     0.9682     0.9682    -0.0000
 15 H      0.8323     1.0000     0.1677     0.9544     0.9544    -0.0000
 16 H      0.8323     1.0000     0.1677     0.9544     0.9544    -0.0000
 17 H      0.8316     1.0000     0.1684     0.9505     0.9505    -0.0000
 18 H      0.8316     1.0000     0.1684     0.9505     0.9505     0.0000
 19 H      0.7912     1.0000     0.2088     0.9495     0.9495     0.0000

  Mayer bond orders larger than 0.100000
B(  0-C ,  1-N ) :   1.4810 B(  0-C ,  2-N ) :   1.4810 B(  0-C , 19-H ) :   0.9153 
B(  1-N ,  3-C ) :   0.8752 B(  1-N , 11-C ) :   0.8911 B(  2-N ,  4-C ) :   0.8752 
B(  2-N , 12-C ) :   0.8911 B(  3-C ,  5-H ) :   0.9595 B(  3-C ,  7-H ) :   0.9550 
B(  3-C ,  9-H ) :   0.9591 B(  4-C ,  6-H ) :   0.9595 B(  4-C ,  8-H ) :   0.9550 
B(  4-C , 10-H ) :   0.9591 B( 11-C , 13-H ) :   0.9617 B( 11-C , 15-H ) :   0.9648 
B( 11-C , 17-H ) :   0.9593 B( 12-C , 14-H ) :   0.9617 B( 12-C , 16-H ) :   0.9648 
B( 12-C , 18-H ) :   0.9593 

-------
TIMINGS
-------

Total SCF time: 0 days 0 hours 1 min 45 sec 

Total time                  ....     105.964 sec
Sum of individual times     ....     105.133 sec  ( 99.2%)

Fock matrix formation       ....     102.908 sec  ( 97.1%)
  Split-RI-J                ....       4.180 sec  (  4.1% of F)
  Chain of spheres X        ....      81.444 sec  ( 79.1% of F)
  XC integration            ....       9.028 sec  (  8.8% of F)
    Basis function eval.    ....       2.235 sec  ( 24.8% of XC)
    Density eval.           ....       2.186 sec  ( 24.2% of XC)
    XC-Functional eval.     ....       0.764 sec  (  8.5% of XC)
    XC-Potential eval.      ....       2.964 sec  ( 32.8% of XC)
Diagonalization             ....       0.204 sec  (  0.2%)
Density matrix formation    ....       0.013 sec  (  0.0%)
Population analysis         ....       0.068 sec  (  0.1%)
Initial guess               ....       0.323 sec  (  0.3%)
Orbital Transformation      ....       0.000 sec  (  0.0%)
Orbital Orthonormalization  ....       0.000 sec  (  0.0%)
DIIS solution               ....       0.123 sec  (  0.1%)
SOSCF solution              ....       0.096 sec  (  0.1%)
Grid generation             ....       1.397 sec  (  1.3%)

Maximum memory used throughout the entire SCF-calculation: 80.8 MB


-------------------------------------------------------------------------------
                          DFT DISPERSION CORRECTION                            
                                                                               
                                 DFTD4 V2.5                                    
-------------------------------------------------------------------------------
The WB97X functional is recognized
Active option DFTDOPT                   ...         5   

Starting D4
-------------------------   ----------------
Dispersion correction           -0.002068105
-------------------------   ----------------


-------------------------   --------------------
FINAL SINGLE POINT ENERGY      -307.742366374679
-------------------------   --------------------



           ************************************************************
           *        Program running with 4 parallel MPI-processes     *
           *              working on a common directory               *
           ************************************************************
------------------------------------------------------------------------------
                         ORCA SCF GRADIENT CALCULATION
------------------------------------------------------------------------------

 ... reading COSX grid (gridx3)
Gradient of the Kohn-Sham DFT energy:
Kohn-Sham wavefunction type      ... RKS
Hartree-Fock exchange scaling    ...    0.158
Number of operators              ...    1
Number of atoms                  ...   20
Basis set dimensions             ...  295
Integral neglect threshold       ... 2.5e-11
Integral primitive cutoff        ... 2.5e-12
SHARK Integral package           ... ON

Nuc. rep. gradient       (SHARK) ... done (  0.0 sec)
HCore & Overlap gradient (SHARK) ... done (  0.2 sec)
RI-J gradient            (SHARK) ... done (  1.1 sec)
COSX-gradient                    ... done ( 16.8 sec)
Exchange-correlation gradient    ... done
Dispersion correction            ... Starting D4
Starting D4
Starting D4
Starting D4


------------------- 
Dispersion Gradient 
------------------- 
   1  :   -0.000000000   -0.000000000    0.000008884
   2  :   -0.000000258    0.000017914    0.000000569
   3  :    0.000000258   -0.000017914    0.000000569
   4  :    0.000003100    0.000021664   -0.000024025
   5  :   -0.000003100   -0.000021664   -0.000024025
   6  :    0.000000597    0.000006677   -0.000002237
   7  :   -0.000000597   -0.000006677   -0.000002237
   8  :    0.000001056    0.000006154   -0.000002414
   9  :   -0.000001056   -0.000006154   -0.000002414
  10  :    0.000000386    0.000007149   -0.000002814
  11  :   -0.000000386   -0.000007149   -0.000002814
  12  :   -0.000003507    0.000036688    0.000015541
  13  :    0.000003507   -0.000036688    0.000015541
  14  :   -0.000001072    0.000010497    0.000003679
  15  :    0.000001072   -0.000010497    0.000003679
  16  :   -0.000001132    0.000006941    0.000002922
  17  :    0.000001132   -0.000006941    0.000002922
  18  :   -0.000000049    0.000007439    0.000003155
  19  :    0.000000049   -0.000007439    0.000003155
  20  :    0.000000000    0.000000000    0.000002364

  |G| =    0.000070846

done

------------------
CARTESIAN GRADIENT
------------------

[...]
     28       0.002648   0.028216  -0.024827   0.001360  -0.000796   0.030180
     29      -0.027678  -0.261269   0.263766  -0.012402   0.008647  -0.221446
     30       0.051036  -0.447630  -0.451481   0.018483   0.012208   0.376181
     31      -0.002648   0.028217   0.024828  -0.001360  -0.000798  -0.030182
     32      -0.027676   0.261269   0.263768  -0.012392  -0.008663  -0.221454
     33      -0.005719   0.001415  -0.001940   0.065002  -0.065061  -0.005235
     34       0.031930  -0.002731   0.003685   0.004558  -0.004469  -0.002147
     35       0.010326  -0.001043   0.001568   0.014882  -0.014760   0.002640
     36       0.005719   0.001415   0.001940  -0.064917  -0.065145   0.005236
     37      -0.031929  -0.002731  -0.003685  -0.004552  -0.004475   0.002148
     38       0.010326   0.001043   0.001568   0.014862   0.014779   0.002640
     39       0.041233  -0.003415   0.004650   0.016031  -0.015815   0.003585
     40       0.091723  -0.007584   0.010475   0.014707  -0.014297   0.010138
     41      -0.299279   0.027465  -0.037368  -0.045562   0.043951  -0.035714
     42      -0.041231  -0.003415  -0.004650  -0.016011  -0.015835  -0.003586
     43      -0.091720  -0.007584  -0.010475  -0.014687  -0.014316  -0.010139
     44      -0.299268  -0.027465  -0.037369  -0.045503  -0.044008  -0.035716
     45      -0.344570   0.024883  -0.033155  -0.378538   0.377830   0.035509
     46      -0.266098   0.019963  -0.026829  -0.304705   0.303954   0.026969
     47       0.028352  -0.001752   0.002020   0.038733  -0.038825  -0.004146
     48       0.344557   0.024881   0.033155   0.378048   0.378321  -0.035512
     49       0.266089   0.019962   0.026828   0.304310   0.304348  -0.026971
     50       0.028351   0.001752   0.002020   0.038683   0.038875  -0.004146
     51       0.372139  -0.036008   0.048923  -0.411192   0.412150   0.021885
     52      -0.204439   0.020264  -0.027938   0.237299  -0.237821  -0.012466
     53       0.146370  -0.013813   0.018312  -0.167609   0.167979   0.009788
     54      -0.372123  -0.036007  -0.048923   0.410657   0.412684  -0.021887
     55       0.204430   0.020264   0.027938  -0.236991  -0.238129   0.012468
     56       0.146364   0.013813   0.018312  -0.167392  -0.168197   0.009789
     57       0.000000  -0.000399   0.000000  -0.000000   0.000180  -0.000000
     58      -0.000000  -0.001367   0.000000   0.000000  -0.000478   0.000000
     59       0.022999  -0.000000   0.021436  -0.004031  -0.000003   0.025565
                 54         55         56         57         58         59    
      0       0.000329  -0.000000  -0.000165  -0.000223  -0.000000  -0.000000
      1       0.000108  -0.000000  -0.000015   0.000110   0.000000   0.000000
      2      -0.000000   0.019688  -0.000002   0.000001  -0.029040   0.081399
      3      -0.000214  -0.000126   0.000090  -0.000117   0.000283   0.000040
      4      -0.000032   0.001285  -0.000676  -0.000070  -0.000338   0.002014
      5       0.000211  -0.000175   0.000090   0.000515  -0.000089  -0.001295
      6      -0.000214   0.000126   0.000090  -0.000117  -0.000283  -0.000040
      7      -0.000032  -0.001285  -0.000676  -0.000070   0.000338  -0.002014
      8      -0.000211  -0.000175  -0.000090  -0.000515  -0.000089  -0.001295
      9       0.053285   0.004530  -0.004652   0.038153  -0.030930  -0.010710
     10       0.036611   0.000672  -0.000874  -0.052756   0.050791   0.020067
     11       0.014017   0.000201  -0.000727  -0.012652   0.014765   0.004292
     12       0.053282  -0.004532  -0.004651   0.038148   0.030937   0.010711
     13       0.036610  -0.000672  -0.000874  -0.052747  -0.050800  -0.020069
     14      -0.014017   0.000201   0.000727   0.012650   0.014767   0.004292
     15      -0.254900  -0.014132   0.014926   0.102460  -0.110395  -0.046440
     16      -0.500063  -0.027440   0.028875   0.176212  -0.196251  -0.084642
     17       0.017888   0.002203  -0.002137  -0.006282   0.005658   0.001703
     18      -0.254891   0.014136   0.014923   0.102440   0.110412   0.046443
     19      -0.500042   0.027446   0.028870   0.176176   0.196279   0.084646
     20      -0.017887   0.002204   0.002137   0.006281   0.005659   0.001703
     21      -0.017431  -0.016820   0.014303  -0.377757   0.357772   0.130004
     22       0.035463   0.019850  -0.016885   0.449932  -0.424569  -0.153237
     23       0.020797   0.011836  -0.010185   0.256576  -0.241392  -0.087298
     24      -0.017428   0.016824   0.014300  -0.377694  -0.357834  -0.130013
     25       0.035459  -0.019855  -0.016882   0.449859   0.424645   0.153248
     26      -0.020795   0.011839   0.010184  -0.256534  -0.241435  -0.087304
     27      -0.360100  -0.023876   0.028326  -0.177437   0.110682   0.044717
     28       0.029722   0.001555  -0.001862  -0.000732  -0.000015  -0.000260
     29      -0.210697  -0.013674   0.016412  -0.105492   0.068529   0.028517
     30      -0.360082   0.023883   0.028321  -0.177417  -0.110711  -0.044721
     31       0.029721  -0.001556  -0.001862  -0.000732   0.000015   0.000260
     32       0.210686  -0.013678  -0.016409   0.105479   0.068546   0.028519
     33      -0.003972   0.010247  -0.010633  -0.000564   0.001485  -0.002705
     34      -0.002334   0.033345  -0.033859  -0.001007   0.003054  -0.005604
     35       0.003289  -0.054860   0.056220   0.001837  -0.005900   0.010951
     36      -0.003972  -0.010249  -0.010630  -0.000564  -0.001485   0.002704
     37      -0.002334  -0.033352  -0.033852  -0.001006  -0.003054   0.005604
     38      -0.003289  -0.054871  -0.056208  -0.001836  -0.005901   0.010951
     39       0.004352  -0.080519   0.082745   0.002538  -0.008884   0.016822
     40       0.011588  -0.177077   0.181764   0.005798  -0.019080   0.035951
     41      -0.040385   0.579503  -0.596091  -0.017507   0.063123  -0.124068
     42       0.004352   0.080537   0.082729   0.002537   0.008885  -0.016822
     43       0.011588   0.177114   0.181728   0.005796   0.019081  -0.035950
     44       0.040384   0.579624   0.595972   0.017502   0.063127  -0.124066
     45       0.028867  -0.197322   0.200218   0.009186  -0.021017   0.032405
     46       0.021531  -0.149003   0.150869   0.007270  -0.015620   0.022765
     47      -0.003484   0.010912  -0.011452  -0.000194   0.001536  -0.003769
     48       0.028868   0.197362   0.200177   0.009184   0.021019  -0.032404
     49       0.021532   0.149032   0.150838   0.007269   0.015621  -0.022764
     50       0.003484   0.010914   0.011450   0.000194   0.001536  -0.003769
     51       0.011887   0.158442  -0.159080  -0.004126   0.011719  -0.019714
     52      -0.006724  -0.080408   0.080479   0.001898  -0.005508   0.009267
     53       0.005750   0.054069  -0.054348  -0.000725   0.003556  -0.007195
     54       0.011889  -0.158476  -0.159049  -0.004125  -0.011720   0.019714
     55      -0.006725   0.080426   0.080463   0.001897   0.005508  -0.009267
     56      -0.005751   0.054081   0.054337   0.000724   0.003556  -0.007195
     57       0.001494   0.000000   0.000831   0.000384  -0.000000   0.000000
     58      -0.000277   0.000000   0.000201   0.001127   0.000000   0.000000
     59       0.000001  -0.216843   0.000023  -0.000017   0.335243  -0.912979


-----------
IR SPECTRUM
-----------

 Mode   freq       eps      Int      T**2         TX        TY        TZ
       cm**-1   L/(mol*cm) km/mol    a.u.
----------------------------------------------------------------------------
  6:     70.12   0.000012    0.06  0.000052  (-0.000000 -0.000000 -0.007205)
  7:    118.37   0.000499    2.52  0.001315  ( 0.030922  0.018939  0.000000)
  8:    134.55   0.000017    0.09  0.000040  ( 0.000001  0.000001 -0.006353)
  9:    188.73   0.000002    0.01  0.000003  (-0.000001 -0.000001  0.001678)
 10:    195.14   0.000417    2.11  0.000666  ( 0.021590  0.014150  0.000000)
 11:    230.62   0.000412    2.08  0.000557  ( 0.023563  0.001327 -0.000000)
 12:    282.73   0.000024    0.12  0.000026  ( 0.000000  0.000000  0.005095)
 13:    306.25   0.000250    1.26  0.000255  (-0.000000  0.000000  0.015968)
 14:    350.31   0.001992   10.07  0.001774  ( 0.038774 -0.016464  0.000000)
 15:    416.99   0.000022    0.11  0.000016  (-0.000000  0.000000  0.004031)
 16:    439.48   0.006292   31.80  0.004468  (-0.057702  0.033742 -0.000000)
 17:    500.39   0.001950    9.85  0.001216  (-0.034481  0.005204 -0.000000)
 18:    623.21   0.000184    0.93  0.000092  (-0.000000 -0.000000 -0.009604)
 19:    884.14   0.001566    7.91  0.000553  ( 0.000000  0.000000  0.023511)
 20:    903.87   0.003592   18.15  0.001240  ( 0.000708 -0.035209  0.000000)
 21:   1020.21   0.004878   24.65  0.001492  (-0.017217  0.034578  0.000000)
 22:   1091.64   0.001332    6.73  0.000381  (-0.006522  0.018394  0.000001)
 23:   1093.44   0.004367   22.07  0.001246  ( 0.000000 -0.000001  0.035304)
 24:   1123.93   0.000800    4.04  0.000222  ( 0.000000 -0.000000 -0.014901)
 25:   1135.85   0.003297   16.66  0.000906  ( 0.012577 -0.027341 -0.000000)
 26:   1137.44   0.000369    1.86  0.000101  (-0.000001  0.000001 -0.010062)
 27:   1173.30   0.009905   50.05  0.002634  (-0.005457 -0.051035  0.000000)
 28:   1178.67   0.000158    0.80  0.000042  ( 0.000000  0.000001  0.006463)
 29:   1193.70   0.021319  107.74  0.005573  (-0.003524  0.074571 -0.000000)
 30:   1238.88   0.000205    1.04  0.000052  (-0.005990 -0.003982  0.000000)
 31:   1334.61   0.007449   37.64  0.001742  ( 0.000000  0.000000 -0.041734)
 32:   1451.12   0.015297   77.31  0.003290  (-0.000271 -0.057355 -0.000000)
 33:   1454.95   0.013387   67.65  0.002871  (-0.015610 -0.051260  0.000000)
 34:   1456.76   0.000136    0.69  0.000029  ( 0.000000  0.000000  0.005402)
 35:   1467.02   0.000262    1.32  0.000056  (-0.000002 -0.000000  0.007459)
 36:   1467.15   0.000205    1.03  0.000044  ( 0.006584  0.000412  0.000003)
 37:   1472.97   0.009827   49.66  0.002082  (-0.018190  0.041845  0.000000)
 38:   1477.16   0.000063    0.32  0.000013  ( 0.000000 -0.000001 -0.003646)
 39:   1482.89   0.008531   43.11  0.001795  (-0.041907 -0.006247  0.000000)
 40:   1486.94   0.000004    0.02  0.000001  ( 0.000000 -0.000000  0.000879)
 41:   1492.30   0.003734   18.87  0.000781  (-0.000000 -0.000000 -0.027944)
 42:   1506.17   0.007916   40.01  0.001640  ( 0.040057 -0.005968  0.000001)
 43:   1512.15   0.002433   12.30  0.000502  ( 0.000001  0.000000 -0.022408)
 44:   1525.51   0.017507   88.47  0.003581  (-0.001882  0.059814  0.000000)
 45:   1569.72   0.007882   39.83  0.001567  ( 0.000000  0.000000  0.039585)
 46:   1769.11   0.220381  1113.71  0.038874  ( 0.000955 -0.197163 -0.000000)
 47:   3080.13   0.010592   53.53  0.001073  (-0.004019  0.032511 -0.000000)
 48:   3080.81   0.001970    9.95  0.000200  (-0.000000  0.000001  0.014125)
 49:   3091.34   0.003476   17.57  0.000351  ( 0.002573 -0.018556  0.000000)
 50:   3095.53   0.004995   25.24  0.000504  ( 0.000000  0.000000 -0.022439)
 51:   3158.71   0.000200    1.01  0.000020  ( 0.000014  0.000003  0.004445)
 52:   3158.77   0.005151   26.03  0.000509  (-0.022171 -0.004162  0.000003)
 53:   3171.05   0.000237    1.20  0.000023  (-0.000000 -0.000000  0.004832)
 54:   3173.26   0.002595   13.11  0.000255  ( 0.013310  0.008832  0.000000)
 55:   3193.48   0.001821    9.21  0.000178  (-0.000000 -0.000001 -0.013341)
 56:   3194.60   0.001646    8.32  0.000161  (-0.004316 -0.011923  0.000001)
 57:   3216.26   0.001780    8.99  0.000173  ( 0.008773 -0.009784 -0.000000)
 58:   3218.29   0.000066    0.33  0.000006  ( 0.000001 -0.000001  0.002529)
 59:   3219.40   0.000007    0.04  0.000001  ( 0.000000 -0.000000  0.000846)

* The epsilon (eps) is given for a Dirac delta lineshape.
** The dipole moment derivative (T) already includes vibrational overlap.

The first frequency considered to be a vibration is 6
The total number of vibrations considered is 54


--------------------------
THERMOCHEMISTRY AT 298.15K
--------------------------

Temperature         ... 298.15 K
Pressure            ... 1.00 atm
Total Mass          ... 101.17 AMU

Throughout the following assumptions are being made:
  (1) The electronic state is orbitally nondegenerate
  (2) There are no thermally accessible electronically excited states
  (3) Hindered rotations indicated by low frequency modes are not
      treated as such but are treated as vibrations and this may
      cause some error
  (4) All equations used are the standard statistical mechanics
      equations for an ideal gas
  (5) All vibrations are strictly harmonic

freq.      70.12  E(vib)   ...       0.50 
freq.     118.37  E(vib)   ...       0.44 
freq.     134.55  E(vib)   ...       0.42 
freq.     188.73  E(vib)   ...       0.36 
freq.     195.14  E(vib)   ...       0.36 
freq.     230.62  E(vib)   ...       0.32 
freq.     282.73  E(vib)   ...       0.28 
freq.     306.25  E(vib)   ...       0.26 
freq.     350.31  E(vib)   ...       0.23 
freq.     416.99  E(vib)   ...       0.18 
freq.     439.48  E(vib)   ...       0.17 
freq.     500.39  E(vib)   ...       0.14 
freq.     623.21  E(vib)   ...       0.09 
freq.     884.14  E(vib)   ...       0.04 
freq.     903.87  E(vib)   ...       0.03 
freq.    1020.21  E(vib)   ...       0.02 
freq.    1091.64  E(vib)   ...       0.02 
freq.    1093.44  E(vib)   ...       0.02 
freq.    1123.93  E(vib)   ...       0.01 
freq.    1135.85  E(vib)   ...       0.01 
freq.    1137.44  E(vib)   ...       0.01 
freq.    1173.30  E(vib)   ...       0.01 
freq.    1178.67  E(vib)   ...       0.01 
freq.    1193.70  E(vib)   ...       0.01 
freq.    1238.88  E(vib)   ...       0.01 
freq.    1334.61  E(vib)   ...       0.01 
freq.    1451.12  E(vib)   ...       0.00 
freq.    1454.95  E(vib)   ...       0.00 
freq.    1456.76  E(vib)   ...       0.00 
freq.    1467.02  E(vib)   ...       0.00 
freq.    1467.15  E(vib)   ...       0.00 
freq.    1472.97  E(vib)   ...       0.00 
freq.    1477.16  E(vib)   ...       0.00 
freq.    1482.89  E(vib)   ...       0.00 
freq.    1486.94  E(vib)   ...       0.00 
freq.    1492.30  E(vib)   ...       0.00 
freq.    1506.17  E(vib)   ...       0.00 
freq.    1512.15  E(vib)   ...       0.00 
freq.    1525.51  E(vib)   ...       0.00 
freq.    1569.72  E(vib)   ...       0.00 
freq.    1769.11  E(vib)   ...       0.00 
freq.    3080.13  E(vib)   ...       0.00 
freq.    3080.81  E(vib)   ...       0.00 
freq.    3091.34  E(vib)   ...       0.00 
freq.    3095.53  E(vib)   ...       0.00 
freq.    3158.71  E(vib)   ...       0.00 
freq.    3158.77  E(vib)   ...       0.00 
freq.    3171.05  E(vib)   ...       0.00 
freq.    3173.26  E(vib)   ...       0.00 
freq.    3193.48  E(vib)   ...       0.00 
freq.    3194.60  E(vib)   ...       0.00 
freq.    3216.26  E(vib)   ...       0.00 
freq.    3218.29  E(vib)   ...       0.00 
freq.    3219.40  E(vib)   ...       0.00 

------------
INNER ENERGY
------------

The inner energy is: U= E(el) + E(ZPE) + E(vib) + E(rot) + E(trans)
    E(el)   - is the total energy from the electronic structure calculation
              = E(kin-el) + E(nuc-el) + E(el-el) + E(nuc-nuc)
    E(ZPE)  - the the zero temperature vibrational energy from the frequency calculation
    E(vib)  - the the finite temperature correction to E(ZPE) due to population
              of excited vibrational states
    E(rot)  - is the rotational thermal energy
    E(trans)- is the translational thermal energy

Summary of contributions to the inner energy U:
Electronic energy                ...   -307.74321508 Eh
Zero point energy                ...      0.18683288 Eh     117.24 kcal/mol
Thermal vibrational correction   ...      0.00639335 Eh       4.01 kcal/mol
Thermal rotational correction    ...      0.00141627 Eh       0.89 kcal/mol
Thermal translational correction ...      0.00141627 Eh       0.89 kcal/mol
-----------------------------------------------------------------------
Total thermal energy                   -307.54715631 Eh


Summary of corrections to the electronic energy:
(perhaps to be used in another calculation)
Total thermal correction                  0.00922589 Eh       5.79 kcal/mol
Non-thermal (ZPE) correction              0.18683288 Eh     117.24 kcal/mol
-----------------------------------------------------------------------
Total correction                          0.19605877 Eh     123.03 kcal/mol


--------
ENTHALPY
--------

The enthalpy is H = U + kB*T
                kB is Boltzmann's constant
Total free energy                 ...   -307.54715631 Eh 
Thermal Enthalpy correction       ...      0.00094421 Eh       0.59 kcal/mol
-----------------------------------------------------------------------
Total Enthalpy                    ...   -307.54621210 Eh


Note: Rotational entropy computed according to Herzberg 
Infrared and Raman Spectra, Chapter V,1, Van Nostrand Reinhold, 1945 
Point Group:  C2, Symmetry Number:   2  
Rotational constants in cm-1:     0.156359     0.056540     0.043701 

Vibrational entropy computed according to the QRRHO of S. Grimme
Chem.Eur.J. 2012 18 9955


-------
ENTROPY
-------

The entropy contributions are T*S = T*(S(el)+S(vib)+S(rot)+S(trans))
     S(el)   - electronic entropy
     S(vib)  - vibrational entropy
     S(rot)  - rotational entropy
     S(trans)- translational entropy
The entropies will be listed as multiplied by the temperature to get
units of energy

Electronic entropy                ...      0.00000000 Eh      0.00 kcal/mol
Vibrational entropy               ...      0.01111329 Eh      6.97 kcal/mol
Rotational entropy                ...      0.01256641 Eh      7.89 kcal/mol
Translational entropy             ...      0.01888776 Eh     11.85 kcal/mol
-----------------------------------------------------------------------
Final entropy term                ...      0.04256746 Eh     26.71 kcal/mol

In case the symmetry of your molecule has not been determined correctly
or in case you have a reason to use a different symmetry number we print 
out the resulting rotational entropy values for sn=1,12 :
 --------------------------------------------------------
|  sn= 1 | S(rot)=       0.01322087 Eh      8.30 kcal/mol|
|  sn= 2 | S(rot)=       0.01256641 Eh      7.89 kcal/mol|
|  sn= 3 | S(rot)=       0.01218358 Eh      7.65 kcal/mol|
|  sn= 4 | S(rot)=       0.01191196 Eh      7.47 kcal/mol|
|  sn= 5 | S(rot)=       0.01170127 Eh      7.34 kcal/mol|
|  sn= 6 | S(rot)=       0.01152912 Eh      7.23 kcal/mol|
|  sn= 7 | S(rot)=       0.01138358 Eh      7.14 kcal/mol|
|  sn= 8 | S(rot)=       0.01125750 Eh      7.06 kcal/mol|
|  sn= 9 | S(rot)=       0.01114629 Eh      6.99 kcal/mol|
|  sn=10 | S(rot)=       0.01104681 Eh      6.93 kcal/mol|
|  sn=11 | S(rot)=       0.01095682 Eh      6.88 kcal/mol|
|  sn=12 | S(rot)=       0.01087467 Eh      6.82 kcal/mol|
 --------------------------------------------------------


-------------------
GIBBS FREE ENERGY
-------------------

The Gibbs free energy is G = H - T*S

Total enthalpy                    ...   -307.54621210 Eh 
Total entropy correction          ...     -0.04256746 Eh    -26.71 kcal/mol
-----------------------------------------------------------------------
Final Gibbs free energy         ...   -307.58877956 Eh

For completeness - the Gibbs free energy minus the electronic energy
G-E(el)                           ...      0.15443552 Eh     96.91 kcal/mol


Timings for individual modules:

Sum of individual times         ...     1181.713 sec (=  19.695 min)
GTO integral calculation        ...        4.187 sec (=   0.070 min)   0.4 %
SCF iterations                  ...      425.632 sec (=   7.094 min)  36.0 %
SCF Gradient evaluation         ...      115.086 sec (=   1.918 min)   9.7 %
Geometry relaxation             ...        0.242 sec (=   0.004 min)   0.0 %
Analytical frequency calculation...      636.566 sec (=  10.609 min)  53.9 %
                             ****ORCA TERMINATED NORMALLY****
TOTAL RUN TIME: 0 days 0 hours 19 minutes 43 seconds 953 msec
