
                                 *****************
                                 * O   R   C   A *
                                 *****************

                                            #,                                       
                                            ###                                      
                                            ####                                     
                                            #####                                    
                                            ######                                   
                                           ########,                                 
                                     ,,################,,,,,                         
                               ,,#################################,,                 
                          ,,##########################################,,             
                       ,#########################################, ''#####,          
                    ,#############################################,,   '####,        
                  ,##################################################,,,,####,       
                ,###########''''           ''''###############################       
              ,#####''   ,,,,##########,,,,          '''####'''          '####       
            ,##' ,,,,###########################,,,                        '##       
           ' ,,###''''                  '''############,,,                           
         ,,##''                                '''############,,,,        ,,,,,,###''
      ,#''                                            '''#######################'''  
     '                                                          ''''####''''         
             ,#######,   #######,   ,#######,      ##                                
            ,#'     '#,  ##    ##  ,#'     '#,    #''#        ######   ,####,        
            ##       ##  ##   ,#'  ##            #'  '#       #        #'  '#        
            ##       ##  #######   ##           ,######,      #####,   #    #        
            '#,     ,#'  ##    ##  '#,     ,#' ,#      #,         ##   #,  ,#        
             '#######'   ##     ##  '#######'  #'      '#     #####' # '####'        



                  #######################################################
                  #                        -***-                        #
                  #          Department of theory and spectroscopy      #
                  #    Directorship and core code : Frank Neese         #
                  #        Max Planck Institute fuer Kohlenforschung    #
                  #                Kaiser Wilhelm Platz 1               #
                  #                 D-45470 Muelheim/Ruhr               #
                  #                      Germany                        #
                  #                                                     #
                  #                  All rights reserved                #
                  #                        -***-                        #
                  #######################################################


                         Program Version 5.0.4 -  RELEASE  -


 With contributions from (in alphabetic order):
   Daniel Aravena         : Magnetic Suceptibility
   Michael Atanasov       : Ab Initio Ligand Field Theory (pilot matlab implementation)
   Alexander A. Auer      : GIAO ZORA, VPT2 properties, NMR spectrum
   Ute Becker             : Parallelization
   Giovanni Bistoni       : ED, misc. LED, open-shell LED, HFLD
   Martin Brehm           : Molecular dynamics
   Dmytro Bykov           : SCF Hessian
   Vijay G. Chilkuri      : MRCI spin determinant printing, contributions to CSF-ICE
   Dipayan Datta          : RHF DLPNO-CCSD density
   Achintya Kumar Dutta   : EOM-CC, STEOM-CC
   Dmitry Ganyushin       : Spin-Orbit,Spin-Spin,Magnetic field MRCI
   Miquel Garcia          : C-PCM and meta-GGA Hessian, CC/C-PCM, Gaussian charge scheme
   Yang Guo               : DLPNO-NEVPT2, F12-NEVPT2, CIM, IAO-localization
   Andreas Hansen         : Spin unrestricted coupled pair/coupled cluster methods
   Benjamin Helmich-Paris : MC-RPA, TRAH-SCF, COSX integrals
   Lee Huntington         : MR-EOM, pCC
   Robert Izsak           : Overlap fitted RIJCOSX, COSX-SCS-MP3, EOM
   Marcus Kettner         : VPT2
   Christian Kollmar      : KDIIS, OOCD, Brueckner-CCSD(T), CCSD density, CASPT2, CASPT2-K
   Simone Kossmann        : Meta GGA functionals, TD-DFT gradient, OOMP2, MP2 Hessian
   Martin Krupicka        : Initial AUTO-CI
   Lucas Lang             : DCDCAS
   Marvin Lechner         : AUTO-CI (C++ implementation), FIC-MRCC
   Dagmar Lenk            : GEPOL surface, SMD
   Dimitrios Liakos       : Extrapolation schemes; Compound Job, initial MDCI parallelization
   Dimitrios Manganas     : Further ROCIS development; embedding schemes
   Dimitrios Pantazis     : SARC Basis sets
   Anastasios Papadopoulos: AUTO-CI, single reference methods and gradients
   Taras Petrenko         : DFT Hessian,TD-DFT gradient, ASA, ECA, R-Raman, ABS, FL, XAS/XES, NRVS
   Peter Pinski           : DLPNO-MP2, DLPNO-MP2 Gradient
   Christoph Reimann      : Effective Core Potentials
   Marius Retegan         : Local ZFS, SOC
   Christoph Riplinger    : Optimizer, TS searches, QM/MM, DLPNO-CCSD(T), (RO)-DLPNO pert. Triples
   Tobias Risthaus        : Range-separated hybrids, TD-DFT gradient, RPA, STAB
   Michael Roemelt        : Original ROCIS implementation
   Masaaki Saitow         : Open-shell DLPNO-CCSD energy and density
   Barbara Sandhoefer     : DKH picture change effects
   Avijit Sen             : IP-ROCIS
   Kantharuban Sivalingam : CASSCF convergence, NEVPT2, FIC-MRCI
   Bernardo de Souza      : ESD, SOC TD-DFT
   Georgi Stoychev        : AutoAux, RI-MP2 NMR, DLPNO-MP2 response
   Willem Van den Heuvel  : Paramagnetic NMR
   Boris Wezisla          : Elementary symmetry handling
   Frank Wennmohs         : Technical directorship


 We gratefully acknowledge several colleagues who have allowed us to
 interface, adapt or use parts of their codes:
   Stefan Grimme, W. Hujo, H. Kruse, P. Pracht,  : VdW corrections, initial TS optimization,
                  C. Bannwarth, S. Ehlert          DFT functionals, gCP, sTDA/sTD-DF
   Ed Valeev, F. Pavosevic, A. Kumar             : LibInt (2-el integral package), F12 methods
   Garnet Chan, S. Sharma, J. Yang, R. Olivares  : DMRG
   Ulf Ekstrom                                   : XCFun DFT Library
   Mihaly Kallay                                 : mrcc  (arbitrary order and MRCC methods)
   Jiri Pittner, Ondrej Demel                    : Mk-CCSD
   Frank Weinhold                                : gennbo (NPA and NBO analysis)
   Christopher J. Cramer and Donald G. Truhlar   : smd solvation model
   Lars Goerigk                                  : TD-DFT with DH, B97 family of functionals
   V. Asgeirsson, H. Jonsson                     : NEB implementation
   FAccTs GmbH                                   : IRC, NEB, NEB-TS, DLPNO-Multilevel, CI-OPT
                                                   MM, QMMM, 2- and 3-layer-ONIOM, Crystal-QMMM,
                                                   LR-CPCM, SF, NACMEs, symmetry and pop. for TD-DFT,
                                                   nearIR, NL-DFT gradient (VV10), updates on ESD,
                                                   ML-optimized integration grids
   S Lehtola, MJT Oliveira, MAL Marques          : LibXC Library
   Liviu Ungur et al                             : ANISO software


 Your calculation uses the libint2 library for the computation of 2-el integrals
 For citations please refer to: http://libint.valeyev.net

 Your ORCA version has been built with support for libXC version: 5.1.0
 For citations please refer to: https://tddft.org/programs/libxc/

 This ORCA versions uses:
   CBLAS   interface :  Fast vector & matrix operations
   LAPACKE interface :  Fast linear algebra routines
   SCALAPACK package :  Parallel linear algebra routines
   Shared memory     :  Shared parallel matrices
   BLAS/LAPACK       :  OpenBLAS 0.3.15  USE64BITINT DYNAMIC_ARCH NO_AFFINITY SkylakeX SINGLE_THREADED
        Core in use  :  SkylakeX
   Copyright (c) 2011-2014, The OpenBLAS Project




***************************************
The coordinates will be read from file: 1_prot.xyz
***************************************


Your calculation utilizes the atom-pairwise dispersion correction
based on tight binding partial charges (D4)
Cite in your paper:
E.Caldeweyher, C.Bannwarth, S.Grimme, J.Chem.Phys., (2017), 147, 034112.
E.Caldeweyher, S.Ehlert, A.Hansen, H.Neugebauer, S.Grimme, J.Chem.Phys., (2018), in progress.
   

XCFun DFT library Copyright 2009-2010 Ulf Ekstrom and contributors.
See http://admol.org/xcfun for more information.
This is free software; see the source code for copying conditions.
There is ABSOLUTELY NO WARRANTY; not even for MERCHANTABILITY or FITNESS FOR A PARTICULAR PURPOSE.
For details see the documentation.
Scientific users of this library should cite U. Ekstrom, L. Visscher, R. Bast, A. J. Thorvaldsen and K. Ruud;
J.Chem.Theor.Comp. 2010, DOI: 10.1021/ct100117s
XCFun Version 0.99 

================================================================================

----- Orbital basis set information -----
Your calculation utilizes the basis: def2-TZVP
   F. Weigend and R. Ahlrichs, Phys. Chem. Chem. Phys. 7, 3297 (2005).

----- AuxJ basis set information -----
Your calculation utilizes the auxiliary basis: def2/J
   F. Weigend, Phys. Chem. Chem. Phys. 8, 1057 (2006).

================================================================================
                                        WARNINGS
                       Please study these warnings very carefully!
================================================================================


WARNING: Geometry Optimization
  ===> : Switching off AutoStart
         For restart on a previous wavefunction, please use MOREAD

INFO   : the flag for use of the SHARK integral package has been found!

================================================================================
                                       INPUT FILE
================================================================================
NAME = 1_prot.inp
|  1> # ORCA 5.0.4 - /users/bwb16179/postgrad/2024_06/pKa_Reviewer_Comments/Aq_Z=1/1_prot.inp # write input file
|  2> # Basic Mode
|  3> #
|  4> ! Opt Freq wB97X Def2-TZVP D4 SlowConv TightSCF Defgrid2 Def2/J RIJCOSX CPCM(Water)
|  5> 
|  6> %PAL NPROCS 4 END
|  7> 
|  8> %maxcore 4500
|  9> 
| 10> %geom
| 11> Maxiter 150
| 12> END
| 13> 
| 14> * xyzfile 1 1 1_prot.xyz
| 15> 
| 16>                          ****END OF INPUT****
================================================================================

                       *****************************
                       * Geometry Optimization Run *
                       *****************************

Geometry optimization settings:
Update method            Update   .... BFGS
Choice of coordinates    CoordSys .... Z-matrix Internals
Initial Hessian          InHess   .... Almoef's Model

Convergence Tolerances:
Energy Change            TolE     ....  5.0000e-06 Eh
Max. Gradient            TolMAXG  ....  3.0000e-04 Eh/bohr
RMS Gradient             TolRMSG  ....  1.0000e-04 Eh/bohr
Max. Displacement        TolMAXD  ....  4.0000e-03 bohr
RMS Displacement         TolRMSD  ....  2.0000e-03 bohr
Strict Convergence                ....  False
------------------------------------------------------------------------------
                        ORCA OPTIMIZATION COORDINATE SETUP
------------------------------------------------------------------------------

The optimization will be done in new redundant internal coordinates
Making redundant internal coordinates   ...  (new redundants) done
Evaluating the initial hessian          ...  (Almloef) done
Evaluating the coordinates              ...  done
Calculating the B-matrix                .... done
Calculating the G-matrix                .... done
Diagonalizing the G-matrix              .... done
The first mode is                       ....   33
The number of degrees of freedom        ....   42

    -----------------------------------------------------------------
                    Redundant Internal Coordinates


    -----------------------------------------------------------------
         Definition                    Initial Value    Approx d2E/dq
    -----------------------------------------------------------------
      1. B(C   1,C   0)                  1.3609         0.695367   
      2. B(N   2,C   0)                  1.3778         0.585341   
      3. B(N   3,C   1)                  1.3777         0.585425   
      4. B(C   4,N   2)                  1.3301         0.697444   
      5. B(C   4,N   3)                  1.3303         0.696883   
      6. B(H   5,C   0)                  1.0882         0.362453   
      7. B(H   6,C   1)                  1.0882         0.362534   
      8. B(C   7,N   2)                  1.4584         0.435309   
      9. B(C   8,N   3)                  1.4586         0.434868   
     10. B(H   9,C   7)                  1.0973         0.350577   
     11. B(H  10,C   7)                  1.0960         0.352239   
     12. B(H  11,C   7)                  1.0972         0.350650   
     13. B(H  12,C   4)                  1.0902         0.359848   
     14. B(H  13,C   8)                  1.0973         0.350530   
     15. B(H  14,C   8)                  1.0971         0.350776   
     16. B(H  15,C   8)                  1.0963         0.351910   
     17. A(N   2,C   0,H   5)          121.9052         0.347733   
     18. A(C   1,C   0,H   5)          131.1462         0.360251   
     19. A(C   1,C   0,N   2)          106.9484         0.435686   
     20. A(C   0,C   1,H   6)          131.1317         0.360264   
     21. A(C   0,C   1,N   3)          106.9640         0.435697   
     22. A(N   3,C   1,H   6)          121.9035         0.347754   
     23. A(C   0,N   2,C   7)          125.6339         0.398248   
     24. A(C   4,N   2,C   7)          125.7650         0.410759   
     25. A(C   0,N   2,C   4)          108.6008         0.433065   
     26. A(C   1,N   3,C   8)          125.5274         0.398187   
     27. A(C   1,N   3,C   4)          108.5863         0.433014   
     28. A(C   4,N   3,C   8)          125.8862         0.410627   
     29. A(N   2,C   4,N   3)          108.9005         0.446920   
     30. A(N   3,C   4,H  12)          125.5181         0.357712   
     31. A(N   2,C   4,H  12)          125.5813         0.357761   
     32. A(N   2,C   7,H  10)          108.6893         0.329399   
     33. A(N   2,C   7,H   9)          109.4777         0.329141   
     34. A(H  10,C   7,H  11)          109.6514         0.288629   
     35. A(H   9,C   7,H  11)          109.9998         0.288415   
     36. A(N   2,C   7,H  11)          109.2843         0.329153   
     37. A(H   9,C   7,H  10)          109.7159         0.288619   
     38. A(H  13,C   8,H  15)          109.7426         0.288571   
     39. A(N   3,C   8,H  15)          108.7234         0.329293   
     40. A(H  13,C   8,H  14)          109.9457         0.288425   
     41. A(N   3,C   8,H  14)          109.2715         0.329117   
     42. A(H  14,C   8,H  15)          109.7052         0.288602   
     43. A(N   3,C   8,H  13)          109.4308         0.329079   
     44. D(H   6,C   1,C   0,H   5)     -0.1632         0.034018   
     45. D(N   3,C   1,C   0,H   5)   -179.8320         0.034018   
     46. D(N   3,C   1,C   0,N   2)      0.0093         0.034018   
     47. D(H   6,C   1,C   0,N   2)    179.6781         0.034018   
     48. D(C   7,N   2,C   0,C   1)    179.8151         0.027514   
     49. D(C   4,N   2,C   0,C   1)     -0.0023         0.027514   
     50. D(C   4,N   2,C   0,H   5)    179.8569         0.027514   
     51. D(C   7,N   2,C   0,H   5)     -0.3257         0.027514   
     52. D(C   8,N   3,C   1,C   0)   -179.8797         0.027522   
     53. D(C   8,N   3,C   1,H   6)      0.4142         0.027522   
     54. D(C   4,N   3,C   1,H   6)   -179.7193         0.027522   
     55. D(C   4,N   3,C   1,C   0)     -0.0132         0.027522   
     56. D(H  12,C   4,N   2,C   0)   -179.9259         0.040224   
     57. D(N   3,C   4,N   2,C   7)   -179.8231         0.040224   
     58. D(N   3,C   4,N   2,C   0)     -0.0060         0.040224   
     59. D(H  12,C   4,N   3,C   8)     -0.2021         0.040152   
     60. D(H  12,C   4,N   3,C   1)    179.9319         0.040152   
     61. D(N   2,C   4,N   3,C   8)    179.8779         0.040152   
     62. D(N   2,C   4,N   3,C   1)      0.0119         0.040152   
     63. D(H  12,C   4,N   2,C   7)      0.2570         0.040224   
     64. D(H  11,C   7,N   2,C   4)   -122.3472         0.016157   
     65. D(H  11,C   7,N   2,C   0)     57.8661         0.016157   
     66. D(H  10,C   7,N   2,C   4)     -2.7118         0.016157   
     67. D(H  10,C   7,N   2,C   0)    177.5015         0.016157   
     68. D(H   9,C   7,N   2,C   4)    117.1160         0.016157   
     69. D(H   9,C   7,N   2,C   0)    -62.6707         0.016157   
     70. D(H  14,C   8,N   3,C   4)    122.8757         0.016124   
     71. D(H  14,C   8,N   3,C   1)    -57.2804         0.016124   
     72. D(H  13,C   8,N   3,C   4)   -116.6906         0.016124   
     73. D(H  15,C   8,N   3,C   1)   -176.9937         0.016124   
     74. D(H  13,C   8,N   3,C   1)     63.1533         0.016124   
     75. D(H  15,C   8,N   3,C   4)      3.1624         0.016124   
    -----------------------------------------------------------------

Number of atoms                         .... 16
Number of degrees of freedom            .... 75

         *************************************************************
         *                GEOMETRY OPTIMIZATION CYCLE   1            *
         *************************************************************
---------------------------------
CARTESIAN COORDINATES (ANGSTROEM)
---------------------------------
  C      0.988145   -0.091134   -1.358138
  C     -0.163014   -0.808566   -1.468096
  N      1.051977    0.369511   -0.061240
  N     -0.779028   -0.771422   -0.236328
  C     -0.025334   -0.054895    0.593233
  H      1.764281    0.133460   -2.087116
  H     -0.599175   -1.336898   -2.313516
  C      2.124645    1.182890    0.499685
  C     -2.044727   -1.414688    0.098124
  H      3.065333    0.618716    0.470150
  H      1.873143    1.428335    1.537826
  H      2.222477    2.106490   -0.084545
  H     -0.254651    0.151644    1.638829
  H     -1.939948   -2.502144   -0.004823
  H     -2.826968   -1.048353   -0.578350
  H     -2.304128   -1.164007    1.133335

----------------------------
CARTESIAN COORDINATES (A.U.)
----------------------------
  NO LB      ZA    FRAG     MASS         X           Y           Z
   0 C     6.0000    0    12.011    1.867323   -0.172218   -2.566509
   1 C     6.0000    0    12.011   -0.308052   -1.527968   -2.774299
   2 N     7.0000    0    14.007    1.987948    0.698275   -0.115727
   3 N     7.0000    0    14.007   -1.472150   -1.457776   -0.446595
   4 C     6.0000    0    12.011   -0.047874   -0.103737    1.121048
   5 H     1.0000    0     1.008    3.334008    0.252203   -3.944078
   6 H     1.0000    0     1.008   -1.132277   -2.526371   -4.371912
   7 C     6.0000    0    12.011    4.014997    2.235338    0.944268
   8 C     6.0000    0    12.011   -3.863974   -2.673373    0.185427
   9 H     1.0000    0     1.008    5.792640    1.169204    0.888455
  10 H     1.0000    0     1.008    3.539727    2.699162    2.906070
  11 H     1.0000    0     1.008    4.199873    3.980689   -0.159767
  12 H     1.0000    0     1.008   -0.481221    0.286566    3.096938
  13 H     1.0000    0     1.008   -3.665970   -4.728367   -0.009114
  14 H     1.0000    0     1.008   -5.342195   -1.981100   -1.092923
  15 H     1.0000    0     1.008   -4.354171   -2.199654    2.141693

--------------------------------
INTERNAL COORDINATES (ANGSTROEM)
--------------------------------
 C      0   0   0     0.000000000000     0.00000000     0.00000000
 C      1   0   0     1.360869751177     0.00000000     0.00000000
 N      1   2   0     1.377756423557   106.94840291     0.00000000
 N      2   1   3     1.377717435019   106.96399152     0.00000000
 C      3   1   2     1.330058025533   108.60084626     0.00000000
 H      1   2   3     1.088227218836   131.14620082   180.15871241
 H      2   1   3     1.088166391939   131.13172351   179.67805544
 C      3   1   2     1.458368571895   125.63388228   179.81510163
 C      4   2   1     1.458644317735   125.52737742   180.12025421
 H      8   3   1     1.097296009218   109.47771618   297.32926071
 H      8   3   1     1.096007864894   108.68934396   177.50145646
 H      8   3   1     1.097238694690   109.28432805    57.86605620
 H      5   3   1     1.090190643982   125.58132125   180.07406840
 H      9   4   2     1.097331889442   109.43078998    63.15331392
 H      9   4   2     1.097141461700   109.27146061   302.71956288
 H      9   4   2     1.096262585826   108.72341343   183.00627841

---------------------------
INTERNAL COORDINATES (A.U.)
---------------------------
 C      0   0   0     0.000000000000     0.00000000     0.00000000
 C      1   0   0     2.571671133662     0.00000000     0.00000000
 N      1   2   0     2.603582319774   106.94840291     0.00000000
 N      2   1   3     2.603508642115   106.96399152     0.00000000
 C      3   1   2     2.513445410482   108.60084626     0.00000000
 H      1   2   3     2.056451415079   131.14620082   180.15871241
 H      2   1   3     2.056336468901   131.13172351   179.67805544
 C      3   1   2     2.755917203199   125.63388228   179.81510163
 C      4   2   1     2.756438287320   125.52737742   180.12025421
 H      8   3   1     2.073588945266   109.47771618   297.32926071
 H      8   3   1     2.071154705274   108.68934396   177.50145646
 H      8   3   1     2.073480636504   109.28432805    57.86605620
 H      5   3   1     2.060161750889   125.58132125   180.07406840
 H      9   4   2     2.073656749063   109.43078998    63.15331392
 H      9   4   2     2.073296892784   109.27146061   302.71956288
 H      9   4   2     2.071636058076   108.72341343   183.00627841

---------------------
BASIS SET INFORMATION
---------------------
There are 3 groups of distinct atoms

 Group   1 Type C   : 11s6p2d1f contracted to 5s3p2d1f pattern {62111/411/11/1}
 Group   2 Type N   : 11s6p2d1f contracted to 5s3p2d1f pattern {62111/411/11/1}
 Group   3 Type H   : 5s1p contracted to 3s1p pattern {311/1}

Atom   0C    basis set group =>   1
Atom   1C    basis set group =>   1
Atom   2N    basis set group =>   2
Atom   3N    basis set group =>   2
Atom   4C    basis set group =>   1
Atom   5H    basis set group =>   3
Atom   6H    basis set group =>   3
Atom   7C    basis set group =>   1
Atom   8C    basis set group =>   1
Atom   9H    basis set group =>   3
Atom  10H    basis set group =>   3
Atom  11H    basis set group =>   3
Atom  12H    basis set group =>   3
Atom  13H    basis set group =>   3
Atom  14H    basis set group =>   3
Atom  15H    basis set group =>   3
---------------------------------
AUXILIARY/J BASIS SET INFORMATION
---------------------------------
There are 3 groups of distinct atoms

 Group   1 Type C   : 12s5p4d2f1g contracted to 6s4p3d1f1g pattern {711111/2111/211/2/1}
 Group   2 Type N   : 12s5p4d2f1g contracted to 6s4p3d1f1g pattern {711111/2111/211/2/1}
 Group   3 Type H   : 5s2p1d contracted to 3s1p1d pattern {311/2/1}

Atom   0C    basis set group =>   1
Atom   1C    basis set group =>   1
Atom   2N    basis set group =>   2
Atom   3N    basis set group =>   2
Atom   4C    basis set group =>   1
Atom   5H    basis set group =>   3
Atom   6H    basis set group =>   3
Atom   7C    basis set group =>   1
Atom   8C    basis set group =>   1
Atom   9H    basis set group =>   3
Atom  10H    basis set group =>   3
Atom  11H    basis set group =>   3
Atom  12H    basis set group =>   3
Atom  13H    basis set group =>   3
Atom  14H    basis set group =>   3
Atom  15H    basis set group =>   3


           ************************************************************
           *        Program running with 4 parallel MPI-processes     *
           *              working on a common directory               *
           ************************************************************
------------------------------------------------------------------------------
                           ORCA GTO INTEGRAL CALCULATION
                           -- RI-GTO INTEGRALS CHOSEN --
------------------------------------------------------------------------------
------------------------------------------------------------------------------
                   ___                                                        
                  /   \      - P O W E R E D   B Y -                         
                 /     \                                                     
                 |  |  |   _    _      __       _____    __    __             
                 |  |  |  | |  | |    /  \     |  _  \  |  |  /  |          
                  \  \/   | |  | |   /    \    | | | |  |  | /  /          
                 / \  \   | |__| |  /  /\  \   | |_| |  |  |/  /          
                |  |  |   |  __  | /  /__\  \  |    /   |      \           
                |  |  |   | |  | | |   __   |  |    \   |  |\   \          
                \     /   | |  | | |  |  |  |  | |\  \  |  | \   \       
                 \___/    |_|  |_| |__|  |__|  |_| \__\ |__|  \__/        
                                                                              
                      - O R C A' S   B I G   F R I E N D -                    
                                      &                                       
                       - I N T E G R A L  F E E D E R -                       
                                                                              
 v1 FN, 2020, v2 2021                                                         
------------------------------------------------------------------------------


Reading SHARK input file 1_prot.SHARKINP.tmp ... ok
----------------------
SHARK INTEGRAL PACKAGE
----------------------

Number of atoms                             ...     16
Number of basis functions                   ...    271
Number of shells                            ...    113
Maximum angular momentum                    ...      3
Integral batch strategy                     ... SHARK/LIBINT Hybrid
RI-J (if used) integral strategy            ... SPLIT-RIJ (Revised 2003 algorithm where possible)
Printlevel                                  ...      1
Contraction scheme used                     ... SEGMENTED contraction
Coulomb Range Separation                    ... NOT USED
Exchange Range Separation                   ... Long Range
   Mu parameter                             ...  0.300000
   Scaling (regular/separated)              ...  0.157706  0.842294
Finite Nucleus Model                        ... NOT USED
Auxiliary Coulomb fitting basis             ... AVAILABLE
   # of basis functions in Aux-J            ...    442
   # of shells in Aux-J                     ...    150
   Maximum angular momentum in Aux-J        ...      4
Auxiliary J/K fitting basis                 ... NOT available
Auxiliary Correlation fitting basis         ... NOT available
Auxiliary 'external' fitting basis          ... NOT available
Integral threshold                          ...     2.500000e-11
Primitive cut-off                           ...     2.500000e-12
Primitive pair pre-selection threshold      ...     2.500000e-12

Calculating pre-screening integrals         ... done (  0.1 sec) Dimension = 113
Organizing shell pair data                  ... done (  0.1 sec)
Shell pair information
Total number of shell pairs                 ...      6441
Shell pairs after pre-screening             ...      5980
Total number of primitive shell pairs       ...     19096
Primitive shell pairs kept                  ...     13658
          la=0 lb=0:   1743 shell pairs
          la=1 lb=0:   1726 shell pairs
          la=1 lb=1:    441 shell pairs
          la=2 lb=0:    826 shell pairs
          la=2 lb=1:    406 shell pairs
          la=2 lb=2:    104 shell pairs
          la=3 lb=0:    408 shell pairs
          la=3 lb=1:    202 shell pairs
          la=3 lb=2:     96 shell pairs
          la=3 lb=3:     28 shell pairs

Calculating one electron integrals          ... done (  0.0 sec)
Calculating RI/J V-Matrix + Cholesky decomp.... done (  0.0 sec)
Calculating Nuclear repulsion               ... done (  0.0 sec) ENN=    307.588889172790 Eh

SHARK setup successfully completed in   0.3 seconds

Maximum memory used throughout the entire GTOINT-calculation: 19.4 MB


           ************************************************************
           *        Program running with 4 parallel MPI-processes     *
           *              working on a common directory               *
           ************************************************************
-------------------------------------------------------------------------------
                                 ORCA SCF
-------------------------------------------------------------------------------

------------
SCF SETTINGS
------------
Hamiltonian:
 Density Functional     Method          .... DFT(GTOs)
 Exchange Functional    Exchange        .... WB97X
 Correlation Functional Correlation     .... WB97X
 Gradients option       PostSCFGGA      .... off
 Hybrid DFT is turned on
   Fraction HF Exchange ScalHFX         ....  0.157706
   Scaling of DF-GGA-X  ScalDFX         ....  0.000000
   Scaling of DF-GGA-C  ScalDFC         ....  1.000000
   Scaling of DF-LDA-C  ScalLDAC        ....  1.000000
   Perturbative correction              ....  0.000000
   Density functional embedding theory  .... OFF
 Long-range corrected/Screened/Range-Separated Hybrid DFT is turned on
   Amount of maximum screened exact exchange              ....  0.842294
   Range separation parameter mu (erf(mu*r12)/r12)        ....  0.300000
 RI-approximation to the Coulomb term is turned on
   Number of AuxJ basis functions       .... 442
   RIJ-COSX (HFX calculated with COS-X)).... on


General Settings:
 Integral files         IntName         .... 1_prot
 Hartree-Fock type      HFTyp           .... RHF
 Total Charge           Charge          ....    1
 Multiplicity           Mult            ....    1
 Number of Electrons    NEL             ....   52
 Basis Dimension        Dim             ....  271
 Nuclear Repulsion      ENuc            ....    307.5888891728 Eh

Convergence Acceleration:
 DIIS                   CNVDIIS         .... on
   Start iteration      DIISMaxIt       ....     0
   Startup error        DIISStart       ....  0.200000
   # of expansion vecs  DIISMaxEq       ....     5
   Bias factor          DIISBfac        ....   1.050
   Max. coefficient     DIISMaxC        ....  10.000
 Trust-Rad. Augm. Hess. CNVTRAH         .... auto
   Auto Start mean grad. ratio tolernc. ....  1.125000
   Auto Start start iteration           ....    20
   Auto Start num. interpolation iter.  ....    10
   Max. Number of Micro iterations      ....    16
   Max. Number of Macro iterations      .... Maxiter - #DIIS iter
   Number of Davidson start vectors     ....     2
   Converg. threshold I  (grad. norm)   ....   1.000e-05
   Converg. threshold II (energy diff.) ....   1.000e-08
   Grad. Scal. Fac. for Micro threshold ....   0.100
   Minimum threshold for Micro iter.    ....   0.010
   NR start threshold (gradient norm)   ....   0.001
   Initial trust radius                 ....   0.400
   Minimum AH scaling param. (alpha)    ....   1.000
   Maximum AH scaling param. (alpha)    .... 1000.000
   Orbital update algorithm             .... Taylor
   White noise on init. David. guess    .... on
   Maximum white noise                  ....   0.010
   Quad. conv. algorithm                .... NR
 SOSCF                  CNVSOSCF        .... on
   Start iteration      SOSCFMaxIt      ....   150
   Startup grad/error   SOSCFStart      ....  0.001000
 Level Shifting         CNVShift        .... on
   Level shift para.    LevelShift      ....    0.2500
   Turn off err/grad.   ShiftErr        ....    0.0000
 Zerner damping         CNVZerner       .... off
 Static damping         CNVDamp         .... on
   Fraction old density DampFac         ....    0.8500
   Max. Damping (<1)    DampMax         ....    0.9800
   Min. Damping (>=0)   DampMin         ....    0.0000
   Turn off err/grad.   DampErr         ....    0.0300
 Fernandez-Rico         CNVRico         .... off

SCF Procedure:
 Maximum # iterations   MaxIter         ....   125
 SCF integral mode      SCFMode         .... Direct
   Integral package                     .... SHARK and LIBINT hybrid scheme
 Reset frequency        DirectResetFreq ....    20
 Integral Threshold     Thresh          ....  2.500e-11 Eh
 Primitive CutOff       TCut            ....  2.500e-12 Eh

Convergence Tolerance:
 Convergence Check Mode ConvCheckMode   .... Total+1el-Energy
 Convergence forced     ConvForced      .... 0
 Energy Change          TolE            ....  1.000e-08 Eh
 1-El. energy change                    ....  1.000e-05 Eh
 Orbital Gradient       TolG            ....  1.000e-05
 Orbital Rotation angle TolX            ....  1.000e-05
 DIIS Error             TolErr          ....  5.000e-07


Diagonalization of the overlap matrix:
Smallest eigenvalue                        ... 9.107e-05
Time for diagonalization                   ...    0.012 sec
Threshold for overlap eigenvalues          ... 1.000e-08
Number of eigenvalues below threshold      ... 0
Time for construction of square roots      ...    0.006 sec
Total time needed                          ...    0.019 sec

Time for model grid setup =    0.101 sec

------------------------------
INITIAL GUESS: MODEL POTENTIAL
------------------------------
Loading Hartree-Fock densities                     ... done
Calculating cut-offs                               ... done
Initializing the effective Hamiltonian             ... done
Setting up the integral package (SHARK)            ... done
Starting the Coulomb interaction                   ... done (   0.1 sec)
Reading the grid                                   ... done
Mapping shells                                     ... done
Starting the XC term evaluation                    ... done (   0.1 sec)
  promolecular density results
     # of electrons  =     52.995679089
     EX              =    -41.374233703
     EC              =     -1.757906542
     EX+EC           =    -43.132140245
Transforming the Hamiltonian                       ... done (   0.0 sec)
Diagonalizing the Hamiltonian                      ... done (   0.0 sec)
Back transforming the eigenvectors                 ... done (   0.0 sec)
Now organizing SCF variables                       ... done
                      ------------------
                      INITIAL GUESS DONE (   0.4 sec)
                      ------------------
-------------------
DFT GRID GENERATION
-------------------

General Integration Accuracy     IntAcc      ... 4.388
Radial Grid Type                 RadialGrid  ... OptM3 with GC (2021)
Angular Grid (max. ang.)         AngularGrid ... 4 (Lebedev-302)
Angular grid pruning method      GridPruning ... 4 (adaptive)
Weight generation scheme         WeightScheme... Becke
Basis function cutoff            BFCut       ... 1.0000e-11
Integration weight cutoff        WCut        ... 1.0000e-14
Angular grids for H and He will be reduced by one unit
Partially contracted basis set               ... off
Rotationally invariant grid construction     ... off

Total number of grid points                  ...    71242
Total number of batches                      ...     1120
Average number of points per batch           ...       63
Average number of grid points per atom       ...     4453
Time for grid setup =    0.443 sec

--------------------
COSX GRID GENERATION
--------------------

GRIDX 1
-------
General Integration Accuracy     IntAcc      ... 3.816
Radial Grid Type                 RadialGrid  ... OptM3 with GC (2021)
Angular Grid (max. ang.)         AngularGrid ... 1 (Lebedev-50)
Angular grid pruning method      GridPruning ... 4 (adaptive)
Weight generation scheme         WeightScheme... Becke
Basis function cutoff            BFCut       ... 1.0000e-11
Integration weight cutoff        WCut        ... 1.0000e-14
Angular grids for H and He will be reduced by one unit
Partially contracted basis set               ... on
Rotationally invariant grid construction     ... off

Total number of grid points                  ...     9138
Total number of batches                      ...      149
Average number of points per batch           ...       61
Average number of grid points per atom       ...      571
UseSFitting                                  ... on

GRIDX 2
-------
General Integration Accuracy     IntAcc      ... 4.020
Radial Grid Type                 RadialGrid  ... OptM3 with GC (2021)
Angular Grid (max. ang.)         AngularGrid ... 2 (Lebedev-110)
Angular grid pruning method      GridPruning ... 4 (adaptive)
Weight generation scheme         WeightScheme... Becke
Basis function cutoff            BFCut       ... 1.0000e-11
Integration weight cutoff        WCut        ... 1.0000e-14
Angular grids for H and He will be reduced by one unit
Partially contracted basis set               ... on
Rotationally invariant grid construction     ... off

Total number of grid points                  ...    19509
Total number of batches                      ...      313
Average number of points per batch           ...       62
Average number of grid points per atom       ...     1219
UseSFitting                                  ... on

GRIDX 3
-------
General Integration Accuracy     IntAcc      ... 4.338
Radial Grid Type                 RadialGrid  ... OptM3 with GC (2021)
Angular Grid (max. ang.)         AngularGrid ... 3 (Lebedev-194)
Angular grid pruning method      GridPruning ... 4 (adaptive)
Weight generation scheme         WeightScheme... Becke
Basis function cutoff            BFCut       ... 1.0000e-11
Integration weight cutoff        WCut        ... 1.0000e-14
Angular grids for H and He will be reduced by one unit
Partially contracted basis set               ... on
Rotationally invariant grid construction     ... off

Total number of grid points                  ...    42811
Total number of batches                      ...      678
Average number of points per batch           ...       63
Average number of grid points per atom       ...     2676
UseSFitting                                  ... on

Time for X-Grid setup             =    0.516 sec


--------------------
CPCM SOLVATION MODEL
--------------------
CPCM parameters:
  Epsilon                                         ...      80.4000
  Refrac                                          ...       1.3300
  Rsolv                                           ...       1.3000
  Surface type                                    ... GAUSSIAN VDW
  Epsilon function type                           ...         CPCM
Radii:
 Radius for C  used is    3.8550 Bohr (=   2.0400 Ang.)
 Radius for N  used is    3.5149 Bohr (=   1.8600 Ang.)
 Radius for H  used is    2.4944 Bohr (=   1.3200 Ang.)
Calculating surface                               ...        done! (  0.0s)
GEPOL surface points                              ...          909
GEPOL Volume                                      ...     902.6277
GEPOL Surface-area                                ...     534.1362
Calculating surface distance matrix               ...        done! (  0.0s)
Performing Cholesky decomposition & store         ...        done! (  0.1s)
Overall time for CPCM initialization              ...                 0.1s
--------------
SCF ITERATIONS
--------------
ITER       Energy         Delta-E        Max-DP      RMS-DP      [F,P]     Damp
               ***  Starting incremental Fock matrix formation  ***
  0   -305.2540178378   0.000000000000 0.01122263  0.00023687  0.1116561 0.8500
  1   -305.2711600449  -0.017142207125 0.00980040  0.00023032  0.0904128 0.8500
                               ***Turning on DIIS***
  2   -305.2843542534  -0.013194208483 0.00760985  0.00019179  0.0700483 0.8500
  3   -305.2943186463  -0.009964392966 0.00483755  0.00014719  0.0536691 0.8500
  4   -305.3020934000  -0.007774753711 0.00404361  0.00011903  0.0429491 0.8500
  5   -305.3082641867  -0.006170786705 0.00341239  0.00010057  0.0356282 0.8500
  6   -305.3133014019  -0.005037215188 0.00289932  0.00008634  0.0300494 0.8500
  7   -305.3174812294  -0.004179827414 0.01646942  0.00049949  0.0255093 0.0000
                      *** Initiating the SOSCF procedure ***
                           *** Shutting down DIIS ***
                      *** Re-Reading the Fockian *** 
                      *** Removing any level shift *** 
ITER      Energy       Delta-E        Grad      Rot      Max-DP    RMS-DP
  8   -305.33988620  -0.0224049712  0.000306  0.000306  0.000540  0.000018
               *** Restarting incremental Fock matrix formation ***
  9   -305.33988544   0.0000007581  0.000248  0.000356  0.000344  0.000012
 10   -305.33988656  -0.0000011186  0.000101  0.000245  0.000187  0.000007
 11   -305.33988682  -0.0000002628  0.000023  0.000036  0.000062  0.000002
 12   -305.33988686  -0.0000000318  0.000010  0.000020  0.000010  0.000000
 13   -305.33988686  -0.0000000006  0.000008  0.000018  0.000006  0.000000
                  ***Gradient check signals convergence***
              ***Rediagonalizing the Fockian in SOSCF/NRSCF***

               *****************************************************
               *                     SUCCESS                       *
               *           SCF CONVERGED AFTER  14 CYCLES          *
               *****************************************************

Old exchange energy                            =    -13.501610367 Eh
New exchange energy                            =    -13.501605744 Eh
Exchange energy change after final integration =      0.000004623 Eh
Total energy after final integration           =   -305.339882238 Eh
Final COS-X integration done in                =    11.956 sec

----------------
TOTAL SCF ENERGY
----------------

Total Energy       :         -305.33988224 Eh           -8308.72060 eV

Components:
Nuclear Repulsion  :          307.58888917 Eh            8369.91919 eV
Electronic Energy  :         -612.92877141 Eh          -16678.63980 eV
One Electron Energy:        -1009.54916496 Eh          -27471.22939 eV
Two Electron Energy:          396.62039355 Eh           10792.58959 eV
Max COSX asymmetry :            0.00000104 Eh               0.00003 eV
CPCM Dielectric    :           -0.08547704 Eh              -2.32595 eV

Virial components:
Potential Energy   :         -609.11861621 Eh          -16574.96020 eV
Kinetic Energy     :          303.77873397 Eh            8266.23960 eV
Virial Ratio       :            2.00513910


DFT components:
N(Alpha)           :       26.000016181913 electrons
N(Beta)            :       26.000016181913 electrons
N(Total)           :       52.000032363827 electrons
E(XC)              :      -30.534210333388 Eh       
DFET-embed. en.    :        0.000000000000 Eh       
CPCM Solvation Model Properties:
Surface-charge          :           -1.01569546
Charge-correction       :            0.00237374 Eh               0.06459 eV
Free-energy (cav+disp)  :  This term is not implemented in the current solvation scheme

---------------
SCF CONVERGENCE
---------------

  Last Energy change         ...   -4.5728e-09  Tolerance :   1.0000e-08
  Last MAX-Density change    ...    8.8818e-16  Tolerance :   1.0000e-07
  Last RMS-Density change    ...    1.3549e-17  Tolerance :   5.0000e-09
  Last Orbital Gradient      ...    1.3130e-06  Tolerance :   1.0000e-05
  Last Orbital Rotation      ...    4.2037e-06  Tolerance :   1.0000e-05

             **** THE GBW FILE WAS UPDATED (1_prot.gbw) ****
             **** DENSITY 1_prot.scfp WAS UPDATED ****
             **** ENERGY FILE WAS UPDATED (1_prot.en.tmp) ****
             **** THE GBW FILE WAS UPDATED (1_prot.gbw) ****
             **** DENSITY 1_prot.scfp WAS UPDATED ****
----------------
ORBITAL ENERGIES
----------------

  NO   OCC          E(Eh)            E(eV) 
   0   2.0000     -14.501288      -394.6001 
   1   2.0000     -14.501257      -394.5993 
   2   2.0000     -10.368260      -282.1347 
   3   2.0000     -10.319796      -280.8159 
   4   2.0000     -10.319102      -280.7970 
   5   2.0000     -10.310031      -280.5502 
   6   2.0000     -10.309920      -280.5472 
   7   2.0000      -1.221490       -33.2384 
   8   2.0000      -1.100411       -29.9437 
   9   2.0000      -0.942113       -25.6362 
  10   2.0000      -0.904873       -24.6228 
  11   2.0000      -0.842041       -22.9131 
  12   2.0000      -0.772465       -21.0198 
  13   2.0000      -0.742048       -20.1922 
  14   2.0000      -0.683765       -18.6062 
  15   2.0000      -0.638795       -17.3825 
  16   2.0000      -0.598976       -16.2990 
  17   2.0000      -0.588610       -16.0169 
  18   2.0000      -0.579112       -15.7584 
  19   2.0000      -0.578627       -15.7452 
  20   2.0000      -0.566354       -15.4113 
  21   2.0000      -0.521835       -14.1999 
  22   2.0000      -0.517867       -14.0919 
  23   2.0000      -0.516764       -14.0619 
  24   2.0000      -0.416189       -11.3251 
  25   2.0000      -0.375353       -10.2139 
  26   0.0000       0.058452         1.5906 
  27   0.0000       0.083691         2.2773 
  28   0.0000       0.127187         3.4609 
  29   0.0000       0.136236         3.7072 
  30   0.0000       0.151134         4.1126 
  31   0.0000       0.165157         4.4941 
  32   0.0000       0.177603         4.8328 
  33   0.0000       0.185447         5.0463 
  34   0.0000       0.196197         5.3388 
  35   0.0000       0.201589         5.4855 
  36   0.0000       0.206843         5.6285 
  37   0.0000       0.209470         5.7000 
  38   0.0000       0.226356         6.1595 
  39   0.0000       0.235435         6.4065 
  40   0.0000       0.239853         6.5267 
  41   0.0000       0.271745         7.3946 
  42   0.0000       0.277626         7.5546 
  43   0.0000       0.295830         8.0500 
  44   0.0000       0.302070         8.2197 
  45   0.0000       0.311815         8.4849 
  46   0.0000       0.323415         8.8006 
  47   0.0000       0.344865         9.3843 
  48   0.0000       0.347605         9.4588 
  49   0.0000       0.360763         9.8169 
  50   0.0000       0.384298        10.4573 
  51   0.0000       0.391435        10.6515 
  52   0.0000       0.398169        10.8347 
  53   0.0000       0.417296        11.3552 
  54   0.0000       0.428859        11.6699 
  55   0.0000       0.448655        12.2085 
  56   0.0000       0.467402        12.7187 
  57   0.0000       0.480563        13.0768 
  58   0.0000       0.482312        13.1244 
  59   0.0000       0.487781        13.2732 
  60   0.0000       0.507175        13.8009 
  61   0.0000       0.520692        14.1688 
  62   0.0000       0.539911        14.6917 
  63   0.0000       0.544089        14.8054 
  64   0.0000       0.548013        14.9122 
  65   0.0000       0.556327        15.1384 
  66   0.0000       0.586448        15.9581 
  67   0.0000       0.594402        16.1745 
  68   0.0000       0.597351        16.2547 
  69   0.0000       0.608033        16.5454 
  70   0.0000       0.609269        16.5790 
  71   0.0000       0.625029        17.0079 
  72   0.0000       0.631218        17.1763 
  73   0.0000       0.659373        17.9425 
  74   0.0000       0.679345        18.4859 
  75   0.0000       0.694733        18.9047 
  76   0.0000       0.696445        18.9512 
  77   0.0000       0.753533        20.5047 
  78   0.0000       0.770372        20.9629 
  79   0.0000       0.796558        21.6754 
  80   0.0000       0.801125        21.7997 
  81   0.0000       0.807677        21.9780 
  82   0.0000       0.812944        22.1213 
  83   0.0000       0.875554        23.8250 
  84   0.0000       0.888407        24.1748 
  85   0.0000       0.923976        25.1427 
  86   0.0000       0.934822        25.4378 
  87   0.0000       0.942245        25.6398 
  88   0.0000       0.995649        27.0930 
  89   0.0000       1.018149        27.7052 
  90   0.0000       1.058709        28.8089 
  91   0.0000       1.066504        29.0211 
  92   0.0000       1.082696        29.4617 
  93   0.0000       1.114348        30.3230 
  94   0.0000       1.118458        30.4348 
  95   0.0000       1.128385        30.7049 
  96   0.0000       1.146981        31.2109 
  97   0.0000       1.153525        31.3890 
  98   0.0000       1.185386        32.2560 
  99   0.0000       1.220536        33.2125 
 100   0.0000       1.222237        33.2588 
 101   0.0000       1.231312        33.5057 
 102   0.0000       1.304210        35.4894 
 103   0.0000       1.346431        36.6382 
 104   0.0000       1.409254        38.3478 
 105   0.0000       1.418742        38.6059 
 106   0.0000       1.421591        38.6834 
 107   0.0000       1.466005        39.8920 
 108   0.0000       1.473933        40.1077 
 109   0.0000       1.508254        41.0417 
 110   0.0000       1.547530        42.1104 
 111   0.0000       1.555980        42.3404 
 112   0.0000       1.576424        42.8967 
 113   0.0000       1.588709        43.2310 
 114   0.0000       1.601951        43.5913 
 115   0.0000       1.610824        43.8328 
 116   0.0000       1.618457        44.0405 
 117   0.0000       1.628981        44.3268 
 118   0.0000       1.646794        44.8115 
 119   0.0000       1.664729        45.2996 
 120   0.0000       1.676036        45.6073 
 121   0.0000       1.709351        46.5138 
 122   0.0000       1.712001        46.5859 
 123   0.0000       1.716282        46.7024 
 124   0.0000       1.720796        46.8252 
 125   0.0000       1.733527        47.1717 
 126   0.0000       1.745243        47.4905 
 127   0.0000       1.807323        49.1798 
 128   0.0000       1.815441        49.4007 
 129   0.0000       1.817524        49.4573 
 130   0.0000       1.889209        51.4080 
 131   0.0000       1.916144        52.1409 
 132   0.0000       1.988610        54.1128 
 133   0.0000       2.000533        54.4373 
 134   0.0000       2.011537        54.7367 
 135   0.0000       2.022254        55.0283 
 136   0.0000       2.062752        56.1303 
 137   0.0000       2.070269        56.3349 
 138   0.0000       2.072284        56.3897 
 139   0.0000       2.096826        57.0575 
 140   0.0000       2.108787        57.3830 
 141   0.0000       2.165484        58.9258 
 142   0.0000       2.177935        59.2646 
 143   0.0000       2.191412        59.6314 
 144   0.0000       2.225798        60.5670 
 145   0.0000       2.290220        62.3200 
 146   0.0000       2.308643        62.8214 
 147   0.0000       2.360111        64.2219 
 148   0.0000       2.369548        64.4787 
 149   0.0000       2.373616        64.5894 
 150   0.0000       2.389321        65.0167 
 151   0.0000       2.402533        65.3762 
 152   0.0000       2.403691        65.4078 
 153   0.0000       2.409477        65.5652 
 154   0.0000       2.444938        66.5301 
 155   0.0000       2.468662        67.1757 
 156   0.0000       2.499927        68.0265 
 157   0.0000       2.500823        68.0509 
 158   0.0000       2.546109        69.2831 
 159   0.0000       2.582174        70.2645 
 160   0.0000       2.615555        71.1729 
 161   0.0000       2.616109        71.1880 
 162   0.0000       2.631324        71.6020 
 163   0.0000       2.633814        71.6697 
 164   0.0000       2.670505        72.6681 
 165   0.0000       2.683471        73.0210 
 166   0.0000       2.693458        73.2927 
 167   0.0000       2.716557        73.9213 
 168   0.0000       2.722342        74.0787 
 169   0.0000       2.758504        75.0627 
 170   0.0000       2.834793        77.1386 
 171   0.0000       2.866366        77.9978 
 172   0.0000       2.876783        78.2813 
 173   0.0000       2.885373        78.5150 
 174   0.0000       2.892595        78.7115 
 175   0.0000       2.960321        80.5544 
 176   0.0000       2.986759        81.2738 
 177   0.0000       3.007326        81.8335 
 178   0.0000       3.017998        82.1239 
 179   0.0000       3.020482        82.1915 
 180   0.0000       3.049553        82.9826 
 181   0.0000       3.060866        83.2904 
 182   0.0000       3.063599        83.3648 
 183   0.0000       3.090719        84.1027 
 184   0.0000       3.106863        84.5420 
 185   0.0000       3.118200        84.8505 
 186   0.0000       3.133338        85.2625 
 187   0.0000       3.180764        86.5530 
 188   0.0000       3.188891        86.7741 
 189   0.0000       3.227320        87.8198 
 190   0.0000       3.230260        87.8999 
 191   0.0000       3.265354        88.8548 
 192   0.0000       3.267635        88.9169 
 193   0.0000       3.281950        89.3064 
 194   0.0000       3.292695        89.5988 
 195   0.0000       3.315917        90.2307 
 196   0.0000       3.332316        90.6769 
 197   0.0000       3.377865        91.9164 
 198   0.0000       3.391977        92.3004 
 199   0.0000       3.425451        93.2113 
 200   0.0000       3.428313        93.2891 
 201   0.0000       3.439987        93.6068 
 202   0.0000       3.445258        93.7502 
 203   0.0000       3.479132        94.6720 
 204   0.0000       3.533550        96.1528 
 205   0.0000       3.562467        96.9397 
 206   0.0000       3.563482        96.9673 
 207   0.0000       3.564783        97.0027 
 208   0.0000       3.597701        97.8984 
 209   0.0000       3.624026        98.6148 
 210   0.0000       3.664354        99.7121 
 211   0.0000       3.676339       100.0383 
 212   0.0000       3.689183       100.3878 
 213   0.0000       3.703184       100.7687 
 214   0.0000       3.751283       102.0776 
 215   0.0000       3.758185       102.2654 
 216   0.0000       3.813239       103.7635 
 217   0.0000       3.824871       104.0800 
 218   0.0000       3.902980       106.2055 
 219   0.0000       3.927755       106.8796 
 220   0.0000       3.931311       106.9764 
 221   0.0000       4.046919       110.1223 
 222   0.0000       4.083193       111.1093 
 223   0.0000       4.093142       111.3801 
 224   0.0000       4.212309       114.6228 
 225   0.0000       4.231244       115.1380 
 226   0.0000       4.278989       116.4372 
 227   0.0000       4.303054       117.0920 
 228   0.0000       4.308863       117.2501 
 229   0.0000       4.319098       117.5286 
 230   0.0000       4.338610       118.0596 
 231   0.0000       4.364713       118.7699 
 232   0.0000       4.463987       121.4713 
 233   0.0000       4.492909       122.2583 
 234   0.0000       4.538567       123.5007 
 235   0.0000       4.571078       124.3854 
 236   0.0000       4.687710       127.5591 
 237   0.0000       4.788579       130.3039 
 238   0.0000       4.801764       130.6627 
 239   0.0000       4.849462       131.9606 
 240   0.0000       4.911267       133.6424 
 241   0.0000       5.001032       136.0850 
 242   0.0000       5.001869       136.1078 
 243   0.0000       5.016303       136.5005 
 244   0.0000       5.098608       138.7402 
 245   0.0000       5.102009       138.8327 
 246   0.0000       5.138760       139.8328 
 247   0.0000       5.190906       141.2517 
 248   0.0000       5.222369       142.1079 
 249   0.0000       5.273503       143.4993 
 250   0.0000       5.323874       144.8700 
 251   0.0000       5.362247       145.9142 
 252   0.0000       5.398852       146.9102 
 253   0.0000       5.444949       148.1646 
 254   0.0000       5.505187       149.8037 
 255   0.0000       5.570461       151.5799 
 256   0.0000       5.644082       153.5833 
 257   0.0000       5.769676       157.0009 
 258   0.0000       5.813317       158.1884 
 259   0.0000       5.843824       159.0185 
 260   0.0000       5.913476       160.9139 
 261   0.0000       6.074592       165.2980 
 262   0.0000       6.132887       166.8844 
 263   0.0000       6.226193       169.4233 
 264   0.0000      22.391090       609.2925 
 265   0.0000      22.443794       610.7267 
 266   0.0000      22.468764       611.4061 
 267   0.0000      22.911465       623.4527 
 268   0.0000      22.985536       625.4682 
 269   0.0000      32.806877       892.7205 
 270   0.0000      32.938859       896.3119 

                    ********************************
                    * MULLIKEN POPULATION ANALYSIS *
                    ********************************

-----------------------
MULLIKEN ATOMIC CHARGES
-----------------------
   0 C :   -0.099136
   1 C :   -0.098010
   2 N :   -0.066801
   3 N :   -0.066852
   4 C :    0.115716
   5 H :    0.236452
   6 H :    0.236339
   7 C :   -0.304406
   8 C :   -0.304990
   9 H :    0.181421
  10 H :    0.176898
  11 H :    0.181196
  12 H :    0.272193
  13 H :    0.181578
  14 H :    0.181424
  15 H :    0.176978
Sum of atomic charges:    1.0000000

--------------------------------
MULLIKEN REDUCED ORBITAL CHARGES
--------------------------------
  0 C s       :     3.189613  s :     3.189613
      pz      :     0.813119  p :     2.802970
      px      :     1.015133
      py      :     0.974718
      dz2     :     0.018816  d :     0.095061
      dxz     :     0.027820
      dyz     :     0.019893
      dx2y2   :     0.019332
      dxy     :     0.009201
      f0      :     0.002573  f :     0.011492
      f+1     :     0.001913
      f-1     :     0.001764
      f+2     :     0.001022
      f-2     :     0.001473
      f+3     :     0.002055
      f-3     :     0.000692
  1 C s       :     3.188938  s :     3.188938
      pz      :     0.852044  p :     2.802516
      px      :     0.926660
      py      :     1.023811
      dz2     :     0.016997  d :     0.095060
      dxz     :     0.025780
      dyz     :     0.021946
      dx2y2   :     0.016199
      dxy     :     0.014138
      f0      :     0.002410  f :     0.011497
      f+1     :     0.001545
      f-1     :     0.001852
      f+2     :     0.000982
      f-2     :     0.002129
      f+3     :     0.001967
      f-3     :     0.000612
  2 N s       :     3.464368  s :     3.464368
      pz      :     1.095922  p :     3.497420
      px      :     1.128754
      py      :     1.272744
      dz2     :     0.021995  d :     0.099279
      dxz     :     0.022863
      dyz     :     0.020651
      dx2y2   :     0.017067
      dxy     :     0.016704
      f0      :     0.000660  f :     0.005733
      f+1     :     0.001143
      f-1     :     0.000738
      f+2     :     0.000613
      f-2     :     0.000833
      f+3     :     0.000929
      f-3     :     0.000816
  3 N s       :     3.464267  s :     3.464267
      pz      :     1.101058  p :     3.497615
      px      :     1.118546
      py      :     1.278011
      dz2     :     0.021569  d :     0.099239
      dxz     :     0.025486
      dyz     :     0.018159
      dx2y2   :     0.018570
      dxy     :     0.015455
      f0      :     0.000782  f :     0.005731
      f+1     :     0.000812
      f-1     :     0.000753
      f+2     :     0.000915
      f-2     :     0.000788
      f+3     :     0.000844
      f-3     :     0.000839
  4 C s       :     3.112192  s :     3.112192
      pz      :     0.972852  p :     2.623672
      px      :     0.783931
      py      :     0.866888
      dz2     :     0.026559  d :     0.132586
      dxz     :     0.027408
      dyz     :     0.016492
      dx2y2   :     0.038669
      dxy     :     0.023458
      f0      :     0.001714  f :     0.015835
      f+1     :     0.003267
      f-1     :     0.001617
      f+2     :     0.003129
      f-2     :     0.002241
      f+3     :     0.002189
      f-3     :     0.001677
  5 H s       :     0.741402  s :     0.741402
      pz      :     0.008432  p :     0.022146
      px      :     0.009483
      py      :     0.004231
  6 H s       :     0.741505  s :     0.741505
      pz      :     0.010479  p :     0.022156
      px      :     0.004903
      py      :     0.006774
  7 C s       :     3.317140  s :     3.317140
      pz      :     1.052442  p :     2.918774
      px      :     0.888230
      py      :     0.978102
      dz2     :     0.011774  d :     0.063298
      dxz     :     0.009502
      dyz     :     0.009367
      dx2y2   :     0.019872
      dxy     :     0.012783
      f0      :     0.000585  f :     0.005194
      f+1     :     0.000694
      f-1     :     0.000526
      f+2     :     0.000530
      f-2     :     0.000725
      f+3     :     0.001047
      f-3     :     0.001087
  8 C s       :     3.317328  s :     3.317328
      pz      :     1.093659  p :     2.919144
      px      :     0.795552
      py      :     1.029933
      dz2     :     0.010289  d :     0.063325
      dxz     :     0.013879
      dyz     :     0.005083
      dx2y2   :     0.021979
      dxy     :     0.012095
      f0      :     0.000688  f :     0.005193
      f+1     :     0.000788
      f-1     :     0.000325
      f+2     :     0.000334
      f-2     :     0.000528
      f+3     :     0.001389
      f-3     :     0.001142
  9 H s       :     0.797080  s :     0.797080
      pz      :     0.003834  p :     0.021500
      px      :     0.011807
      py      :     0.005859
 10 H s       :     0.801223  s :     0.801223
      pz      :     0.013803  p :     0.021879
      px      :     0.003584
      py      :     0.004492
 11 H s       :     0.797314  s :     0.797314
      pz      :     0.006375  p :     0.021490
      px      :     0.003488
      py      :     0.011628
 12 H s       :     0.706582  s :     0.706582
      pz      :     0.014962  p :     0.021225
      px      :     0.002786
      py      :     0.003477
 13 H s       :     0.796921  s :     0.796921
      pz      :     0.004022  p :     0.021501
      px      :     0.002987
      py      :     0.014491
 14 H s       :     0.797082  s :     0.797082
      pz      :     0.007581  p :     0.021494
      px      :     0.009236
      py      :     0.004677
 15 H s       :     0.801157  s :     0.801157
      pz      :     0.013549  p :     0.021865
      px      :     0.004160
      py      :     0.004156


                     *******************************
                     * LOEWDIN POPULATION ANALYSIS *
                     *******************************

----------------------
LOEWDIN ATOMIC CHARGES
----------------------
   0 C :   -0.148302
   1 C :   -0.148255
   2 N :    0.258036
   3 N :    0.257995
   4 C :   -0.128996
   5 H :    0.167654
   6 H :    0.167631
   7 C :   -0.222700
   8 C :   -0.222747
   9 H :    0.138882
  10 H :    0.142617
  11 H :    0.139297
  12 H :    0.178039
  13 H :    0.138896
  14 H :    0.139330
  15 H :    0.142622

-------------------------------
LOEWDIN REDUCED ORBITAL CHARGES
-------------------------------
  0 C s       :     2.773473  s :     2.773473
      pz      :     0.887303  p :     2.886806
      px      :     1.034453
      py      :     0.965050
      dz2     :     0.098773  d :     0.421211
      dxz     :     0.127741
      dyz     :     0.080607
      dx2y2   :     0.067371
      dxy     :     0.046719
      f0      :     0.017664  f :     0.066812
      f+1     :     0.012341
      f-1     :     0.011867
      f+2     :     0.004127
      f-2     :     0.007522
      f+3     :     0.007686
      f-3     :     0.005605
  1 C s       :     2.773434  s :     2.773434
      pz      :     0.902128  p :     2.886669
      px      :     1.000998
      py      :     0.983543
      dz2     :     0.094520  d :     0.421329
      dxz     :     0.116910
      dyz     :     0.083863
      dx2y2   :     0.062352
      dxy     :     0.063683
      f0      :     0.016680  f :     0.066823
      f+1     :     0.011142
      f-1     :     0.010288
      f+2     :     0.005712
      f-2     :     0.010460
      f+3     :     0.007163
      f-3     :     0.005378
  2 N s       :     2.856030  s :     2.856030
      pz      :     1.164944  p :     3.522787
      px      :     1.170881
      py      :     1.186963
      dz2     :     0.080201  d :     0.338329
      dxz     :     0.088647
      dyz     :     0.069578
      dx2y2   :     0.049547
      dxy     :     0.050358
      f0      :     0.002766  f :     0.024818
      f+1     :     0.006682
      f-1     :     0.003137
      f+2     :     0.003410
      f-2     :     0.002951
      f+3     :     0.003035
      f-3     :     0.002835
  3 N s       :     2.856149  s :     2.856149
      pz      :     1.168842  p :     3.522899
      px      :     1.162486
      py      :     1.191571
      dz2     :     0.079093  d :     0.338154
      dxz     :     0.095008
      dyz     :     0.065643
      dx2y2   :     0.051420
      dxy     :     0.046988
      f0      :     0.003731  f :     0.024804
      f+1     :     0.003885
      f-1     :     0.003480
      f+2     :     0.004537
      f-2     :     0.003834
      f+3     :     0.002876
      f-3     :     0.002460
  4 C s       :     2.764741  s :     2.764741
      pz      :     0.980570  p :     2.754309
      px      :     0.887426
      py      :     0.886313
      dz2     :     0.119914  d :     0.519081
      dxz     :     0.118715
      dyz     :     0.064477
      dx2y2   :     0.121618
      dxy     :     0.094355
      f0      :     0.007648  f :     0.090866
      f+1     :     0.020839
      f-1     :     0.009601
      f+2     :     0.020684
      f-2     :     0.014382
      f+3     :     0.007683
      f-3     :     0.010028
  5 H s       :     0.769504  s :     0.769504
      pz      :     0.023843  p :     0.062841
      px      :     0.026052
      py      :     0.012946
  6 H s       :     0.769524  s :     0.769524
      pz      :     0.029100  p :     0.062844
      px      :     0.014223
      py      :     0.019522
  7 C s       :     2.837656  s :     2.837656
      pz      :     1.068014  p :     3.063194
      px      :     0.967506
      py      :     1.027674
      dz2     :     0.055811  d :     0.284676
      dxz     :     0.038666
      dyz     :     0.045889
      dx2y2   :     0.074234
      dxy     :     0.070075
      f0      :     0.003574  f :     0.037174
      f+1     :     0.005689
      f-1     :     0.002366
      f+2     :     0.006235
      f-2     :     0.006082
      f+3     :     0.006164
      f-3     :     0.007065
  8 C s       :     2.837808  s :     2.837808
      pz      :     1.093444  p :     3.063247
      px      :     0.910310
      py      :     1.059492
      dz2     :     0.051605  d :     0.284548
      dxz     :     0.064115
      dyz     :     0.016490
      dx2y2   :     0.094072
      dxy     :     0.058267
      f0      :     0.003821  f :     0.037144
      f+1     :     0.004199
      f-1     :     0.003314
      f+2     :     0.003377
      f-2     :     0.006687
      f+3     :     0.008124
      f-3     :     0.007621
  9 H s       :     0.799319  s :     0.799319
      pz      :     0.012470  p :     0.061799
      px      :     0.031109
      py      :     0.018220
 10 H s       :     0.795526  s :     0.795526
      pz      :     0.037016  p :     0.061857
      px      :     0.011597
      py      :     0.013245
 11 H s       :     0.798915  s :     0.798915
      pz      :     0.019627  p :     0.061788
      px      :     0.010742
      py      :     0.031419
 12 H s       :     0.757952  s :     0.757952
      pz      :     0.042861  p :     0.064009
      px      :     0.009428
      py      :     0.011720
 13 H s       :     0.799306  s :     0.799306
      pz      :     0.013095  p :     0.061798
      px      :     0.009567
      py      :     0.039136
 14 H s       :     0.798856  s :     0.798856
      pz      :     0.022748  p :     0.061814
      px      :     0.024117
      py      :     0.014949
 15 H s       :     0.795553  s :     0.795553
      pz      :     0.037044  p :     0.061825
      px      :     0.011365
      py      :     0.013416


                      *****************************
                      * MAYER POPULATION ANALYSIS *
                      *****************************

  NA   - Mulliken gross atomic population
  ZA   - Total nuclear charge
  QA   - Mulliken gross atomic charge
  VA   - Mayer's total valence
  BVA  - Mayer's bonded valence
  FA   - Mayer's free valence

  ATOM       NA         ZA         QA         VA         BVA        FA
  0 C      6.0991     6.0000    -0.0991     3.8776     3.8776    -0.0000
  1 C      6.0980     6.0000    -0.0980     3.8775     3.8775     0.0000
  2 N      7.0668     7.0000    -0.0668     3.4603     3.4603     0.0000
  3 N      7.0669     7.0000    -0.0669     3.4600     3.4600    -0.0000
  4 C      5.8843     6.0000     0.1157     3.8513     3.8513    -0.0000
  5 H      0.7635     1.0000     0.2365     0.9483     0.9483    -0.0000
  6 H      0.7637     1.0000     0.2363     0.9483     0.9483     0.0000
  7 C      6.3044     6.0000    -0.3044     3.7820     3.7820     0.0000
  8 C      6.3050     6.0000    -0.3050     3.7820     3.7820    -0.0000
  9 H      0.8186     1.0000     0.1814     0.9506     0.9506     0.0000
 10 H      0.8231     1.0000     0.1769     0.9587     0.9587    -0.0000
 11 H      0.8188     1.0000     0.1812     0.9508     0.9508    -0.0000
 12 H      0.7278     1.0000     0.2722     0.9249     0.9249    -0.0000
 13 H      0.8184     1.0000     0.1816     0.9506     0.9506    -0.0000
 14 H      0.8186     1.0000     0.1814     0.9507     0.9507    -0.0000
 15 H      0.8230     1.0000     0.1770     0.9587     0.9587     0.0000

  Mayer bond orders larger than 0.100000
B(  0-C ,  1-C ) :   1.7007 B(  0-C ,  2-N ) :   1.1506 B(  0-C ,  5-H ) :   0.9255 
B(  1-C ,  3-N ) :   1.1508 B(  1-C ,  6-H ) :   0.9255 B(  2-N ,  4-C ) :   1.3910 
B(  2-N ,  7-C ) :   0.8685 B(  3-N ,  4-C ) :   1.3904 B(  3-N ,  8-C ) :   0.8687 
B(  4-C , 12-H ) :   0.8942 B(  7-C ,  9-H ) :   0.9574 B(  7-C , 10-H ) :   0.9577 
B(  7-C , 11-H ) :   0.9579 B(  8-C , 13-H ) :   0.9574 B(  8-C , 14-H ) :   0.9578 
B(  8-C , 15-H ) :   0.9576 

-------
TIMINGS
-------

Total SCF time: 0 days 0 hours 1 min 24 sec 

Total time                  ....      84.724 sec
Sum of individual times     ....      83.827 sec  ( 98.9%)

Fock matrix formation       ....      82.109 sec  ( 96.9%)
  Split-RI-J                ....       3.366 sec  (  4.1% of F)
  Chain of spheres X        ....      64.444 sec  ( 78.5% of F)
  XC integration            ....       7.592 sec  (  9.2% of F)
    Basis function eval.    ....       1.775 sec  ( 23.4% of XC)
    Density eval.           ....       1.830 sec  ( 24.1% of XC)
    XC-Functional eval.     ....       0.604 sec  (  8.0% of XC)
    XC-Potential eval.      ....       2.634 sec  ( 34.7% of XC)
Diagonalization             ....       0.155 sec  (  0.2%)
Density matrix formation    ....       0.012 sec  (  0.0%)
Population analysis         ....       0.026 sec  (  0.0%)
Initial guess               ....       0.279 sec  (  0.3%)
Orbital Transformation      ....       0.000 sec  (  0.0%)
Orbital Orthonormalization  ....       0.000 sec  (  0.0%)
DIIS solution               ....       0.092 sec  (  0.1%)
SOSCF solution              ....       0.093 sec  (  0.1%)
Grid generation             ....       1.060 sec  (  1.3%)

Maximum memory used throughout the entire SCF-calculation: 76.8 MB


-------------------------------------------------------------------------------
                          DFT DISPERSION CORRECTION                            
                                                                               
                                 DFTD4 V2.5                                    
-------------------------------------------------------------------------------
The WB97X functional is recognized
Active option DFTDOPT                   ...         5   

Starting D4
-------------------------   ----------------
Dispersion correction           -0.001653232
-------------------------   ----------------


-------------------------   --------------------
FINAL SINGLE POINT ENERGY      -305.341535470565
-------------------------   --------------------



           ************************************************************
           *        Program running with 4 parallel MPI-processes     *
           *              working on a common directory               *
           ************************************************************
------------------------------------------------------------------------------
                         ORCA SCF GRADIENT CALCULATION
------------------------------------------------------------------------------

 ... reading COSX grid (gridx3)
Gradient of the Kohn-Sham DFT energy:
Kohn-Sham wavefunction type      ... RKS
Hartree-Fock exchange scaling    ...    0.158
Number of operators              ...    1
Number of atoms                  ...   16
Basis set dimensions             ...  271
Integral neglect threshold       ... 2.5e-11
Integral primitive cutoff        ... 2.5e-12
SHARK Integral package           ... ON

Nuc. rep. gradient       (SHARK) ... done (  0.0 sec)
HCore & Overlap gradient (SHARK) ... done (  0.2 sec)
RI-J gradient            (SHARK) ... done (  0.9 sec)
COSX-gradient                    ... done ( 13.0 sec)
Exchange-correlation gradient    ... done
Dispersion correction            ... Starting D4
Starting D4
Starting D4
Starting D4


------------------- 
Dispersion Gradient 
------------------- 
   1  :    0.000006117    0.000001489   -0.000006594
   2  :   -0.000003064   -0.000004219   -0.000007454
   3  :    0.000008317    0.000004621   -0.000001037
   4  :   -0.000007569   -0.000005274   -0.000002553
   5  :    0.000000174   -0.000000129   -0.000000707
   6  :    0.000003581    0.000000795   -0.000004045
   7  :   -0.000001696   -0.000002492   -0.000004548
   8  :    0.000024601    0.000017647    0.000009608
   9  :   -0.000027674   -0.000014937    0.000004547
  10  :    0.000005295    0.000003951    0.000002135
  11  :    0.000006516    0.000004643    0.000002383
  12  :    0.000005366    0.000003760    0.000002216
  13  :   -0.000000610    0.000000540    0.000002826
  14  :   -0.000006104   -0.000003149    0.000001042
  15  :   -0.000005975   -0.000003298    0.000001133
  16  :   -0.000007276   -0.000003947    0.000001048

  |G| =    0.000050964

done

------------------
CARTESIAN GRADIENT
------------------

   1   C   :    0.002109349    0.002168201    0.002731828
   2   C   :   -0.003066202   -0.001033196    0.002291930
   3   N   :    0.004343593    0.002864320    0.000597008
   4   N   :   -0.004373166   -0.002596584   -0.000408820
   5   C   :    0.000410879   -0.000346098   -0.001787716
   6   H   :    0.005518989    0.001616439   -0.005313935
   7   H   :   -0.003051533   -0.003757279   -0.006166721
   8   C   :   -0.003772392   -0.003099208   -0.002364427
   9   C   :    0.004564773    0.002219458   -0.001494341
  10   H   :    0.005430968   -0.002919932   -0.000010730
  11   H   :   -0.001161806    0.001527066    0.005750411
  12   H   :    0.000736387    0.005337150   -0.003062462
  13   H   :   -0.001696935    0.001468613    0.007648521
  14   H   :    0.000309656   -0.006154329   -0.000400535
  15   H   :   -0.004617229    0.001905314   -0.003610918
  16   H   :   -0.001613156    0.001259348    0.005723324

Difference to translation invariance:
           :    0.0000721753    0.0004592813    0.0001224158

Difference to rotation invariance:
           :    0.0006547283    0.0001218863    0.0005810011

Norm of the cartesian gradient     ...    0.0236484456
RMS gradient                       ...    0.0034133591
MAX gradient                       ...    0.0076485207

-------
TIMINGS
-------

Total SCF gradient time            ...       17.436 sec

One electron gradient       ....       0.157 sec  (  0.9%)
RI-J Coulomb gradient       ....       0.878 sec  (  5.0%)
COSX gradient               ....      12.966 sec  ( 74.4%)
XC gradient                 ....       2.100 sec  ( 12.0%)
CPCM gradient               ....       0.361 sec  (  2.1%)
   A-Matrix (El+Nuc)        ....       0.041 sec  (  0.2%)
   Potential                ....       0.320 sec  (  1.8%)

Maximum memory used throughout the entire SCFGRAD-calculation: 49.4 MB
------------------------------------------------------------------------------
                         ORCA GEOMETRY RELAXATION STEP
------------------------------------------------------------------------------

Reading the OPT-File                    .... done
Getting information on internals        .... done
Copying old internal coords+grads       .... done
Making the new internal coordinates     .... (new redundants).... done
Validating the new internal coordinates .... (new redundants).... done
Calculating the B-matrix                .... done
Calculating the G,G- and P matrices     .... done
Transforming gradient to internals      .... done
Projecting the internal gradient        .... done
Number of atoms                         ....  16
Number of internal coordinates          ....  75
Current Energy                          ....  -305.341535471 Eh
Current gradient norm                   ....     0.023648446 Eh/bohr
Maximum allowed component of the step   ....  0.300
Current trust radius                    ....  0.300
Evaluating the initial hessian          ....  (Almloef) done
Projecting the Hessian                  .... done
Forming the augmented Hessian           .... done
Diagonalizing the augmented Hessian     .... done
Last element of RFO vector              ....  0.998152430
Lowest eigenvalues of augmented Hessian:
 -0.001451506  0.016123855  0.016156542  0.024984327  0.026572485
Length of the computed step             ....  0.060872049
The final length of the internal step   ....  0.060872049
Converting the step to cartesian space:
 Initial RMS(Int)=    0.0070288987
Transforming coordinates:
 Iter   0:  RMS(Cart)=    0.0120044412 RMS(Int)=    0.0070287986
 Iter   1:  RMS(Cart)=    0.0000092404 RMS(Int)=    0.0000053427
 Iter   2:  RMS(Cart)=    0.0000000700 RMS(Int)=    0.0000000465
done
Storing new coordinates                 .... done

                                .--------------------.
          ----------------------|Geometry convergence|-------------------------
          Item                value                   Tolerance       Converged
          ---------------------------------------------------------------------
          RMS gradient        0.0028509242            0.0001000000      NO
          MAX gradient        0.0092307155            0.0003000000      NO
          RMS step            0.0070288987            0.0020000000      NO
          MAX step            0.0220288204            0.0040000000      NO
          ........................................................
          Max(Bonds)      0.0117      Max(Angles)    0.10
          Max(Dihed)        0.12      Max(Improp)    0.00
          ---------------------------------------------------------------------

The optimization has not yet converged - more geometry cycles are needed


    ---------------------------------------------------------------------------
                         Redundant Internal Coordinates
                            (Angstroem and degrees)

        Definition                    Value    dE/dq     Step     New-Value
    ----------------------------------------------------------------------------
[...]
     37      -0.043404   0.012687  -0.017318   0.008356  -0.009550  -0.058112
     38      -0.028150   0.112531  -0.058850   0.035162  -0.038464   0.028893
     39      -0.247613  -0.487244  -0.278403  -0.174410  -0.285334  -0.151172
     40      -0.018063   0.025939  -0.036296  -0.026111  -0.038108   0.011801
     41       0.084239  -0.266520   0.225337   0.323413   0.268101  -0.241226
     42      -0.171040  -0.209204  -0.141174   0.356462  -0.036450   0.011735
     43      -0.145915  -0.516163  -0.104855  -0.025485  -0.098257  -0.250030
     44       0.141567   0.047119   0.112788  -0.462174  -0.012701  -0.148538
     45      -0.239054  -0.243467  -0.227070   0.428466  -0.096494   0.260178
     46      -0.152603  -0.056581  -0.283951  -0.456186  -0.351247   0.162290
     47      -0.042207  -0.047092  -0.008784   0.224768   0.045404   0.030760
                 36         37         38         39         40         41    
      0       0.078288  -0.266400  -0.042170   0.000125  -0.000358   0.000025
      1       0.051215  -0.176052  -0.045840   0.000096  -0.000360  -0.000025
      2       0.015175  -0.056077  -0.063432   0.000102  -0.000457  -0.000001
      3      -0.097877   0.278154  -0.072673  -0.000495   0.000313   0.000129
      4      -0.047135   0.163795  -0.025677  -0.000177   0.000125  -0.000072
      5       0.033774  -0.003352   0.052912   0.000356  -0.000177   0.000116
      6       0.053147   0.175234   0.212468   0.000239  -0.000186  -0.000022
      7       0.016844   0.082545   0.125091   0.000093  -0.000029   0.000037
      8      -0.044262  -0.064101  -0.000278  -0.000194   0.000083  -0.000014
      9      -0.020817  -0.136320   0.206021  -0.000050   0.000183   0.000160
     10      -0.046152  -0.111439   0.136243  -0.000090   0.000190  -0.000126
     11      -0.099802  -0.093356   0.041693  -0.000053   0.000262   0.000034
     12      -0.017359  -0.029363  -0.338399  -0.000876  -0.000652  -0.000055
     13       0.018575   0.021248  -0.211422  -0.000507  -0.000427   0.000098
     14       0.087601   0.118352  -0.032928  -0.000108  -0.000096  -0.000051
     15       0.027849   0.037702   0.147132   0.002062   0.002113  -0.000283
     16      -0.009076   0.171176   0.145086   0.000746   0.001037   0.000151
     17      -0.079186   0.460747   0.179267  -0.001342  -0.000990   0.000083
     18       0.049709  -0.227777   0.221977   0.002072   0.000824  -0.000823
     19       0.002269   0.002183   0.083003   0.001760   0.000915   0.000194
     20      -0.087935   0.433323  -0.153272   0.001826   0.001211  -0.000962
     21      -0.010092  -0.031536  -0.022550   0.005592   0.037448   0.001825
     22      -0.010712  -0.013085  -0.012523   0.003721   0.024972  -0.003170
     23      -0.011988   0.016127  -0.000597   0.001863   0.012376   0.001078
     24       0.018031   0.022576  -0.022099   0.039891  -0.006056  -0.047310
     25       0.001283   0.020558  -0.015203   0.023235  -0.003531   0.078269
     26      -0.019659   0.021071  -0.003537  -0.005600   0.000844  -0.026530
     27      -0.088007  -0.115238  -0.118863  -0.077197  -0.514565  -0.024552
     28      -0.142444  -0.150777  -0.174094   0.047657   0.316024   0.014607
     29       0.152489  -0.008198  -0.067759   0.002685   0.017060   0.001112
     30       0.185647   0.099022  -0.041224   0.018276   0.119967  -0.000007
     31       0.105977   0.065382  -0.025163  -0.016884  -0.111758  -0.000183
     32       0.012077   0.031344  -0.000665  -0.073043  -0.481865   0.001228
     33      -0.211310  -0.184752  -0.181071  -0.006618  -0.045293   0.002641
     34       0.057578  -0.041737  -0.061142  -0.074765  -0.498565   0.023584
     35       0.070399  -0.053130  -0.107287   0.047844   0.317819  -0.015278
     36       0.013851  -0.030491   0.493760   0.001807  -0.000045   0.000021
     37       0.043370   0.034360   0.309030   0.000560   0.000992  -0.000171
     38       0.107770   0.164255   0.044347  -0.001503   0.002971   0.000071
     39       0.309340   0.183898  -0.221568   0.063949  -0.009403   0.069916
     40      -0.003919   0.036142  -0.035365  -0.595641   0.089847  -0.702871
     41       0.399279   0.024542   0.029907  -0.058451   0.008725  -0.078279
     42       0.028888   0.121612  -0.149691  -0.414961   0.062767   0.489550
     43       0.459715   0.151428  -0.149374   0.204474  -0.030721  -0.231179
     44       0.232384  -0.020518   0.073585  -0.363357   0.054699   0.435272
     45      -0.419572  -0.108126  -0.032999  -0.119118   0.017922   0.002417
     46      -0.263821  -0.062852  -0.021647   0.117865  -0.017601   0.002230
     47      -0.055366   0.010273  -0.006656   0.489125  -0.073238  -0.041004
                 42         43         44         45         46         47    
      0       0.000013   0.000055   0.000123  -0.009015  -0.044187  -0.050359
      1       0.000156   0.000063  -0.000084  -0.003539  -0.012037  -0.016511
      2      -0.000132  -0.000021  -0.000578   0.005520   0.043860   0.041279
      3      -0.000017   0.000098  -0.000080   0.003995  -0.023259   0.031689
      4       0.000023  -0.000070  -0.000034   0.003060  -0.029462   0.035003
      5      -0.000002  -0.000537  -0.000006   0.002132  -0.049084   0.050798
      6      -0.000063  -0.000128  -0.000484   0.003512  -0.000092  -0.000295
      7       0.000201  -0.000111  -0.000310   0.001213  -0.000266  -0.000986
      8      -0.000024  -0.000100  -0.000053  -0.002626  -0.000644  -0.002463
      9       0.000011   0.000495   0.000154  -0.002257  -0.000101   0.001355
     10      -0.000027   0.000303   0.000066  -0.002348   0.000204   0.000041
     11       0.000009   0.000057  -0.000053  -0.003085   0.000809  -0.002325
     12       0.000060  -0.000098   0.000345  -0.019230   0.002716   0.002777
     13      -0.000090  -0.000335  -0.000022   0.017615   0.000187  -0.002571
     14       0.000056  -0.000518  -0.000586   0.088737  -0.004357  -0.012888
     15      -0.000505   0.000546  -0.004573   0.089376   0.505817   0.490698
     16      -0.001016   0.000200  -0.001565   0.025967   0.145625   0.143586
     17       0.000994  -0.000594   0.003797  -0.083924  -0.478038  -0.456706
     18       0.000104   0.002673  -0.000374  -0.022992   0.277179  -0.287809
     19      -0.000356   0.002841  -0.000419  -0.027571   0.337045  -0.345855
     20      -0.000034   0.004029  -0.000722  -0.043841   0.541826  -0.549648
     21       0.045766  -0.000953  -0.042357  -0.000403  -0.000397  -0.000125
     22      -0.079215   0.000112   0.004074   0.000036  -0.000157  -0.000001
     23       0.026671   0.001984   0.085015   0.000849   0.000569   0.000487
     24       0.001925   0.003241  -0.000111   0.000027  -0.000229  -0.000018
     25      -0.003197   0.032166  -0.000784   0.000247  -0.000260   0.000085
     26       0.001075   0.089592  -0.002074   0.000718  -0.000651   0.000482
     27      -0.606944   0.006365   0.286043   0.000002   0.002611   0.000994
     28       0.364698  -0.004039  -0.180483  -0.001148  -0.001044  -0.000056
     29       0.028413  -0.000017   0.000731  -0.000549   0.000391   0.000608
     30      -0.000750   0.004765   0.201134   0.000710   0.001409   0.001608
     31      -0.004385  -0.004412  -0.187603  -0.002119   0.000247   0.000358
     32       0.033014  -0.019022  -0.809397  -0.006522  -0.001548  -0.001573
     33       0.062660   0.000485   0.022909  -0.000764   0.000665   0.000459
     34       0.581749   0.007391   0.324982   0.000348   0.003930   0.002059
     35      -0.378988  -0.004505  -0.197580  -0.001236  -0.001847  -0.000478
     36      -0.000101  -0.002461  -0.000449   0.205406  -0.010059  -0.026286
     37       0.000142  -0.000018   0.001689  -0.187694   0.009719   0.024038
     38      -0.000197   0.004220   0.005708  -0.945955   0.047890   0.121027
     39      -0.002944   0.038626  -0.000901   0.001102   0.000079  -0.000440
     40       0.028386  -0.335160   0.008242   0.000027   0.002892  -0.001079
     41       0.003195  -0.022313   0.000535  -0.000478   0.000003   0.000435
     42      -0.019621  -0.279768   0.006717   0.000633   0.003333  -0.001971
     43       0.009373   0.143478  -0.003399   0.000748  -0.001308   0.000520
     44      -0.017577  -0.236022   0.005625  -0.000893   0.002213  -0.000627
     45      -0.000098   0.195755  -0.004503   0.002515   0.000390  -0.000911
     46      -0.000080  -0.193495   0.004405  -0.000332   0.000980  -0.001123
     47       0.001703  -0.803545   0.018413  -0.004454   0.001955  -0.001655


-----------
IR SPECTRUM
-----------

 Mode   freq       eps      Int      T**2         TX        TY        TZ
       cm**-1   L/(mol*cm) km/mol    a.u.
----------------------------------------------------------------------------
  6:     86.17   0.000074    0.37  0.000268  ( 0.008862 -0.012977  0.004605)
  7:    137.89   0.000045    0.23  0.000102  (-0.004361  0.008129 -0.004061)
  8:    194.48   0.001263    6.38  0.002026  (-0.021811  0.037323 -0.012547)
  9:    272.93   0.000007    0.03  0.000008  ( 0.001441 -0.000953 -0.002198)
 10:    281.92   0.000206    1.04  0.000228  (-0.003166  0.003420  0.014357)
 11:    422.40   0.000089    0.45  0.000066  (-0.007081 -0.003878 -0.000700)
 12:    620.30   0.000293    1.48  0.000147  (-0.001477  0.000348  0.012046)
 13:    644.17   0.009264   46.82  0.004488  (-0.032934  0.055651 -0.017498)
 14:    647.12   0.000215    1.08  0.000103  ( 0.005493 -0.008066  0.002866)
 15:    736.36   0.001201    6.07  0.000509  ( 0.019148  0.011844  0.001356)
 16:    776.66   0.013097   66.19  0.005262  (-0.036028  0.060057 -0.018905)
 17:    893.91   0.008221   41.55  0.002870  ( 0.026681 -0.044069  0.014701)
 18:    917.47   0.000006    0.03  0.000002  ( 0.000852 -0.001190  0.000255)
 19:   1054.46   0.001012    5.11  0.000299  ( 0.014577  0.009262  0.001066)
 20:   1055.56   0.000343    1.73  0.000101  ( 0.001057  0.003578  0.009349)
 21:   1109.42   0.002716   13.72  0.000764  (-0.011671 -0.000037  0.025053)
 22:   1114.45   0.002389   12.07  0.000669  ( 0.018520  0.014200  0.011153)
 23:   1130.49   0.000166    0.84  0.000046  (-0.003000 -0.000142  0.006061)
 24:   1156.16   0.000066    0.33  0.000018  ( 0.004106  0.000456  0.000902)
 25:   1163.24   0.000169    0.86  0.000045  ( 0.001989 -0.006337  0.001144)
 26:   1210.77   0.024786  125.26  0.006388  (-0.067683 -0.042139 -0.005626)
 27:   1302.97   0.000101    0.51  0.000024  (-0.004083 -0.002691 -0.000551)
 28:   1395.08   0.000249    1.26  0.000056  ( 0.001552 -0.001313 -0.007182)
 29:   1436.73   0.000020    0.10  0.000004  (-0.001848 -0.000132  0.000905)
 30:   1457.67   0.003743   18.92  0.000801  ( 0.023330  0.013045  0.009321)
 31:   1462.22   0.003673   18.56  0.000784  ( 0.011473  0.002730 -0.025393)
 32:   1473.63   0.002587   13.07  0.000548  (-0.007803  0.019613  0.010110)
 33:   1475.08   0.003041   15.37  0.000643  ( 0.014721 -0.020628 -0.001081)
 34:   1476.17   0.005476   27.67  0.001158  ( 0.013239 -0.024238  0.019873)
 35:   1507.43   0.000667    3.37  0.000138  (-0.008951 -0.003407  0.006816)
 36:   1514.26   0.004164   21.04  0.000858  (-0.004632  0.008323  0.027700)
 37:   1648.17   0.002252   11.38  0.000426  (-0.004828  0.003524  0.019768)
 38:   1656.12   0.025063  126.66  0.004723  (-0.057910 -0.036408 -0.006590)
 39:   3104.97   0.003728   18.84  0.000375  ( 0.016521  0.010051 -0.000821)
 40:   3105.69   0.002118   10.70  0.000213  ( 0.011341  0.007798  0.004838)
 41:   3196.11   0.000489    2.47  0.000048  (-0.003165  0.005823 -0.001952)
 42:   3196.50   0.000524    2.65  0.000051  ( 0.003761 -0.005783  0.001901)
 43:   3210.98   0.000252    1.27  0.000024  ( 0.001671  0.002464  0.003950)
 44:   3211.77   0.000301    1.52  0.000029  (-0.003491 -0.000558  0.004088)
 45:   3301.41   0.010232   51.71  0.000967  ( 0.007365 -0.005226 -0.029759)
 46:   3302.19   0.004578   23.14  0.000433  ( 0.017345  0.011120  0.002853)
 47:   3319.74   0.001781    9.00  0.000167  ( 0.002396 -0.002469 -0.012472)

* The epsilon (eps) is given for a Dirac delta lineshape.
** The dipole moment derivative (T) already includes vibrational overlap.

The first frequency considered to be a vibration is 6
The total number of vibrations considered is 42


--------------------------
THERMOCHEMISTRY AT 298.15K
--------------------------

Temperature         ... 298.15 K
Pressure            ... 1.00 atm
Total Mass          ... 97.14 AMU

Throughout the following assumptions are being made:
  (1) The electronic state is orbitally nondegenerate
  (2) There are no thermally accessible electronically excited states
  (3) Hindered rotations indicated by low frequency modes are not
      treated as such but are treated as vibrations and this may
      cause some error
  (4) All equations used are the standard statistical mechanics
      equations for an ideal gas
  (5) All vibrations are strictly harmonic

freq.      86.17  E(vib)   ...       0.48 
freq.     137.89  E(vib)   ...       0.42 
freq.     194.48  E(vib)   ...       0.36 
freq.     272.93  E(vib)   ...       0.29 
freq.     281.92  E(vib)   ...       0.28 
freq.     422.40  E(vib)   ...       0.18 
freq.     620.30  E(vib)   ...       0.09 
freq.     644.17  E(vib)   ...       0.09 
freq.     647.12  E(vib)   ...       0.09 
freq.     736.36  E(vib)   ...       0.06 
freq.     776.66  E(vib)   ...       0.05 
freq.     893.91  E(vib)   ...       0.03 
freq.     917.47  E(vib)   ...       0.03 
freq.    1054.46  E(vib)   ...       0.02 
freq.    1055.56  E(vib)   ...       0.02 
freq.    1109.42  E(vib)   ...       0.02 
freq.    1114.45  E(vib)   ...       0.01 
freq.    1130.49  E(vib)   ...       0.01 
freq.    1156.16  E(vib)   ...       0.01 
freq.    1163.24  E(vib)   ...       0.01 
freq.    1210.77  E(vib)   ...       0.01 
freq.    1302.97  E(vib)   ...       0.01 
freq.    1395.08  E(vib)   ...       0.00 
freq.    1436.73  E(vib)   ...       0.00 
freq.    1457.67  E(vib)   ...       0.00 
freq.    1462.22  E(vib)   ...       0.00 
freq.    1473.63  E(vib)   ...       0.00 
freq.    1475.08  E(vib)   ...       0.00 
freq.    1476.17  E(vib)   ...       0.00 
freq.    1507.43  E(vib)   ...       0.00 
freq.    1514.26  E(vib)   ...       0.00 
freq.    1648.17  E(vib)   ...       0.00 
freq.    1656.12  E(vib)   ...       0.00 
freq.    3104.97  E(vib)   ...       0.00 
freq.    3105.69  E(vib)   ...       0.00 
freq.    3196.11  E(vib)   ...       0.00 
freq.    3196.50  E(vib)   ...       0.00 
freq.    3210.98  E(vib)   ...       0.00 
freq.    3211.77  E(vib)   ...       0.00 
freq.    3301.41  E(vib)   ...       0.00 
freq.    3302.19  E(vib)   ...       0.00 
freq.    3319.74  E(vib)   ...       0.00 

------------
INNER ENERGY
------------

The inner energy is: U= E(el) + E(ZPE) + E(vib) + E(rot) + E(trans)
    E(el)   - is the total energy from the electronic structure calculation
              = E(kin-el) + E(nuc-el) + E(el-el) + E(nuc-nuc)
    E(ZPE)  - the the zero temperature vibrational energy from the frequency calculation
    E(vib)  - the the finite temperature correction to E(ZPE) due to population
              of excited vibrational states
    E(rot)  - is the rotational thermal energy
    E(trans)- is the translational thermal energy

Summary of contributions to the inner energy U:
Electronic energy                ...   -305.34228255 Eh
Zero point energy                ...      0.14211487 Eh      89.18 kcal/mol
Thermal vibrational correction   ...      0.00414673 Eh       2.60 kcal/mol
Thermal rotational correction    ...      0.00141627 Eh       0.89 kcal/mol
Thermal translational correction ...      0.00141627 Eh       0.89 kcal/mol
-----------------------------------------------------------------------
Total thermal energy                   -305.19318842 Eh


Summary of corrections to the electronic energy:
(perhaps to be used in another calculation)
Total thermal correction                  0.00697927 Eh       4.38 kcal/mol
Non-thermal (ZPE) correction              0.14211487 Eh      89.18 kcal/mol
-----------------------------------------------------------------------
Total correction                          0.14909413 Eh      93.56 kcal/mol


--------
ENTHALPY
--------

The enthalpy is H = U + kB*T
                kB is Boltzmann's constant
Total free energy                 ...   -305.19318842 Eh 
Thermal Enthalpy correction       ...      0.00094421 Eh       0.59 kcal/mol
-----------------------------------------------------------------------
Total Enthalpy                    ...   -305.19224421 Eh


Note: Only C1 symmetry has been detected, increase convergence thresholds 
      if your molecule has a higher symmetry. Symmetry factor of 1.0 is   
      used for the rotational entropy correction. 
 

Note: Rotational entropy computed according to Herzberg 
Infrared and Raman Spectra, Chapter V,1, Van Nostrand Reinhold, 1945 
Point Group:  C1, Symmetry Number:   1  
Rotational constants in cm-1:     0.229397     0.069295     0.054318 

Vibrational entropy computed according to the QRRHO of S. Grimme
Chem.Eur.J. 2012 18 9955


-------
ENTROPY
-------

The entropy contributions are T*S = T*(S(el)+S(vib)+S(rot)+S(trans))
     S(el)   - electronic entropy
     S(vib)  - vibrational entropy
     S(rot)  - rotational entropy
     S(trans)- translational entropy
The entropies will be listed as multiplied by the temperature to get
units of energy

Electronic entropy                ...      0.00000000 Eh      0.00 kcal/mol
Vibrational entropy               ...      0.00702174 Eh      4.41 kcal/mol
Rotational entropy                ...      0.01284122 Eh      8.06 kcal/mol
Translational entropy             ...      0.01883016 Eh     11.82 kcal/mol
-----------------------------------------------------------------------
Final entropy term                ...      0.03869312 Eh     24.28 kcal/mol

In case the symmetry of your molecule has not been determined correctly
or in case you have a reason to use a different symmetry number we print 
out the resulting rotational entropy values for sn=1,12 :
 --------------------------------------------------------
|  sn= 1 | S(rot)=       0.01284122 Eh      8.06 kcal/mol|
|  sn= 2 | S(rot)=       0.01218676 Eh      7.65 kcal/mol|
|  sn= 3 | S(rot)=       0.01180393 Eh      7.41 kcal/mol|
|  sn= 4 | S(rot)=       0.01153231 Eh      7.24 kcal/mol|
|  sn= 5 | S(rot)=       0.01132162 Eh      7.10 kcal/mol|
|  sn= 6 | S(rot)=       0.01114947 Eh      7.00 kcal/mol|
|  sn= 7 | S(rot)=       0.01100393 Eh      6.91 kcal/mol|
|  sn= 8 | S(rot)=       0.01087785 Eh      6.83 kcal/mol|
|  sn= 9 | S(rot)=       0.01076664 Eh      6.76 kcal/mol|
|  sn=10 | S(rot)=       0.01066716 Eh      6.69 kcal/mol|
|  sn=11 | S(rot)=       0.01057717 Eh      6.64 kcal/mol|
|  sn=12 | S(rot)=       0.01049502 Eh      6.59 kcal/mol|
 --------------------------------------------------------


-------------------
GIBBS FREE ENERGY
-------------------

The Gibbs free energy is G = H - T*S

Total enthalpy                    ...   -305.19224421 Eh 
Total entropy correction          ...     -0.03869312 Eh    -24.28 kcal/mol
-----------------------------------------------------------------------
Final Gibbs free energy         ...   -305.23093733 Eh

For completeness - the Gibbs free energy minus the electronic energy
G-E(el)                           ...      0.11134523 Eh     69.87 kcal/mol


Timings for individual modules:

Sum of individual times         ...      812.894 sec (=  13.548 min)
GTO integral calculation        ...        2.484 sec (=   0.041 min)   0.3 %
SCF iterations                  ...      235.427 sec (=   3.924 min)  29.0 %
SCF Gradient evaluation         ...       53.449 sec (=   0.891 min)   6.6 %
Geometry relaxation             ...        0.139 sec (=   0.002 min)   0.0 %
Analytical frequency calculation...      521.394 sec (=   8.690 min)  64.1 %
                             ****ORCA TERMINATED NORMALLY****
TOTAL RUN TIME: 0 days 0 hours 13 minutes 34 seconds 313 msec
