
                                 *****************
                                 * O   R   C   A *
                                 *****************

                                            #,                                       
                                            ###                                      
                                            ####                                     
                                            #####                                    
                                            ######                                   
                                           ########,                                 
                                     ,,################,,,,,                         
                               ,,#################################,,                 
                          ,,##########################################,,             
                       ,#########################################, ''#####,          
                    ,#############################################,,   '####,        
                  ,##################################################,,,,####,       
                ,###########''''           ''''###############################       
              ,#####''   ,,,,##########,,,,          '''####'''          '####       
            ,##' ,,,,###########################,,,                        '##       
           ' ,,###''''                  '''############,,,                           
         ,,##''                                '''############,,,,        ,,,,,,###''
      ,#''                                            '''#######################'''  
     '                                                          ''''####''''         
             ,#######,   #######,   ,#######,      ##                                
            ,#'     '#,  ##    ##  ,#'     '#,    #''#        ######   ,####,        
            ##       ##  ##   ,#'  ##            #'  '#       #        #'  '#        
            ##       ##  #######   ##           ,######,      #####,   #    #        
            '#,     ,#'  ##    ##  '#,     ,#' ,#      #,         ##   #,  ,#        
             '#######'   ##     ##  '#######'  #'      '#     #####' # '####'        



                  #######################################################
                  #                        -***-                        #
                  #          Department of theory and spectroscopy      #
                  #    Directorship and core code : Frank Neese         #
                  #        Max Planck Institute fuer Kohlenforschung    #
                  #                Kaiser Wilhelm Platz 1               #
                  #                 D-45470 Muelheim/Ruhr               #
                  #                      Germany                        #
                  #                                                     #
                  #                  All rights reserved                #
                  #                        -***-                        #
                  #######################################################


                         Program Version 5.0.4 -  RELEASE  -


 With contributions from (in alphabetic order):
   Daniel Aravena         : Magnetic Suceptibility
   Michael Atanasov       : Ab Initio Ligand Field Theory (pilot matlab implementation)
   Alexander A. Auer      : GIAO ZORA, VPT2 properties, NMR spectrum
   Ute Becker             : Parallelization
   Giovanni Bistoni       : ED, misc. LED, open-shell LED, HFLD
   Martin Brehm           : Molecular dynamics
   Dmytro Bykov           : SCF Hessian
   Vijay G. Chilkuri      : MRCI spin determinant printing, contributions to CSF-ICE
   Dipayan Datta          : RHF DLPNO-CCSD density
   Achintya Kumar Dutta   : EOM-CC, STEOM-CC
   Dmitry Ganyushin       : Spin-Orbit,Spin-Spin,Magnetic field MRCI
   Miquel Garcia          : C-PCM and meta-GGA Hessian, CC/C-PCM, Gaussian charge scheme
   Yang Guo               : DLPNO-NEVPT2, F12-NEVPT2, CIM, IAO-localization
   Andreas Hansen         : Spin unrestricted coupled pair/coupled cluster methods
   Benjamin Helmich-Paris : MC-RPA, TRAH-SCF, COSX integrals
   Lee Huntington         : MR-EOM, pCC
   Robert Izsak           : Overlap fitted RIJCOSX, COSX-SCS-MP3, EOM
   Marcus Kettner         : VPT2
   Christian Kollmar      : KDIIS, OOCD, Brueckner-CCSD(T), CCSD density, CASPT2, CASPT2-K
   Simone Kossmann        : Meta GGA functionals, TD-DFT gradient, OOMP2, MP2 Hessian
   Martin Krupicka        : Initial AUTO-CI
   Lucas Lang             : DCDCAS
   Marvin Lechner         : AUTO-CI (C++ implementation), FIC-MRCC
   Dagmar Lenk            : GEPOL surface, SMD
   Dimitrios Liakos       : Extrapolation schemes; Compound Job, initial MDCI parallelization
   Dimitrios Manganas     : Further ROCIS development; embedding schemes
   Dimitrios Pantazis     : SARC Basis sets
   Anastasios Papadopoulos: AUTO-CI, single reference methods and gradients
   Taras Petrenko         : DFT Hessian,TD-DFT gradient, ASA, ECA, R-Raman, ABS, FL, XAS/XES, NRVS
   Peter Pinski           : DLPNO-MP2, DLPNO-MP2 Gradient
   Christoph Reimann      : Effective Core Potentials
   Marius Retegan         : Local ZFS, SOC
   Christoph Riplinger    : Optimizer, TS searches, QM/MM, DLPNO-CCSD(T), (RO)-DLPNO pert. Triples
   Tobias Risthaus        : Range-separated hybrids, TD-DFT gradient, RPA, STAB
   Michael Roemelt        : Original ROCIS implementation
   Masaaki Saitow         : Open-shell DLPNO-CCSD energy and density
   Barbara Sandhoefer     : DKH picture change effects
   Avijit Sen             : IP-ROCIS
   Kantharuban Sivalingam : CASSCF convergence, NEVPT2, FIC-MRCI
   Bernardo de Souza      : ESD, SOC TD-DFT
   Georgi Stoychev        : AutoAux, RI-MP2 NMR, DLPNO-MP2 response
   Willem Van den Heuvel  : Paramagnetic NMR
   Boris Wezisla          : Elementary symmetry handling
   Frank Wennmohs         : Technical directorship


 We gratefully acknowledge several colleagues who have allowed us to
 interface, adapt or use parts of their codes:
   Stefan Grimme, W. Hujo, H. Kruse, P. Pracht,  : VdW corrections, initial TS optimization,
                  C. Bannwarth, S. Ehlert          DFT functionals, gCP, sTDA/sTD-DF
   Ed Valeev, F. Pavosevic, A. Kumar             : LibInt (2-el integral package), F12 methods
   Garnet Chan, S. Sharma, J. Yang, R. Olivares  : DMRG
   Ulf Ekstrom                                   : XCFun DFT Library
   Mihaly Kallay                                 : mrcc  (arbitrary order and MRCC methods)
   Jiri Pittner, Ondrej Demel                    : Mk-CCSD
   Frank Weinhold                                : gennbo (NPA and NBO analysis)
   Christopher J. Cramer and Donald G. Truhlar   : smd solvation model
   Lars Goerigk                                  : TD-DFT with DH, B97 family of functionals
   V. Asgeirsson, H. Jonsson                     : NEB implementation
   FAccTs GmbH                                   : IRC, NEB, NEB-TS, DLPNO-Multilevel, CI-OPT
                                                   MM, QMMM, 2- and 3-layer-ONIOM, Crystal-QMMM,
                                                   LR-CPCM, SF, NACMEs, symmetry and pop. for TD-DFT,
                                                   nearIR, NL-DFT gradient (VV10), updates on ESD,
                                                   ML-optimized integration grids
   S Lehtola, MJT Oliveira, MAL Marques          : LibXC Library
   Liviu Ungur et al                             : ANISO software


 Your calculation uses the libint2 library for the computation of 2-el integrals
 For citations please refer to: http://libint.valeyev.net

 Your ORCA version has been built with support for libXC version: 5.1.0
 For citations please refer to: https://tddft.org/programs/libxc/

 This ORCA versions uses:
   CBLAS   interface :  Fast vector & matrix operations
   LAPACKE interface :  Fast linear algebra routines
   SCALAPACK package :  Parallel linear algebra routines
   Shared memory     :  Shared parallel matrices
   BLAS/LAPACK       :  OpenBLAS 0.3.15  USE64BITINT DYNAMIC_ARCH NO_AFFINITY SkylakeX SINGLE_THREADED
        Core in use  :  SkylakeX
   Copyright (c) 2011-2014, The OpenBLAS Project




***************************************
The coordinates will be read from file: 3_prot.xyz
***************************************


Your calculation utilizes the atom-pairwise dispersion correction
based on tight binding partial charges (D4)
Cite in your paper:
E.Caldeweyher, C.Bannwarth, S.Grimme, J.Chem.Phys., (2017), 147, 034112.
E.Caldeweyher, S.Ehlert, A.Hansen, H.Neugebauer, S.Grimme, J.Chem.Phys., (2018), in progress.
   

XCFun DFT library Copyright 2009-2010 Ulf Ekstrom and contributors.
See http://admol.org/xcfun for more information.
This is free software; see the source code for copying conditions.
There is ABSOLUTELY NO WARRANTY; not even for MERCHANTABILITY or FITNESS FOR A PARTICULAR PURPOSE.
For details see the documentation.
Scientific users of this library should cite U. Ekstrom, L. Visscher, R. Bast, A. J. Thorvaldsen and K. Ruud;
J.Chem.Theor.Comp. 2010, DOI: 10.1021/ct100117s
XCFun Version 0.99 

================================================================================

----- Orbital basis set information -----
Your calculation utilizes the basis: def2-TZVP
   F. Weigend and R. Ahlrichs, Phys. Chem. Chem. Phys. 7, 3297 (2005).

----- AuxJ basis set information -----
Your calculation utilizes the auxiliary basis: def2/J
   F. Weigend, Phys. Chem. Chem. Phys. 8, 1057 (2006).

================================================================================
                                        WARNINGS
                       Please study these warnings very carefully!
================================================================================


WARNING: Geometry Optimization
  ===> : Switching off AutoStart
         For restart on a previous wavefunction, please use MOREAD

INFO   : the flag for use of the SHARK integral package has been found!

================================================================================
                                       INPUT FILE
================================================================================
NAME = 3_prot.inp
|  1> # ORCA 5.0.4 - /users/bwb16179/postgrad/2024_06/pKa_Reviewer_Comments/Aq_Z=1/3_prot.inp # write input file
|  2> # Basic Mode
|  3> #
|  4> ! Opt Freq wB97X Def2-TZVP D4 SlowConv TightSCF Defgrid2 Def2/J RIJCOSX CPCM(Water)
|  5> 
|  6> %PAL NPROCS 4 END
|  7> 
|  8> %maxcore 4500
|  9> 
| 10> %geom
| 11> Maxiter 150
| 12> END
| 13> 
| 14> * xyzfile 1 1 3_prot.xyz
| 15> 
| 16>                          ****END OF INPUT****
================================================================================

                       *****************************
                       * Geometry Optimization Run *
                       *****************************

Geometry optimization settings:
Update method            Update   .... BFGS
Choice of coordinates    CoordSys .... Z-matrix Internals
Initial Hessian          InHess   .... Almoef's Model

Convergence Tolerances:
Energy Change            TolE     ....  5.0000e-06 Eh
Max. Gradient            TolMAXG  ....  3.0000e-04 Eh/bohr
RMS Gradient             TolRMSG  ....  1.0000e-04 Eh/bohr
Max. Displacement        TolMAXD  ....  4.0000e-03 bohr
RMS Displacement         TolRMSD  ....  2.0000e-03 bohr
Strict Convergence                ....  False
------------------------------------------------------------------------------
                        ORCA OPTIMIZATION COORDINATE SETUP
------------------------------------------------------------------------------

The optimization will be done in new redundant internal coordinates
Making redundant internal coordinates   ...  (new redundants) done
Evaluating the initial hessian          ...  (Almloef) done
Evaluating the coordinates              ...  done
Calculating the B-matrix                .... done
Calculating the G-matrix                .... done
Diagonalizing the G-matrix              .... done
The first mode is                       ....   33
The number of degrees of freedom        ....   42

    -----------------------------------------------------------------
                    Redundant Internal Coordinates


    -----------------------------------------------------------------
         Definition                    Initial Value    Approx d2E/dq
    -----------------------------------------------------------------
      1. B(C   2,N   0)                  1.3787         0.583383   
      2. B(C   3,C   2)                  1.3648         0.685500   
      3. B(C   3,N   1)                  1.3787         0.583382   
      4. B(C   4,N   0)                  1.3307         0.695877   
      5. B(C   4,N   1)                  1.3307         0.695874   
      6. B(Cl  5,C   2)                  1.6886         0.468094   
      7. B(Cl  6,C   3)                  1.6886         0.468095   
      8. B(C   7,N   0)                  1.4608         0.431490   
      9. B(C   8,N   1)                  1.4608         0.431491   
     10. B(H   9,C   7)                  1.0956         0.352769   
     11. B(H  10,C   8)                  1.0956         0.352769   
     12. B(H  11,C   7)                  1.0974         0.350497   
     13. B(H  12,C   8)                  1.0974         0.350498   
     14. B(H  13,C   8)                  1.0974         0.350497   
     15. B(H  14,C   7)                  1.0974         0.350497   
     16. B(H  15,C   4)                  1.0907         0.359128   
     17. A(C   2,N   0,C   4)          108.2156         0.432629   
     18. A(C   4,N   0,C   7)          126.2464         0.409955   
     19. A(C   2,N   0,C   7)          125.5380         0.397398   
     20. A(C   3,N   1,C   8)          125.5381         0.397398   
     21. A(C   4,N   1,C   8)          126.2463         0.409955   
     22. A(C   3,N   1,C   4)          108.2156         0.432629   
     23. A(N   0,C   2,Cl  5)          123.1498         0.424012   
     24. A(C   3,C   2,Cl  5)          129.8041         0.439352   
     25. A(N   0,C   2,C   3)          107.0461         0.434304   
     26. A(C   2,C   3,Cl  6)          129.8041         0.439352   
     27. A(N   1,C   3,C   2)          107.0461         0.434304   
     28. A(N   1,C   3,Cl  6)          123.1498         0.424012   
     29. A(N   0,C   4,H  15)          125.2617         0.357503   
     30. A(N   1,C   4,H  15)          125.2616         0.357502   
     31. A(N   0,C   4,N   1)          109.4767         0.446621   
     32. A(N   0,C   7,H   9)          108.2691         0.329001   
     33. A(H  11,C   7,H  14)          110.2050         0.288385   
     34. A(H   9,C   7,H  14)          110.0211         0.288677   
     35. A(N   0,C   7,H  14)          109.1433         0.328651   
     36. A(H   9,C   7,H  11)          110.0211         0.288677   
     37. A(N   0,C   7,H  11)          109.1433         0.328651   
     38. A(N   1,C   8,H  10)          108.2691         0.329001   
     39. A(H  12,C   8,H  13)          110.2050         0.288385   
     40. A(H  10,C   8,H  13)          110.0211         0.288677   
     41. A(N   1,C   8,H  13)          109.1433         0.328651   
     42. A(H  10,C   8,H  12)          110.0211         0.288677   
     43. A(N   1,C   8,H  12)          109.1434         0.328651   
     44. D(Cl  5,C   2,N   0,C   7)      0.0000         0.027318   
     45. D(Cl  5,C   2,N   0,C   4)    180.0000         0.027318   
     46. D(C   3,C   2,N   0,C   4)      0.0000         0.027318   
     47. D(C   3,C   2,N   0,C   7)    180.0000         0.027318   
     48. D(Cl  6,C   3,C   2,Cl  5)     -0.0001         0.032982   
     49. D(Cl  6,C   3,C   2,N   0)    179.9999         0.032982   
     50. D(Cl  6,C   3,N   1,C   4)   -179.9999         0.027318   
     51. D(C   2,C   3,N   1,C   8)    180.0000         0.027318   
     52. D(C   2,C   3,N   1,C   4)      0.0000         0.027318   
     53. D(N   1,C   3,C   2,N   0)      0.0000         0.032982   
     54. D(Cl  6,C   3,N   1,C   8)      0.0001         0.027318   
     55. D(N   1,C   3,C   2,Cl  5)    180.0000         0.032982   
     56. D(H  15,C   4,N   0,C   2)    180.0000         0.040025   
     57. D(N   1,C   4,N   0,C   7)    180.0000         0.040025   
     58. D(N   1,C   4,N   0,C   2)      0.0000         0.040025   
     59. D(H  15,C   4,N   1,C   8)      0.0000         0.040025   
     60. D(H  15,C   4,N   1,C   3)    180.0000         0.040025   
     61. D(N   0,C   4,N   1,C   8)    180.0000         0.040025   
     62. D(N   0,C   4,N   1,C   3)      0.0000         0.040025   
     63. D(H  15,C   4,N   0,C   7)      0.0000         0.040025   
     64. D(H  14,C   7,N   0,C   4)    119.7514         0.015874   
     65. D(H  14,C   7,N   0,C   2)    -60.2486         0.015874   
     66. D(H  11,C   7,N   0,C   4)   -119.7515         0.015874   
     67. D(H  11,C   7,N   0,C   2)     60.2485         0.015874   
     68. D(H   9,C   7,N   0,C   4)      0.0000         0.015874   
     69. D(H   9,C   7,N   0,C   2)    180.0000         0.015874   
     70. D(H  12,C   8,N   1,C   4)    119.7515         0.015874   
     71. D(H  12,C   8,N   1,C   3)    -60.2485         0.015874   
     72. D(H  10,C   8,N   1,C   4)      0.0000         0.015874   
     73. D(H  13,C   8,N   1,C   3)     60.2486         0.015874   
     74. D(H  10,C   8,N   1,C   3)    180.0000         0.015874   
     75. D(H  13,C   8,N   1,C   4)   -119.7514         0.015874   
    -----------------------------------------------------------------

Number of atoms                         .... 16
Number of degrees of freedom            .... 75

         *************************************************************
         *                GEOMETRY OPTIMIZATION CYCLE   1            *
         *************************************************************
---------------------------------
CARTESIAN COORDINATES (ANGSTROEM)
---------------------------------
  N      0.000000    1.086524    1.056390
  N     -0.000000   -1.086525    1.056389
  C      0.000000    0.682380   -0.261713
  C     -0.000000   -0.682380   -0.261714
  C      0.000000   -0.000000    1.824601
  Cl     0.000000    1.763364   -1.558961
  Cl    -0.000002   -1.763363   -1.558962
  C     -0.000000    2.471869    1.519704
  C      0.000000   -2.471869    1.519704
  H     -0.000000    2.467608    2.615295
  H     -0.000000   -2.467607    2.615295
  H     -0.900027    2.976313    1.145964
  H     -0.900026   -2.976314    1.145965
  H      0.900028   -2.976313    1.145966
  H      0.900027    2.976313    1.145965
  H     -0.000000   -0.000001    2.915337

----------------------------
CARTESIAN COORDINATES (A.U.)
----------------------------
  NO LB      ZA    FRAG     MASS         X           Y           Z
   0 N     7.0000    0    14.007    0.000000    2.053233    1.996288
   1 N     7.0000    0    14.007   -0.000000   -2.053235    1.996286
   2 C     6.0000    0    12.011    0.000000    1.289511   -0.494566
   3 C     6.0000    0    12.011   -0.000000   -1.289511   -0.494568
   4 C     6.0000    0    12.011    0.000000   -0.000000    3.447996
   5 Cl   17.0000    0    35.453    0.000000    3.332275   -2.946009
   6 Cl   17.0000    0    35.453   -0.000004   -3.332273   -2.946011
   7 C     6.0000    0    12.011   -0.000000    4.671155    2.871824
   8 C     6.0000    0    12.011    0.000000   -4.671155    2.871824
   9 H     1.0000    0     1.008   -0.000000    4.663103    4.942191
  10 H     1.0000    0     1.008   -0.000000   -4.663101    4.942191
  11 H     1.0000    0     1.008   -1.700805    5.624416    2.165558
  12 H     1.0000    0     1.008   -1.700803   -5.624418    2.165560
  13 H     1.0000    0     1.008    1.700806   -5.624416    2.165562
  14 H     1.0000    0     1.008    1.700805    5.624416    2.165560
  15 H     1.0000    0     1.008   -0.000000   -0.000002    5.509189

--------------------------------
INTERNAL COORDINATES (ANGSTROEM)
--------------------------------
 N      0   0   0     0.000000000000     0.00000000     0.00000000
 N      1   0   0     2.173049000000     0.00000000     0.00000000
 C      1   2   0     1.378668883868    72.95389293     0.00000000
 C      3   1   2     1.364760000000   107.04612269     0.00000000
 C      1   2   3     1.330669960244    35.26169182   180.00000000
 Cl     3   1   2     1.688602612150   123.14980792   180.00000000
 Cl     4   3   1     1.688601971987   129.80412729   179.99991166
 C      1   2   3     1.460767138055   161.50805899   180.00000000
 C      2   1   3     1.460766506859   161.50795662   180.00000000
 H      8   1   2     1.095599285963   108.26913232     0.00000000
 H      9   2   1     1.095599289852   108.26912966     0.00000000
 H      8   1   2     1.097357707161   109.14331277   240.24852895
 H      9   2   1     1.097357006093   109.14337079   119.75148315
 H      9   2   1     1.097357846176   109.14332068   240.24863243
 H      8   1   2     1.097357366579   109.14333647   119.75142555
 H      5   1   2     1.090736000000   125.26171799   180.00000000

---------------------------
INTERNAL COORDINATES (A.U.)
---------------------------
 N      0   0   0     0.000000000000     0.00000000     0.00000000
 N      1   0   0     4.106467485592     0.00000000     0.00000000
 C      1   2   0     2.605306619869    72.95389293     0.00000000
 C      3   1   2     2.579022638531   107.04612269     0.00000000
 C      1   2   3     2.514601799498    35.26169182   180.00000000
 Cl     3   1   2     3.190996485988   123.14980792   180.00000000
 Cl     4   3   1     3.190995276254   129.80412729   179.99991166
 C      1   2   3     2.760449836356   161.50805899   180.00000000
 C      2   1   3     2.760448643568   161.50795662   180.00000000
 H      8   1   2     2.070382602989   108.26913232     0.00000000
 H      9   2   1     2.070382610340   108.26912966     0.00000000
 H      8   1   2     2.073705537481   109.14331277   240.24852895
 H      9   2   1     2.073704212656   109.14337079   119.75148315
 H      9   2   1     2.073705800182   109.14332068   240.24863243
 H      8   1   2     2.073704893876   109.14333647   119.75142555
 H      5   1   2     2.061192324410   125.26171799   180.00000000

---------------------
BASIS SET INFORMATION
---------------------
There are 4 groups of distinct atoms

 Group   1 Type N   : 11s6p2d1f contracted to 5s3p2d1f pattern {62111/411/11/1}
 Group   2 Type C   : 11s6p2d1f contracted to 5s3p2d1f pattern {62111/411/11/1}
 Group   3 Type Cl  : 14s9p3d1f contracted to 5s5p2d1f pattern {73211/51111/21/1}
 Group   4 Type H   : 5s1p contracted to 3s1p pattern {311/1}

Atom   0N    basis set group =>   1
Atom   1N    basis set group =>   1
Atom   2C    basis set group =>   2
Atom   3C    basis set group =>   2
Atom   4C    basis set group =>   2
Atom   5Cl   basis set group =>   3
Atom   6Cl   basis set group =>   3
Atom   7C    basis set group =>   2
Atom   8C    basis set group =>   2
Atom   9H    basis set group =>   4
Atom  10H    basis set group =>   4
Atom  11H    basis set group =>   4
Atom  12H    basis set group =>   4
Atom  13H    basis set group =>   4
Atom  14H    basis set group =>   4
Atom  15H    basis set group =>   4
---------------------------------
AUXILIARY/J BASIS SET INFORMATION
---------------------------------
There are 4 groups of distinct atoms

 Group   1 Type N   : 12s5p4d2f1g contracted to 6s4p3d1f1g pattern {711111/2111/211/2/1}
 Group   2 Type C   : 12s5p4d2f1g contracted to 6s4p3d1f1g pattern {711111/2111/211/2/1}
 Group   3 Type Cl  : 14s5p5d2f1g contracted to 8s4p3d1f1g pattern {71111111/2111/311/2/1}
 Group   4 Type H   : 5s2p1d contracted to 3s1p1d pattern {311/2/1}

Atom   0N    basis set group =>   1
Atom   1N    basis set group =>   1
Atom   2C    basis set group =>   2
Atom   3C    basis set group =>   2
Atom   4C    basis set group =>   2
Atom   5Cl   basis set group =>   3
Atom   6Cl   basis set group =>   3
Atom   7C    basis set group =>   2
Atom   8C    basis set group =>   2
Atom   9H    basis set group =>   4
Atom  10H    basis set group =>   4
Atom  11H    basis set group =>   4
Atom  12H    basis set group =>   4
Atom  13H    basis set group =>   4
Atom  14H    basis set group =>   4
Atom  15H    basis set group =>   4


           ************************************************************
           *        Program running with 4 parallel MPI-processes     *
           *              working on a common directory               *
           ************************************************************
------------------------------------------------------------------------------
                           ORCA GTO INTEGRAL CALCULATION
                           -- RI-GTO INTEGRALS CHOSEN --
------------------------------------------------------------------------------
------------------------------------------------------------------------------
                   ___                                                        
                  /   \      - P O W E R E D   B Y -                         
                 /     \                                                     
                 |  |  |   _    _      __       _____    __    __             
                 |  |  |  | |  | |    /  \     |  _  \  |  |  /  |          
                  \  \/   | |  | |   /    \    | | | |  |  | /  /          
                 / \  \   | |__| |  /  /\  \   | |_| |  |  |/  /          
                |  |  |   |  __  | /  /__\  \  |    /   |      \           
                |  |  |   | |  | | |   __   |  |    \   |  |\   \          
                \     /   | |  | | |  |  |  |  | |\  \  |  | \   \       
                 \___/    |_|  |_| |__|  |__|  |_| \__\ |__|  \__/        
                                                                              
                      - O R C A' S   B I G   F R I E N D -                    
                                      &                                       
                       - I N T E G R A L  F E E D E R -                       
                                                                              
 v1 FN, 2020, v2 2021                                                         
------------------------------------------------------------------------------


Reading SHARK input file 3_prot.SHARKINP.tmp ... ok
----------------------
SHARK INTEGRAL PACKAGE
----------------------

Number of atoms                             ...     16
Number of basis functions                   ...    333
Number of shells                            ...    131
Maximum angular momentum                    ...      3
Integral batch strategy                     ... SHARK/LIBINT Hybrid
RI-J (if used) integral strategy            ... SPLIT-RIJ (Revised 2003 algorithm where possible)
Printlevel                                  ...      1
Contraction scheme used                     ... SEGMENTED contraction
Coulomb Range Separation                    ... NOT USED
Exchange Range Separation                   ... Long Range
   Mu parameter                             ...  0.300000
   Scaling (regular/separated)              ...  0.157706  0.842294
Finite Nucleus Model                        ... NOT USED
Auxiliary Coulomb fitting basis             ... AVAILABLE
   # of basis functions in Aux-J            ...    522
   # of shells in Aux-J                     ...    174
   Maximum angular momentum in Aux-J        ...      4
Auxiliary J/K fitting basis                 ... NOT available
Auxiliary Correlation fitting basis         ... NOT available
Auxiliary 'external' fitting basis          ... NOT available
Integral threshold                          ...     2.500000e-11
Primitive cut-off                           ...     2.500000e-12
Primitive pair pre-selection threshold      ...     2.500000e-12

Calculating pre-screening integrals         ... done (  0.1 sec) Dimension = 131
Organizing shell pair data                  ... done (  0.1 sec)
Shell pair information
Total number of shell pairs                 ...      8646
Shell pairs after pre-screening             ...      7638
Total number of primitive shell pairs       ...     28213
Primitive shell pairs kept                  ...     17946
          la=0 lb=0:   1850 shell pairs
          la=1 lb=0:   2182 shell pairs
          la=1 lb=1:    673 shell pairs
          la=2 lb=0:   1078 shell pairs
          la=2 lb=1:    638 shell pairs
          la=2 lb=2:    168 shell pairs
          la=3 lb=0:    534 shell pairs
          la=3 lb=1:    314 shell pairs
          la=3 lb=2:    156 shell pairs
          la=3 lb=3:     45 shell pairs

Calculating one electron integrals          ... done (  0.0 sec)
Calculating RI/J V-Matrix + Cholesky decomp.... done (  0.0 sec)
Calculating Nuclear repulsion               ... done (  0.0 sec) ENN=    622.916575606379 Eh

SHARK setup successfully completed in   0.5 seconds

Maximum memory used throughout the entire GTOINT-calculation: 22.5 MB


           ************************************************************
           *        Program running with 4 parallel MPI-processes     *
           *              working on a common directory               *
           ************************************************************
-------------------------------------------------------------------------------
                                 ORCA SCF
-------------------------------------------------------------------------------

------------
SCF SETTINGS
------------
Hamiltonian:
 Density Functional     Method          .... DFT(GTOs)
 Exchange Functional    Exchange        .... WB97X
 Correlation Functional Correlation     .... WB97X
 Gradients option       PostSCFGGA      .... off
 Hybrid DFT is turned on
   Fraction HF Exchange ScalHFX         ....  0.157706
   Scaling of DF-GGA-X  ScalDFX         ....  0.000000
   Scaling of DF-GGA-C  ScalDFC         ....  1.000000
   Scaling of DF-LDA-C  ScalLDAC        ....  1.000000
   Perturbative correction              ....  0.000000
   Density functional embedding theory  .... OFF
 Long-range corrected/Screened/Range-Separated Hybrid DFT is turned on
   Amount of maximum screened exact exchange              ....  0.842294
   Range separation parameter mu (erf(mu*r12)/r12)        ....  0.300000
 RI-approximation to the Coulomb term is turned on
   Number of AuxJ basis functions       .... 522
   RIJ-COSX (HFX calculated with COS-X)).... on


General Settings:
 Integral files         IntName         .... 3_prot
 Hartree-Fock type      HFTyp           .... RHF
 Total Charge           Charge          ....    1
 Multiplicity           Mult            ....    1
 Number of Electrons    NEL             ....   84
 Basis Dimension        Dim             ....  333
 Nuclear Repulsion      ENuc            ....    622.9165756064 Eh

Convergence Acceleration:
 DIIS                   CNVDIIS         .... on
   Start iteration      DIISMaxIt       ....     0
   Startup error        DIISStart       ....  0.200000
   # of expansion vecs  DIISMaxEq       ....     5
   Bias factor          DIISBfac        ....   1.050
   Max. coefficient     DIISMaxC        ....  10.000
 Trust-Rad. Augm. Hess. CNVTRAH         .... auto
   Auto Start mean grad. ratio tolernc. ....  1.125000
   Auto Start start iteration           ....    20
   Auto Start num. interpolation iter.  ....    10
   Max. Number of Micro iterations      ....    16
   Max. Number of Macro iterations      .... Maxiter - #DIIS iter
   Number of Davidson start vectors     ....     2
   Converg. threshold I  (grad. norm)   ....   1.000e-05
   Converg. threshold II (energy diff.) ....   1.000e-08
   Grad. Scal. Fac. for Micro threshold ....   0.100
   Minimum threshold for Micro iter.    ....   0.010
   NR start threshold (gradient norm)   ....   0.001
   Initial trust radius                 ....   0.400
   Minimum AH scaling param. (alpha)    ....   1.000
   Maximum AH scaling param. (alpha)    .... 1000.000
   Orbital update algorithm             .... Taylor
   White noise on init. David. guess    .... on
   Maximum white noise                  ....   0.010
   Quad. conv. algorithm                .... NR
 SOSCF                  CNVSOSCF        .... on
   Start iteration      SOSCFMaxIt      ....   150
   Startup grad/error   SOSCFStart      ....  0.001000
 Level Shifting         CNVShift        .... on
   Level shift para.    LevelShift      ....    0.2500
   Turn off err/grad.   ShiftErr        ....    0.0000
 Zerner damping         CNVZerner       .... off
 Static damping         CNVDamp         .... on
   Fraction old density DampFac         ....    0.8500
   Max. Damping (<1)    DampMax         ....    0.9800
   Min. Damping (>=0)   DampMin         ....    0.0000
   Turn off err/grad.   DampErr         ....    0.0300
 Fernandez-Rico         CNVRico         .... off

SCF Procedure:
 Maximum # iterations   MaxIter         ....   125
 SCF integral mode      SCFMode         .... Direct
   Integral package                     .... SHARK and LIBINT hybrid scheme
 Reset frequency        DirectResetFreq ....    20
 Integral Threshold     Thresh          ....  2.500e-11 Eh
 Primitive CutOff       TCut            ....  2.500e-12 Eh

Convergence Tolerance:
 Convergence Check Mode ConvCheckMode   .... Total+1el-Energy
 Convergence forced     ConvForced      .... 0
 Energy Change          TolE            ....  1.000e-08 Eh
 1-El. energy change                    ....  1.000e-05 Eh
 Orbital Gradient       TolG            ....  1.000e-05
 Orbital Rotation angle TolX            ....  1.000e-05
 DIIS Error             TolErr          ....  5.000e-07


Diagonalization of the overlap matrix:
Smallest eigenvalue                        ... 6.952e-05
Time for diagonalization                   ...    0.018 sec
Threshold for overlap eigenvalues          ... 1.000e-08
Number of eigenvalues below threshold      ... 0
Time for construction of square roots      ...    0.030 sec
Total time needed                          ...    0.050 sec

Time for model grid setup =    0.116 sec

------------------------------
INITIAL GUESS: MODEL POTENTIAL
------------------------------
Loading Hartree-Fock densities                     ... done
Calculating cut-offs                               ... done
Initializing the effective Hamiltonian             ... done
Setting up the integral package (SHARK)            ... done
Starting the Coulomb interaction                   ... done (   0.2 sec)
Reading the grid                                   ... done
Mapping shells                                     ... done
Starting the XC term evaluation                    ... done (   0.2 sec)
  promolecular density results
     # of electrons  =     84.994654879
     EX              =    -95.606991532
     EC              =     -3.061870931
     EX+EC           =    -98.668862463
Transforming the Hamiltonian                       ... done (   0.0 sec)
Diagonalizing the Hamiltonian                      ... done (   0.0 sec)
Back transforming the eigenvectors                 ... done (   0.0 sec)
Now organizing SCF variables                       ... done
                      ------------------
                      INITIAL GUESS DONE (   0.5 sec)
                      ------------------
-------------------
DFT GRID GENERATION
-------------------

General Integration Accuracy     IntAcc      ... 4.388
Radial Grid Type                 RadialGrid  ... OptM3 with GC (2021)
Angular Grid (max. ang.)         AngularGrid ... 4 (Lebedev-302)
Angular grid pruning method      GridPruning ... 4 (adaptive)
Weight generation scheme         WeightScheme... Becke
Basis function cutoff            BFCut       ... 1.0000e-11
Integration weight cutoff        WCut        ... 1.0000e-14
Angular grids for H and He will be reduced by one unit
Partially contracted basis set               ... off
Rotationally invariant grid construction     ... off

Total number of grid points                  ...    79235
Total number of batches                      ...     1245
Average number of points per batch           ...       63
Average number of grid points per atom       ...     4952
Time for grid setup =    0.556 sec

--------------------
COSX GRID GENERATION
--------------------

GRIDX 1
-------
General Integration Accuracy     IntAcc      ... 3.816
Radial Grid Type                 RadialGrid  ... OptM3 with GC (2021)
Angular Grid (max. ang.)         AngularGrid ... 1 (Lebedev-50)
Angular grid pruning method      GridPruning ... 4 (adaptive)
Weight generation scheme         WeightScheme... Becke
Basis function cutoff            BFCut       ... 1.0000e-11
Integration weight cutoff        WCut        ... 1.0000e-14
Angular grids for H and He will be reduced by one unit
Partially contracted basis set               ... on
Rotationally invariant grid construction     ... off

Total number of grid points                  ...     9936
Total number of batches                      ...      165
Average number of points per batch           ...       60
Average number of grid points per atom       ...      621
UseSFitting                                  ... on

GRIDX 2
-------
General Integration Accuracy     IntAcc      ... 4.020
Radial Grid Type                 RadialGrid  ... OptM3 with GC (2021)
Angular Grid (max. ang.)         AngularGrid ... 2 (Lebedev-110)
Angular grid pruning method      GridPruning ... 4 (adaptive)
Weight generation scheme         WeightScheme... Becke
Basis function cutoff            BFCut       ... 1.0000e-11
Integration weight cutoff        WCut        ... 1.0000e-14
Angular grids for H and He will be reduced by one unit
Partially contracted basis set               ... on
Rotationally invariant grid construction     ... off

Total number of grid points                  ...    21791
Total number of batches                      ...      349
Average number of points per batch           ...       62
Average number of grid points per atom       ...     1362
UseSFitting                                  ... on

GRIDX 3
-------
General Integration Accuracy     IntAcc      ... 4.338
Radial Grid Type                 RadialGrid  ... OptM3 with GC (2021)
Angular Grid (max. ang.)         AngularGrid ... 3 (Lebedev-194)
Angular grid pruning method      GridPruning ... 4 (adaptive)
Weight generation scheme         WeightScheme... Becke
Basis function cutoff            BFCut       ... 1.0000e-11
Integration weight cutoff        WCut        ... 1.0000e-14
Angular grids for H and He will be reduced by one unit
Partially contracted basis set               ... on
Rotationally invariant grid construction     ... off

Total number of grid points                  ...    49093
Total number of batches                      ...      775
Average number of points per batch           ...       63
Average number of grid points per atom       ...     3068
UseSFitting                                  ... on

Time for X-Grid setup             =    0.743 sec


--------------------
CPCM SOLVATION MODEL
--------------------
CPCM parameters:
  Epsilon                                         ...      80.4000
  Refrac                                          ...       1.3300
  Rsolv                                           ...       1.3000
  Surface type                                    ... GAUSSIAN VDW
  Epsilon function type                           ...         CPCM
Radii:
 Radius for N  used is    3.5149 Bohr (=   1.8600 Ang.)
 Radius for C  used is    3.8550 Bohr (=   2.0400 Ang.)
 Radius for Cl used is    3.9684 Bohr (=   2.1000 Ang.)
 Radius for H  used is    2.4944 Bohr (=   1.3200 Ang.)
Calculating surface                               ...        done! (  0.0s)
GEPOL surface points                              ...          915
GEPOL Volume                                      ...    1189.9391
GEPOL Surface-area                                ...     670.3291
Calculating surface distance matrix               ...        done! (  0.0s)
Performing Cholesky decomposition & store         ...        done! (  0.0s)
Overall time for CPCM initialization              ...                 0.1s
--------------
SCF ITERATIONS
--------------
ITER       Energy         Delta-E        Max-DP      RMS-DP      [F,P]     Damp
               ***  Starting incremental Fock matrix formation  ***
  0  -1224.4664248120   0.000000000000 0.01118459  0.00021090  0.1142978 0.8500
  1  -1224.4818150801  -0.015390268112 0.00975842  0.00020424  0.0919255 0.8500
                               ***Turning on DIIS***
  2  -1224.4936124130  -0.011797332935 0.00755963  0.00017237  0.0705115 0.8500
  3  -1224.5025201223  -0.008907709308 0.00623401  0.00013938  0.0533858 0.8500
  4  -1224.5094972167  -0.006977094407 0.00572847  0.00011837  0.0424024 0.8500
  5  -1224.5150593893  -0.005562172574 0.00497516  0.00010283  0.0350780 0.8500
  6  -1224.5196250422  -0.004565652871 0.02838912  0.00059711  0.0295832 0.0000
  7  -1224.5442266829  -0.024601640750 0.00242939  0.00004046  0.0012680 0.0000
                      *** Initiating the SOSCF procedure ***
                           *** Shutting down DIIS ***
                      *** Re-Reading the Fockian *** 
                      *** Removing any level shift *** 
ITER      Energy       Delta-E        Grad      Rot      Max-DP    RMS-DP
  8  -1224.54425761  -0.0000309233  0.000774  0.000774  0.000721  0.000017
               *** Restarting incremental Fock matrix formation ***
  9  -1224.54424644   0.0000111632  0.000415  0.000981  0.000639  0.000013
 10  -1224.54424958  -0.0000031418  0.000234  0.001075  0.000488  0.000011
 11  -1224.54425046  -0.0000008733  0.000054  0.000153  0.000140  0.000003
 12  -1224.54425058  -0.0000001257  0.000013  0.000030  0.000038  0.000001
 13  -1224.54425060  -0.0000000152  0.000006  0.000027  0.000012  0.000000
                  ***Gradient check signals convergence***
              ***Rediagonalizing the Fockian in SOSCF/NRSCF***

               *****************************************************
               *                     SUCCESS                       *
               *           SCF CONVERGED AFTER  14 CYCLES          *
               *****************************************************

Old exchange energy                            =    -26.437996867 Eh
New exchange energy                            =    -26.437993860 Eh
Exchange energy change after final integration =      0.000003007 Eh
Total energy after final integration           =  -1224.544247598 Eh
Final COS-X integration done in                =    18.069 sec

----------------
TOTAL SCF ENERGY
----------------

Total Energy       :        -1224.54424760 Eh          -33321.54301 eV

Components:
Nuclear Repulsion  :          622.91657561 Eh           16950.42177 eV
Electronic Energy  :        -1847.46082320 Eh          -50271.96478 eV
One Electron Energy:        -2903.80620403 Eh          -79016.58394 eV
Two Electron Energy:         1056.34538083 Eh           28744.61916 eV
Max COSX asymmetry :            0.00000300 Eh               0.00008 eV
CPCM Dielectric    :           -0.08697770 Eh              -2.36678 eV

Virial components:
Potential Energy   :        -2446.19083330 Eh          -66564.23663 eV
Kinetic Energy     :         1221.64658571 Eh           33242.69362 eV
Virial Ratio       :            2.00237193


DFT components:
N(Alpha)           :       41.999973182244 electrons
N(Beta)            :       41.999973182244 electrons
N(Total)           :       83.999946364488 electrons
E(XC)              :      -73.396379738641 Eh       
DFET-embed. en.    :        0.000000000000 Eh       
CPCM Solvation Model Properties:
Surface-charge          :           -1.01577617
Charge-correction       :            0.00218146 Eh               0.05936 eV
Free-energy (cav+disp)  :  This term is not implemented in the current solvation scheme

---------------
SCF CONVERGENCE
---------------

  Last Energy change         ...   -5.7121e-09  Tolerance :   1.0000e-08
  Last MAX-Density change    ...    1.7764e-15  Tolerance :   1.0000e-07
  Last RMS-Density change    ...    1.8740e-17  Tolerance :   5.0000e-09
  Last Orbital Gradient      ...    1.0317e-06  Tolerance :   1.0000e-05
  Last Orbital Rotation      ...    2.9446e-06  Tolerance :   1.0000e-05

             **** THE GBW FILE WAS UPDATED (3_prot.gbw) ****
             **** DENSITY 3_prot.scfp WAS UPDATED ****
             **** ENERGY FILE WAS UPDATED (3_prot.en.tmp) ****
             **** THE GBW FILE WAS UPDATED (3_prot.gbw) ****
             **** DENSITY 3_prot.scfp WAS UPDATED ****
----------------
ORBITAL ENERGIES
----------------

  NO   OCC          E(Eh)            E(eV) 
   0   2.0000    -101.543875     -2763.1493 
   1   2.0000    -101.543868     -2763.1491 
   2   2.0000     -14.519671      -395.1003 
   3   2.0000     -14.519644      -395.0996 
   4   2.0000     -10.390631      -282.7434 
   5   2.0000     -10.389957      -282.7251 
   6   2.0000     -10.384982      -282.5897 
   7   2.0000     -10.318100      -280.7698 
   8   2.0000     -10.318095      -280.7696 
   9   2.0000      -9.592841      -261.0345 
  10   2.0000      -9.592830      -261.0342 
  11   2.0000      -7.354664      -200.1306 
  12   2.0000      -7.354661      -200.1305 
  13   2.0000      -7.344169      -199.8450 
  14   2.0000      -7.344168      -199.8450 
  15   2.0000      -7.344039      -199.8415 
  16   2.0000      -7.344036      -199.8414 
  17   2.0000      -1.245425       -33.8897 
  18   2.0000      -1.125999       -30.6400 
  19   2.0000      -1.058468       -28.8024 
  20   2.0000      -1.021222       -27.7889 
  21   2.0000      -0.943810       -25.6824 
  22   2.0000      -0.896818       -24.4037 
  23   2.0000      -0.851240       -23.1634 
  24   2.0000      -0.770263       -20.9599 
  25   2.0000      -0.763752       -20.7828 
  26   2.0000      -0.685090       -18.6422 
  27   2.0000      -0.662314       -18.0225 
  28   2.0000      -0.616699       -16.7812 
  29   2.0000      -0.613479       -16.6936 
  30   2.0000      -0.597437       -16.2571 
  31   2.0000      -0.591578       -16.0976 
  32   2.0000      -0.588130       -16.0038 
  33   2.0000      -0.540004       -14.6943 
  34   2.0000      -0.537652       -14.6303 
  35   2.0000      -0.528685       -14.3863 
  36   2.0000      -0.498457       -13.5637 
  37   2.0000      -0.491356       -13.3705 
  38   2.0000      -0.463786       -12.6203 
  39   2.0000      -0.463718       -12.6184 
  40   2.0000      -0.421282       -11.4637 
  41   2.0000      -0.359499        -9.7825 
  42   0.0000       0.045946         1.2502 
  43   0.0000       0.066291         1.8039 
  44   0.0000       0.086342         2.3495 
  45   0.0000       0.120643         3.2829 
  46   0.0000       0.121664         3.3107 
  47   0.0000       0.140961         3.8357 
  48   0.0000       0.151229         4.1151 
  49   0.0000       0.171568         4.6686 
  50   0.0000       0.182883         4.9765 
  51   0.0000       0.195689         5.3250 
  52   0.0000       0.199222         5.4211 
  53   0.0000       0.200146         5.4463 
  54   0.0000       0.208714         5.6794 
  55   0.0000       0.229186         6.2365 
  56   0.0000       0.236921         6.4469 
  57   0.0000       0.238972         6.5028 
  58   0.0000       0.250747         6.8232 
  59   0.0000       0.256590         6.9822 
  60   0.0000       0.268369         7.3027 
  61   0.0000       0.293972         7.9994 
  62   0.0000       0.309845         8.4313 
  63   0.0000       0.312054         8.4914 
  64   0.0000       0.320487         8.7209 
  65   0.0000       0.333349         9.0709 
  66   0.0000       0.339033         9.2255 
  67   0.0000       0.353090         9.6081 
  68   0.0000       0.375984        10.2310 
  69   0.0000       0.383959        10.4480 
  70   0.0000       0.386793        10.5252 
  71   0.0000       0.396973        10.8022 
  72   0.0000       0.401007        10.9120 
  73   0.0000       0.406298        11.0559 
  74   0.0000       0.420879        11.4527 
  75   0.0000       0.446975        12.1628 
  76   0.0000       0.448207        12.1963 
  77   0.0000       0.451128        12.2758 
  78   0.0000       0.456033        12.4093 
  79   0.0000       0.464790        12.6476 
  80   0.0000       0.468658        12.7528 
  81   0.0000       0.496156        13.5011 
  82   0.0000       0.502024        13.6608 
  83   0.0000       0.505403        13.7527 
  84   0.0000       0.506010        13.7692 
  85   0.0000       0.530969        14.4484 
  86   0.0000       0.540808        14.7161 
  87   0.0000       0.545891        14.8545 
  88   0.0000       0.560207        15.2440 
  89   0.0000       0.563714        15.3394 
  90   0.0000       0.576868        15.6974 
  91   0.0000       0.580189        15.7878 
  92   0.0000       0.602483        16.3944 
  93   0.0000       0.603237        16.4149 
  94   0.0000       0.609562        16.5870 
  95   0.0000       0.628973        17.1152 
  96   0.0000       0.637854        17.3569 
  97   0.0000       0.650763        17.7082 
  98   0.0000       0.671859        18.2822 
  99   0.0000       0.700600        19.0643 
 100   0.0000       0.705781        19.2053 
 101   0.0000       0.706823        19.2336 
 102   0.0000       0.709259        19.2999 
 103   0.0000       0.732903        19.9433 
 104   0.0000       0.743799        20.2398 
 105   0.0000       0.772690        21.0260 
 106   0.0000       0.779227        21.2038 
 107   0.0000       0.784391        21.3444 
 108   0.0000       0.798669        21.7329 
 109   0.0000       0.807800        21.9814 
 110   0.0000       0.810763        22.0620 
 111   0.0000       0.822983        22.3945 
 112   0.0000       0.908020        24.7085 
 113   0.0000       0.919455        25.0196 
 114   0.0000       0.927276        25.2325 
 115   0.0000       0.964818        26.2540 
 116   0.0000       0.973038        26.4777 
 117   0.0000       0.995112        27.0784 
 118   0.0000       1.024290        27.8724 
 119   0.0000       1.035681        28.1823 
 120   0.0000       1.060625        28.8611 
 121   0.0000       1.087967        29.6051 
 122   0.0000       1.124498        30.5991 
 123   0.0000       1.130222        30.7549 
 124   0.0000       1.140255        31.0279 
 125   0.0000       1.145961        31.1832 
 126   0.0000       1.147594        31.2276 
 127   0.0000       1.170051        31.8387 
 128   0.0000       1.172013        31.8921 
 129   0.0000       1.205366        32.7997 
 130   0.0000       1.210223        32.9318 
 131   0.0000       1.211504        32.9667 
 132   0.0000       1.262486        34.3540 
 133   0.0000       1.286872        35.0176 
 134   0.0000       1.371641        37.3243 
 135   0.0000       1.396450        37.9993 
 136   0.0000       1.411581        38.4111 
 137   0.0000       1.420771        38.6611 
 138   0.0000       1.498211        40.7684 
 139   0.0000       1.526883        41.5486 
 140   0.0000       1.549579        42.1662 
 141   0.0000       1.558247        42.4021 
 142   0.0000       1.580653        43.0118 
 143   0.0000       1.584861        43.1263 
 144   0.0000       1.606308        43.7099 
 145   0.0000       1.611080        43.8397 
 146   0.0000       1.617031        44.0016 
 147   0.0000       1.624739        44.2114 
 148   0.0000       1.632225        44.4151 
 149   0.0000       1.655194        45.0401 
 150   0.0000       1.655322        45.0436 
 151   0.0000       1.670231        45.4493 
 152   0.0000       1.703803        46.3628 
 153   0.0000       1.704391        46.3788 
 154   0.0000       1.710566        46.5469 
 155   0.0000       1.725302        46.9479 
 156   0.0000       1.745973        47.5103 
 157   0.0000       1.765282        48.0358 
 158   0.0000       1.800988        49.0074 
 159   0.0000       1.810591        49.2687 
 160   0.0000       1.843162        50.1550 
 161   0.0000       1.843402        50.1615 
 162   0.0000       1.856481        50.5174 
 163   0.0000       1.871851        50.9357 
 164   0.0000       1.876839        51.0714 
 165   0.0000       1.882762        51.2326 
 166   0.0000       1.902120        51.7593 
 167   0.0000       1.925445        52.3940 
 168   0.0000       1.927300        52.4445 
 169   0.0000       1.932032        52.5733 
 170   0.0000       1.947694        52.9995 
 171   0.0000       1.970585        53.6223 
 172   0.0000       1.975570        53.7580 
 173   0.0000       1.997680        54.3596 
 174   0.0000       2.036796        55.4240 
 175   0.0000       2.053452        55.8773 
 176   0.0000       2.072263        56.3891 
 177   0.0000       2.090056        56.8733 
 178   0.0000       2.104172        57.2574 
 179   0.0000       2.121590        57.7314 
 180   0.0000       2.150339        58.5137 
 181   0.0000       2.150377        58.5147 
 182   0.0000       2.150614        58.5212 
 183   0.0000       2.161331        58.8128 
 184   0.0000       2.174873        59.1813 
 185   0.0000       2.181888        59.3722 
 186   0.0000       2.188560        59.5538 
 187   0.0000       2.201918        59.9172 
 188   0.0000       2.224221        60.5241 
 189   0.0000       2.264215        61.6124 
 190   0.0000       2.269784        61.7640 
 191   0.0000       2.276732        61.9530 
 192   0.0000       2.307287        62.7845 
 193   0.0000       2.307995        62.8037 
 194   0.0000       2.320867        63.1540 
 195   0.0000       2.336067        63.5676 
 196   0.0000       2.338853        63.6434 
 197   0.0000       2.352529        64.0156 
 198   0.0000       2.360821        64.2412 
 199   0.0000       2.386643        64.9438 
 200   0.0000       2.387192        64.9588 
 201   0.0000       2.400214        65.3131 
 202   0.0000       2.403464        65.4016 
 203   0.0000       2.405039        65.4445 
 204   0.0000       2.443589        66.4934 
 205   0.0000       2.443740        66.4975 
 206   0.0000       2.467016        67.1309 
 207   0.0000       2.484594        67.6092 
 208   0.0000       2.523881        68.6783 
 209   0.0000       2.536645        69.0256 
 210   0.0000       2.557024        69.5802 
 211   0.0000       2.570519        69.9474 
 212   0.0000       2.617110        71.2152 
 213   0.0000       2.629793        71.5603 
 214   0.0000       2.662797        72.4584 
 215   0.0000       2.663338        72.4731 
 216   0.0000       2.665111        72.5213 
 217   0.0000       2.674656        72.7811 
 218   0.0000       2.697298        73.3972 
 219   0.0000       2.702556        73.5403 
 220   0.0000       2.732534        74.3560 
 221   0.0000       2.750016        74.8317 
 222   0.0000       2.839666        77.2713 
 223   0.0000       2.887630        78.5764 
 224   0.0000       2.887878        78.5831 
 225   0.0000       2.899704        78.9049 
 226   0.0000       2.943885        80.1072 
 227   0.0000       2.986675        81.2715 
 228   0.0000       2.991617        81.4060 
 229   0.0000       3.025606        82.3309 
 230   0.0000       3.026687        82.3603 
 231   0.0000       3.049918        82.9925 
 232   0.0000       3.097991        84.3006 
 233   0.0000       3.103846        84.4599 
 234   0.0000       3.135062        85.3094 
 235   0.0000       3.155886        85.8760 
 236   0.0000       3.167999        86.2056 
 237   0.0000       3.171475        86.3002 
 238   0.0000       3.179490        86.5183 
 239   0.0000       3.197066        86.9966 
 240   0.0000       3.211450        87.3880 
 241   0.0000       3.236094        88.0586 
 242   0.0000       3.254040        88.5469 
 243   0.0000       3.276404        89.1555 
 244   0.0000       3.283904        89.3596 
 245   0.0000       3.290861        89.5489 
 246   0.0000       3.294106        89.6372 
 247   0.0000       3.319419        90.3260 
 248   0.0000       3.338570        90.8471 
 249   0.0000       3.377532        91.9073 
 250   0.0000       3.399318        92.5001 
 251   0.0000       3.407031        92.7100 
 252   0.0000       3.418735        93.0285 
 253   0.0000       3.435770        93.4921 
 254   0.0000       3.442569        93.6771 
 255   0.0000       3.448386        93.8354 
 256   0.0000       3.460698        94.1704 
 257   0.0000       3.531760        96.1041 
 258   0.0000       3.557822        96.8133 
 259   0.0000       3.561306        96.9081 
 260   0.0000       3.576907        97.3326 
 261   0.0000       3.596577        97.8678 
 262   0.0000       3.611598        98.2766 
 263   0.0000       3.625780        98.6625 
 264   0.0000       3.664386        99.7130 
 265   0.0000       3.673125        99.9508 
 266   0.0000       3.673346        99.9568 
 267   0.0000       3.693455       100.5040 
 268   0.0000       3.733483       101.5932 
 269   0.0000       3.789640       103.1213 
 270   0.0000       3.802296       103.4657 
 271   0.0000       3.836886       104.4070 
 272   0.0000       3.927632       106.8763 
 273   0.0000       3.976348       108.2019 
 274   0.0000       3.982115       108.3589 
 275   0.0000       4.043940       110.0412 
 276   0.0000       4.062420       110.5441 
 277   0.0000       4.120311       112.1194 
 278   0.0000       4.193613       114.1140 
 279   0.0000       4.222269       114.8938 
 280   0.0000       4.255733       115.8044 
 281   0.0000       4.269286       116.1732 
 282   0.0000       4.272373       116.2572 
 283   0.0000       4.309895       117.2782 
 284   0.0000       4.315408       117.4282 
 285   0.0000       4.360686       118.6603 
 286   0.0000       4.463056       121.4459 
 287   0.0000       4.491790       122.2278 
 288   0.0000       4.501349       122.4879 
 289   0.0000       4.540713       123.5591 
 290   0.0000       4.672495       127.1451 
 291   0.0000       4.741162       129.0136 
 292   0.0000       4.788776       130.3092 
 293   0.0000       4.818916       131.1294 
 294   0.0000       4.889021       133.0370 
 295   0.0000       4.961459       135.0082 
 296   0.0000       4.996148       135.9521 
 297   0.0000       4.998994       136.0295 
 298   0.0000       5.083736       138.3355 
 299   0.0000       5.092409       138.5715 
 300   0.0000       5.140737       139.8866 
 301   0.0000       5.184203       141.0693 
 302   0.0000       5.188873       141.1964 
 303   0.0000       5.258631       143.0946 
 304   0.0000       5.294374       144.0672 
 305   0.0000       5.304637       144.3465 
 306   0.0000       5.404237       147.0568 
 307   0.0000       5.436125       147.9245 
 308   0.0000       5.496458       149.5662 
 309   0.0000       5.574364       151.6862 
 310   0.0000       5.615321       152.8007 
 311   0.0000       5.750322       156.4742 
 312   0.0000       5.806013       157.9896 
 313   0.0000       5.853280       159.2758 
 314   0.0000       5.900496       160.5607 
 315   0.0000       6.072009       165.2278 
 316   0.0000       6.134576       166.9303 
 317   0.0000       6.202785       168.7864 
 318   0.0000      10.786032       293.5029 
 319   0.0000      10.820259       294.4342 
 320   0.0000      10.848951       295.2150 
 321   0.0000      10.925346       297.2938 
 322   0.0000      11.405595       310.3620 
 323   0.0000      11.493710       312.7597 
 324   0.0000      22.401396       609.5730 
 325   0.0000      22.471727       611.4868 
 326   0.0000      22.493477       612.0786 
 327   0.0000      22.853552       621.8768 
 328   0.0000      23.018857       626.3750 
 329   0.0000      25.913643       705.1461 
 330   0.0000      26.463963       720.1211 
 331   0.0000      32.824269       893.1938 
 332   0.0000      32.967533       897.0922 

                    ********************************
                    * MULLIKEN POPULATION ANALYSIS *
                    ********************************

-----------------------
MULLIKEN ATOMIC CHARGES
-----------------------
   0 N :   -0.046012
   1 N :   -0.046012
   2 C :    0.055355
   3 C :    0.055316
   4 C :    0.130129
   5 Cl:    0.039457
   6 Cl:    0.039451
   7 C :   -0.326203
   8 C :   -0.326163
   9 H :    0.186500
  10 H :    0.186499
  11 H :    0.192161
  12 H :    0.192159
  13 H :    0.192158
  14 H :    0.192162
  15 H :    0.283043
Sum of atomic charges:    1.0000000

--------------------------------
MULLIKEN REDUCED ORBITAL CHARGES
--------------------------------
  0 N s       :     3.456506  s :     3.456506
      pz      :     1.058673  p :     3.483380
      px      :     1.385015
      py      :     1.039692
      dz2     :     0.022693  d :     0.100340
      dxz     :     0.019190
      dyz     :     0.026736
      dx2y2   :     0.013222
      dxy     :     0.018499
      f0      :     0.000702  f :     0.005787
      f+1     :     0.000677
      f-1     :     0.001221
      f+2     :     0.000725
      f-2     :     0.000679
      f+3     :     0.000953
      f-3     :     0.000831
  1 N s       :     3.456504  s :     3.456504
      pz      :     1.058675  p :     3.483380
      px      :     1.385015
      py      :     1.039690
      dz2     :     0.022689  d :     0.100341
      dxz     :     0.019190
      dyz     :     0.026739
      dx2y2   :     0.013224
      dxy     :     0.018499
      f0      :     0.000702  f :     0.005787
      f+1     :     0.000677
      f-1     :     0.001221
      f+2     :     0.000725
      f-2     :     0.000679
      f+3     :     0.000953
      f-3     :     0.000831
  2 C s       :     3.060539  s :     3.060539
      pz      :     0.728427  p :     2.680581
      px      :     1.059987
      py      :     0.892168
      dz2     :     0.047370  d :     0.188315
      dxz     :     0.036883
      dyz     :     0.048688
      dx2y2   :     0.020355
      dxy     :     0.035019
      f0      :     0.003236  f :     0.015209
      f+1     :     0.002605
      f-1     :     0.002527
      f+2     :     0.002255
      f-2     :     0.001259
      f+3     :     0.002389
      f-3     :     0.000939
  3 C s       :     3.060586  s :     3.060586
      pz      :     0.728406  p :     2.680593
      px      :     1.059985
      py      :     0.892202
      dz2     :     0.047358  d :     0.188296
      dxz     :     0.036882
      dyz     :     0.048682
      dx2y2   :     0.020356
      dxy     :     0.035018
      f0      :     0.003236  f :     0.015209
      f+1     :     0.002605
      f-1     :     0.002527
      f+2     :     0.002255
      f-2     :     0.001259
      f+3     :     0.002389
      f-3     :     0.000939
  4 C s       :     3.112529  s :     3.112529
      pz      :     0.980243  p :     2.606611
      px      :     0.908504
      py      :     0.717864
      dz2     :     0.027714  d :     0.134780
      dxz     :     0.014048
      dyz     :     0.030620
      dx2y2   :     0.015762
      dxy     :     0.046637
      f0      :     0.002035  f :     0.015951
      f+1     :     0.000548
      f-1     :     0.004064
      f+2     :     0.001783
      f-2     :     0.003725
      f+3     :     0.002422
      f-3     :     0.001375
  5 Cls       :     5.868705  s :     5.868705
      pz      :     3.483609  p :    11.017481
      px      :     3.913081
      py      :     3.620792
      dz2     :     0.012411  d :     0.067782
      dxz     :     0.011783
      dyz     :     0.027787
      dx2y2   :     0.006866
      dxy     :     0.008935
      f0      :     0.000771  f :     0.006575
      f+1     :     0.000416
      f-1     :     0.002274
      f+2     :     0.001462
      f-2     :     0.001069
      f+3     :     0.000322
      f-3     :     0.000262
  6 Cls       :     5.868712  s :     5.868712
      pz      :     3.483608  p :    11.017480
      px      :     3.913081
      py      :     3.620792
      dz2     :     0.012412  d :     0.067783
      dxz     :     0.011783
      dyz     :     0.027787
      dx2y2   :     0.006866
      dxy     :     0.008935
      f0      :     0.000771  f :     0.006575
      f+1     :     0.000416
      f-1     :     0.002274
      f+2     :     0.001462
      f-2     :     0.001069
      f+3     :     0.000322
      f-3     :     0.000262
  7 C s       :     3.327326  s :     3.327326
      pz      :     1.092897  p :     2.930025
      px      :     1.110946
      py      :     0.726182
      dz2     :     0.012662  d :     0.063666
      dxz     :     0.005001
      dyz     :     0.011585
      dx2y2   :     0.009700
      dxy     :     0.024717
      f0      :     0.001074  f :     0.005186
      f+1     :    -0.000037
      f-1     :     0.000727
      f+2     :     0.000667
      f-2     :     0.000300
      f+3     :     0.001273
      f-3     :     0.001182
  8 C s       :     3.327280  s :     3.327280
      pz      :     1.092895  p :     2.930028
      px      :     1.110947
      py      :     0.726186
      dz2     :     0.012663  d :     0.063668
      dxz     :     0.005001
      dyz     :     0.011587
      dx2y2   :     0.009700
      dxy     :     0.024717
      f0      :     0.001074  f :     0.005186
      f+1     :    -0.000037
      f-1     :     0.000727
      f+2     :     0.000668
      f-2     :     0.000300
      f+3     :     0.001273
      f-3     :     0.001182
  9 H s       :     0.791458  s :     0.791458
      pz      :     0.014992  p :     0.022042
      px      :     0.004138
      py      :     0.002911
 10 H s       :     0.791459  s :     0.791459
      pz      :     0.014992  p :     0.022041
      px      :     0.004138
      py      :     0.002911
 11 H s       :     0.786317  s :     0.786317
      pz      :     0.004892  p :     0.021522
      px      :     0.010979
      py      :     0.005651
 12 H s       :     0.786320  s :     0.786320
      pz      :     0.004892  p :     0.021522
      px      :     0.010979
      py      :     0.005651
 13 H s       :     0.786320  s :     0.786320
      pz      :     0.004892  p :     0.021522
      px      :     0.010979
      py      :     0.005651
 14 H s       :     0.786317  s :     0.786317
      pz      :     0.004892  p :     0.021522
      px      :     0.010979
      py      :     0.005651
 15 H s       :     0.695691  s :     0.695691
      pz      :     0.016167  p :     0.021266
      px      :     0.003447
      py      :     0.001653


                     *******************************
                     * LOEWDIN POPULATION ANALYSIS *
                     *******************************

----------------------
LOEWDIN ATOMIC CHARGES
----------------------
   0 N :    0.265876
   1 N :    0.265876
   2 C :   -0.517715
   3 C :   -0.517715
   4 C :   -0.107426
   5 Cl:    0.509387
   6 Cl:    0.509387
   7 C :   -0.225117
   8 C :   -0.225117
   9 H :    0.146945
  10 H :    0.146946
  11 H :    0.141158
  12 H :    0.141158
  13 H :    0.141158
  14 H :    0.141158
  15 H :    0.184040

-------------------------------
LOEWDIN REDUCED ORBITAL CHARGES
-------------------------------
  0 N s       :     2.856837  s :     2.856837
      pz      :     1.148742  p :     3.517245
      px      :     1.210291
      py      :     1.158212
      dz2     :     0.081108  d :     0.335432
      dxz     :     0.059693
      dyz     :     0.105670
      dx2y2   :     0.041286
      dxy     :     0.047676
      f0      :     0.003189  f :     0.024610
      f+1     :     0.002143
      f-1     :     0.006930
      f+2     :     0.003266
      f-2     :     0.004038
      f+3     :     0.002745
      f-3     :     0.002299
  1 N s       :     2.856837  s :     2.856837
      pz      :     1.148743  p :     3.517246
      px      :     1.210292
      py      :     1.158212
      dz2     :     0.081107  d :     0.335432
      dxz     :     0.059692
      dyz     :     0.105670
      dx2y2   :     0.041286
      dxy     :     0.047676
      f0      :     0.003189  f :     0.024610
      f+1     :     0.002143
      f-1     :     0.006930
      f+2     :     0.003266
      f-2     :     0.004038
      f+3     :     0.002745
      f-3     :     0.002299
  2 C s       :     2.769277  s :     2.769277
      pz      :     0.924445  p :     2.969921
      px      :     0.991720
      py      :     1.053757
      dz2     :     0.187050  d :     0.690681
      dxz     :     0.109472
      dyz     :     0.207187
      dx2y2   :     0.078527
      dxy     :     0.108444
      f0      :     0.021616  f :     0.087836
      f+1     :     0.014597
      f-1     :     0.016911
      f+2     :     0.012471
      f-2     :     0.008425
      f+3     :     0.007565
      f-3     :     0.006251
  3 C s       :     2.769278  s :     2.769278
      pz      :     0.924444  p :     2.969921
      px      :     0.991719
      py      :     1.053757
      dz2     :     0.187049  d :     0.690680
      dxz     :     0.109472
      dyz     :     0.207187
      dx2y2   :     0.078527
      dxy     :     0.108445
      f0      :     0.021616  f :     0.087836
      f+1     :     0.014597
      f-1     :     0.016911
      f+2     :     0.012471
      f-2     :     0.008425
      f+3     :     0.007565
      f-3     :     0.006251
  4 C s       :     2.764307  s :     2.764307
      pz      :     0.988524  p :     2.736503
      px      :     0.870715
      py      :     0.877264
      dz2     :     0.131612  d :     0.516305
      dxz     :     0.030862
      dyz     :     0.140546
      dx2y2   :     0.080548
      dxy     :     0.132736
      f0      :     0.008039  f :     0.090311
      f+1     :     0.000906
      f-1     :     0.028133
      f+2     :     0.013919
      f-2     :     0.024177
      f+3     :     0.007155
      f-3     :     0.007982
  5 Cls       :     5.512350  s :     5.512350
      pz      :     3.457388  p :    10.852686
      px      :     3.824531
      py      :     3.570767
      dz2     :     0.020661  d :     0.111539
      dxz     :     0.020708
      dyz     :     0.043791
      dx2y2   :     0.010998
      dxy     :     0.015381
      f0      :     0.001684  f :     0.014038
      f+1     :     0.001014
      f-1     :     0.004558
      f+2     :     0.002877
      f-2     :     0.002683
      f+3     :     0.000723
      f-3     :     0.000501
  6 Cls       :     5.512349  s :     5.512349
      pz      :     3.457388  p :    10.852686
      px      :     3.824531
      py      :     3.570767
      dz2     :     0.020662  d :     0.111540
      dxz     :     0.020708
      dyz     :     0.043791
      dx2y2   :     0.010998
      dxy     :     0.015381
      f0      :     0.001684  f :     0.014038
      f+1     :     0.001014
      f-1     :     0.004558
      f+2     :     0.002877
      f-2     :     0.002683
      f+3     :     0.000723
      f-3     :     0.000501
  7 C s       :     2.840218  s :     2.840218
      pz      :     1.090694  p :     3.066780
      px      :     1.112442
      py      :     0.863645
      dz2     :     0.062823  d :     0.281104
      dxz     :     0.015235
      dyz     :     0.051139
      dx2y2   :     0.057983
      dxy     :     0.093925
      f0      :     0.004756  f :     0.037015
      f+1     :     0.000398
      f-1     :     0.004940
      f+2     :     0.007640
      f-2     :     0.005214
      f+3     :     0.006934
      f-3     :     0.007132
  8 C s       :     2.840217  s :     2.840217
      pz      :     1.090693  p :     3.066780
      px      :     1.112441
      py      :     0.863645
      dz2     :     0.062823  d :     0.281104
      dxz     :     0.015235
      dyz     :     0.051139
      dx2y2   :     0.057983
      dxy     :     0.093925
      f0      :     0.004756  f :     0.037015
      f+1     :     0.000398
      f-1     :     0.004940
      f+2     :     0.007640
      f-2     :     0.005214
      f+3     :     0.006934
      f-3     :     0.007132
  9 H s       :     0.790704  s :     0.790704
      pz      :     0.040544  p :     0.062351
      px      :     0.013138
      py      :     0.008668
 10 H s       :     0.790704  s :     0.790704
      pz      :     0.040544  p :     0.062351
      px      :     0.013138
      py      :     0.008668
 11 H s       :     0.796521  s :     0.796521
      pz      :     0.015588  p :     0.062321
      px      :     0.031650
      py      :     0.015083
 12 H s       :     0.796521  s :     0.796521
      pz      :     0.015588  p :     0.062321
      px      :     0.031650
      py      :     0.015083
 13 H s       :     0.796521  s :     0.796521
      pz      :     0.015588  p :     0.062321
      px      :     0.031650
      py      :     0.015083
 14 H s       :     0.796521  s :     0.796521
      pz      :     0.015588  p :     0.062321
      px      :     0.031650
      py      :     0.015083
 15 H s       :     0.751337  s :     0.751337
      pz      :     0.046693  p :     0.064623
      px      :     0.011857
      py      :     0.006074


                      *****************************
                      * MAYER POPULATION ANALYSIS *
                      *****************************

  NA   - Mulliken gross atomic population
  ZA   - Total nuclear charge
  QA   - Mulliken gross atomic charge
  VA   - Mayer's total valence
  BVA  - Mayer's bonded valence
  FA   - Mayer's free valence

  ATOM       NA         ZA         QA         VA         BVA        FA
  0 N      7.0460     7.0000    -0.0460     3.4612     3.4612     0.0000
  1 N      7.0460     7.0000    -0.0460     3.4612     3.4612     0.0000
  2 C      5.9446     6.0000     0.0554     4.1091     4.1091     0.0000
  3 C      5.9447     6.0000     0.0553     4.1091     4.1091     0.0000
  4 C      5.8699     6.0000     0.1301     3.8367     3.8367     0.0000
  5 Cl    16.9605    17.0000     0.0395     1.3555     1.3555    -0.0000
  6 Cl    16.9605    17.0000     0.0395     1.3555     1.3555     0.0000
  7 C      6.3262     6.0000    -0.3262     3.7749     3.7749     0.0000
  8 C      6.3262     6.0000    -0.3262     3.7749     3.7749     0.0000
  9 H      0.8135     1.0000     0.1865     0.9586     0.9586     0.0000
 10 H      0.8135     1.0000     0.1865     0.9586     0.9586    -0.0000
 11 H      0.8078     1.0000     0.1922     0.9486     0.9486     0.0000
 12 H      0.8078     1.0000     0.1922     0.9486     0.9486    -0.0000
 13 H      0.8078     1.0000     0.1922     0.9486     0.9486     0.0000
 14 H      0.8078     1.0000     0.1922     0.9486     0.9486     0.0000
 15 H      0.7170     1.0000     0.2830     0.9183     0.9183     0.0000

  Mayer bond orders larger than 0.100000
B(  0-N ,  2-C ) :   1.1525 B(  0-N ,  4-C ) :   1.3871 B(  0-N ,  7-C ) :   0.8587 
B(  1-N ,  3-C ) :   1.1525 B(  1-N ,  4-C ) :   1.3871 B(  1-N ,  8-C ) :   0.8588 
B(  2-C ,  3-C ) :   1.5795 B(  2-C ,  5-Cl) :   1.2638 B(  3-C ,  6-Cl) :   1.2638 
B(  4-C , 15-H ) :   0.8839 B(  7-C ,  9-H ) :   0.9503 B(  7-C , 11-H ) :   0.9525 
B(  7-C , 14-H ) :   0.9525 B(  8-C , 10-H ) :   0.9503 B(  8-C , 12-H ) :   0.9525 
B(  8-C , 13-H ) :   0.9525 

-------
TIMINGS
-------

Total SCF time: 0 days 0 hours 2 min 1 sec 

Total time                  ....     121.438 sec
Sum of individual times     ....     120.734 sec  ( 99.4%)

Fock matrix formation       ....     118.350 sec  ( 97.5%)
  Split-RI-J                ....       5.143 sec  (  4.3% of F)
  Chain of spheres X        ....      95.932 sec  ( 81.1% of F)
  XC integration            ....       9.211 sec  (  7.8% of F)
    Basis function eval.    ....       2.152 sec  ( 23.4% of XC)
    Density eval.           ....       2.265 sec  ( 24.6% of XC)
    XC-Functional eval.     ....       0.746 sec  (  8.1% of XC)
    XC-Potential eval.      ....       3.162 sec  ( 34.3% of XC)
Diagonalization             ....       0.240 sec  (  0.2%)
Density matrix formation    ....       0.019 sec  (  0.0%)
Population analysis         ....       0.036 sec  (  0.0%)
Initial guess               ....       0.386 sec  (  0.3%)
Orbital Transformation      ....       0.000 sec  (  0.0%)
Orbital Orthonormalization  ....       0.000 sec  (  0.0%)
DIIS solution               ....       0.140 sec  (  0.1%)
SOSCF solution              ....       0.148 sec  (  0.1%)
Grid generation             ....       1.415 sec  (  1.2%)

Maximum memory used throughout the entire SCF-calculation: 84.4 MB


-------------------------------------------------------------------------------
                          DFT DISPERSION CORRECTION                            
                                                                               
                                 DFTD4 V2.5                                    
-------------------------------------------------------------------------------
The WB97X functional is recognized
Active option DFTDOPT                   ...         5   

Starting D4
-------------------------   ----------------
Dispersion correction           -0.002508370
-------------------------   ----------------


-------------------------   --------------------
FINAL SINGLE POINT ENERGY     -1224.546755967754
-------------------------   --------------------



           ************************************************************
           *        Program running with 4 parallel MPI-processes     *
           *              working on a common directory               *
           ************************************************************
------------------------------------------------------------------------------
                         ORCA SCF GRADIENT CALCULATION
------------------------------------------------------------------------------

 ... reading COSX grid (gridx3)
Gradient of the Kohn-Sham DFT energy:
Kohn-Sham wavefunction type      ... RKS
Hartree-Fock exchange scaling    ...    0.158
Number of operators              ...    1
Number of atoms                  ...   16
Basis set dimensions             ...  333
Integral neglect threshold       ... 2.5e-11
Integral primitive cutoff        ... 2.5e-12
SHARK Integral package           ... ON

Nuc. rep. gradient       (SHARK) ... done (  0.0 sec)
HCore & Overlap gradient (SHARK) ... done (  0.2 sec)
RI-J gradient            (SHARK) ... done (  1.4 sec)
COSX-gradient                    ... done ( 19.9 sec)
Exchange-correlation gradient    ... done
Dispersion correction            ... Starting D4
Starting D4
Starting D4
Starting D4


------------------- 
Dispersion Gradient 
------------------- 
   1  :    0.000000000    0.000011037    0.000005960
   2  :    0.000000000   -0.000011037    0.000005960
   3  :    0.000000000    0.000005224   -0.000000980
   4  :   -0.000000000   -0.000005224   -0.000000980
   5  :    0.000000000    0.000000000    0.000006242
   6  :    0.000000000    0.000034193   -0.000039307
   7  :   -0.000000000   -0.000034193   -0.000039307
   8  :   -0.000000000    0.000036975    0.000015380
   9  :    0.000000000   -0.000036975    0.000015380
  10  :   -0.000000000    0.000009765    0.000006307
  11  :   -0.000000000   -0.000009765    0.000006307
  12  :   -0.000001199    0.000008859    0.000002532
  13  :   -0.000001199   -0.000008859    0.000002532
  14  :    0.000001199   -0.000008859    0.000002532
  15  :    0.000001199    0.000008859    0.000002532
  16  :    0.000000000   -0.000000000    0.000008910

  |G| =    0.000076690

done

------------------
CARTESIAN GRADIENT
------------------

   1   N   :   -0.000000049    0.004876514    0.000589566
   2   N   :    0.000000002   -0.004877706    0.000589141
   3   C   :    0.000000021    0.006480142   -0.000399669
   4   C   :    0.000000105   -0.006479871   -0.000400393
   5   C   :    0.000000023    0.000001205   -0.001687273
   6   Cl  :    0.000000053    0.002783348   -0.002929518
   7   Cl  :   -0.000000108   -0.002783796   -0.002929317
   8   C   :    0.000000160   -0.004774177   -0.001910667
[...]
     35       0.354067   0.376991   0.089744  -0.040403   0.329684  -0.330325
     36      -0.121741   0.169929  -0.205733   0.274743   0.033625   0.033245
     37      -0.031189   0.003173   0.365687  -0.372214   0.146326   0.147869
     38       0.354072  -0.376992  -0.089751  -0.040400  -0.330207  -0.329800
     39       0.121742  -0.169930   0.205735  -0.274745   0.033625   0.033242
     40      -0.031192   0.003175   0.365683  -0.372209  -0.146332  -0.147874
     41       0.354069  -0.376992  -0.089744  -0.040408   0.330213   0.329800
     42       0.121742   0.169931  -0.205734  -0.274748  -0.033571   0.033295
     43       0.031189   0.003172   0.365681   0.372216  -0.146097   0.148108
     44       0.354065   0.376988   0.089739  -0.040409  -0.329685   0.330324
     45      -0.000001  -0.000000  -0.000000   0.000000   0.000001   0.001213
     46      -0.000000   0.297068   0.062706   0.000001  -0.000000   0.000001
     47      -0.175350   0.000001  -0.000000   0.095937   0.000000   0.000001
                 36         37         38         39         40         41    
      0      -0.000000   0.000000  -0.000000  -0.000000  -0.000000   0.000000
      1      -0.078964   0.001968   0.141192  -0.265258   0.179896   0.000272
      2      -0.027593   0.080579  -0.087396   0.030151  -0.110761   0.000074
      3       0.000000   0.000000  -0.000000   0.000000  -0.000000   0.000000
      4       0.078965   0.001967  -0.141192  -0.265258  -0.179891   0.000272
      5      -0.027595  -0.080579  -0.087394  -0.030151  -0.110761  -0.000076
      6       0.000000  -0.000000  -0.000000   0.000000   0.000000   0.000000
      7      -0.008314  -0.003422   0.112204   0.053637  -0.571668   0.000057
      8       0.045210  -0.069689  -0.026655   0.048291   0.091339  -0.000622
      9      -0.000000  -0.000000   0.000000  -0.000000  -0.000001  -0.000000
     10       0.008313  -0.003423  -0.112204   0.053643   0.571667   0.000057
     11       0.045212   0.069688  -0.026657  -0.048290   0.091341   0.000626
     12      -0.000000  -0.000000   0.000000   0.000000   0.000000  -0.000000
     13      -0.000001  -0.000190   0.000001   0.438061  -0.000004  -0.001381
     14      -0.041361   0.000000   0.164134  -0.000000   0.116228   0.000000
     15       0.000000  -0.000000  -0.000000   0.000000   0.000000  -0.000000
     16       0.002523  -0.001871  -0.005723  -0.001919   0.023888  -0.000042
     17      -0.003465   0.002972   0.007607  -0.002570  -0.018889   0.000005
     18       0.000000   0.000000  -0.000000  -0.000000   0.000000   0.000000
     19      -0.002523  -0.001871   0.005723  -0.001920  -0.023888  -0.000042
     20      -0.003465  -0.002972   0.007608   0.002570  -0.018890  -0.000005
     21      -0.000000   0.000000   0.000000   0.000000   0.000000  -0.000000
     22      -0.019918   0.001809  -0.014863   0.023240  -0.036412   0.031921
     23      -0.033293   0.015210  -0.005304  -0.003883   0.026245   0.007478
     24       0.000000   0.000000   0.000000  -0.000000   0.000000   0.000000
     25       0.019916   0.001808   0.014863   0.023240   0.036411   0.032131
     26      -0.033292  -0.015209  -0.005304   0.003883   0.026245  -0.007528
     27       0.000002   0.000000  -0.000000   0.000000  -0.000000  -0.000001
     28       0.492791  -0.417304   0.225056   0.060065   0.190269   0.005925
     29      -0.019018   0.002209   0.001538  -0.006239   0.032425  -0.373664
     30      -0.000003  -0.000003  -0.000003   0.000000  -0.000000   0.000001
     31      -0.492790  -0.417297  -0.225050   0.060064  -0.190270   0.005964
     32      -0.019016  -0.002208   0.001538   0.006238   0.032426   0.376121
     33      -0.095697   0.214885  -0.231524   0.086826  -0.055215   0.348021
     34       0.068760   0.199115  -0.343784   0.235351  -0.163950  -0.190887
     35       0.328571  -0.255399   0.123276   0.082401  -0.002193   0.142956
     36      -0.095703  -0.214887  -0.231524  -0.086826  -0.055213  -0.350310
     37      -0.068751   0.199121   0.343785   0.235351   0.163947  -0.192144
     38       0.328574   0.255397   0.123275  -0.082401  -0.002192  -0.143895
     39       0.095703   0.214888   0.231525   0.086826   0.055214   0.350306
     40      -0.068750   0.199122   0.343787   0.235351   0.163947  -0.192144
     41       0.328570   0.255391   0.123270  -0.082402  -0.002192  -0.143896
     42       0.095698  -0.214886   0.231525  -0.086825   0.055215  -0.348020
     43       0.068762   0.199115  -0.343785   0.235352  -0.163950  -0.190887
     44       0.328574  -0.255398   0.123275   0.082403  -0.002193   0.142957
     45       0.000000  -0.000000   0.000000  -0.000000  -0.000001  -0.000000
     46       0.000003   0.155823  -0.000003  -0.606499   0.000005   0.001467
     47      -0.056847   0.000001   0.203418  -0.000000   0.163759  -0.000008
                 42         43         44         45         46         47    
      0       0.000000  -0.000261  -0.000145  -0.000000  -0.000000  -0.000000
      1      -0.000100   0.000000   0.000000  -0.000488   0.000318  -0.003381
      2       0.000256   0.000000   0.000000  -0.000171   0.000114   0.002708
      3      -0.000000   0.000261  -0.000144   0.000000   0.000000   0.000000
      4       0.000102  -0.000000   0.000000   0.000505   0.000290   0.003381
      5       0.000256  -0.000000   0.000000  -0.000178  -0.000104   0.002708
      6      -0.000000  -0.000098  -0.000035   0.000000   0.000000   0.000000
      7      -0.000025   0.000000  -0.000000  -0.000525   0.000488   0.000884
      8      -0.000665  -0.000000  -0.000000  -0.000124   0.000036   0.002065
      9       0.000000   0.000098  -0.000035   0.000000  -0.000000  -0.000000
     10       0.000025  -0.000000   0.000000   0.000552   0.000457  -0.000884
     11      -0.000661   0.000000  -0.000000  -0.000126  -0.000029   0.002065
     12      -0.000000  -0.000000   0.000186  -0.000000  -0.000000  -0.000000
     13      -0.000005   0.000000   0.000000  -0.000006  -0.000203   0.000000
     14      -0.000059   0.000000  -0.000000  -0.000460   0.000013  -0.093739
     15      -0.000000  -0.000002  -0.000006   0.000000  -0.000000  -0.000000
     16      -0.000068  -0.000000   0.000000   0.000035  -0.000013  -0.000013
     17       0.000039   0.000000   0.000000  -0.000012   0.000022   0.000026
     18      -0.000000   0.000002  -0.000006   0.000000   0.000000  -0.000000
     19       0.000067  -0.000000   0.000000  -0.000036  -0.000011   0.000013
     20       0.000039  -0.000000  -0.000000  -0.000013  -0.000021   0.000026
     21      -0.000000   0.067363   0.067707   0.000000  -0.000000  -0.000000
     22       0.032185   0.000000  -0.000000  -0.019271   0.020429   0.000072
     23       0.007558  -0.000000  -0.000000   0.062796  -0.066426  -0.000344
     24      -0.000000  -0.067657   0.067413  -0.000001  -0.000001   0.000000
     25      -0.031975  -0.000000   0.000000   0.020404   0.019298  -0.000072
     26       0.007509  -0.000001   0.000001   0.066481   0.062738  -0.000344
     27      -0.000001   0.009130   0.009155  -0.000001   0.000001   0.000000
     28       0.005883  -0.000000   0.000000   0.009939  -0.010533   0.001713
     29      -0.375666   0.000001  -0.000001  -0.580687   0.614527   0.000944
     30      -0.000001  -0.009170   0.009115  -0.000002  -0.000002   0.000000
     31      -0.005845   0.000000  -0.000000  -0.010524  -0.009950  -0.001713
     32      -0.373213   0.000013  -0.000015  -0.614775  -0.580425   0.000943
     33       0.350394  -0.405230  -0.407038  -0.213570   0.226329  -0.000661
     34      -0.192457   0.228285   0.229166   0.113481  -0.120360   0.001448
     35       0.143856  -0.173990  -0.174813  -0.080321   0.085131   0.000356
     36       0.348107   0.407006  -0.405270  -0.226119  -0.213781  -0.000661
     37       0.191202   0.229284  -0.228169  -0.120154  -0.113692  -0.001448
     38       0.142916   0.174751  -0.174053  -0.085040  -0.080410   0.000356
     39      -0.348102   0.406999  -0.405262   0.226137   0.213795   0.000661
     40       0.191201  -0.229282   0.228166  -0.120165  -0.113701  -0.001448
     41       0.142916  -0.174751   0.174052  -0.085049  -0.080418   0.000356
     42      -0.350393  -0.405231  -0.407038   0.213571  -0.226327   0.000661
     43      -0.192457  -0.228286  -0.229166   0.113481  -0.120359   0.001448
     44       0.143857   0.173991   0.174815  -0.080322   0.085131   0.000356
     45       0.000000   0.000001  -0.000629   0.000000   0.000000   0.000001
     46       0.000005   0.000000  -0.000000  -0.000035  -0.001214  -0.000000
     47       0.002473   0.000000  -0.000000  -0.000013   0.000000   0.995564


-----------
IR SPECTRUM
-----------

 Mode   freq       eps      Int      T**2         TX        TY        TZ
       cm**-1   L/(mol*cm) km/mol    a.u.
----------------------------------------------------------------------------
  6:     95.65   0.000000    0.00  0.000000  ( 0.000006 -0.000000 -0.000000)
  7:     97.69   0.000128    0.65  0.000410  ( 0.020242  0.000000 -0.000000)
  8:    113.77   0.000000    0.00  0.000000  (-0.000002 -0.000000 -0.000000)
  9:    163.97   0.001076    5.44  0.002049  (-0.045263  0.000000 -0.000000)
 10:    174.98   0.000313    1.58  0.000558  (-0.000000  0.000000  0.023626)
 11:    234.14   0.000031    0.16  0.000042  (-0.000000  0.006463 -0.000000)
 12:    268.13   0.000750    3.79  0.000873  (-0.000000  0.000000  0.029541)
 13:    282.73   0.000307    1.55  0.000338  ( 0.018394  0.000000  0.000000)
 14:    317.12   0.000000    0.00  0.000000  ( 0.000000  0.000001  0.000000)
 15:    444.88   0.002430   12.28  0.001705  (-0.000000 -0.041286 -0.000000)
 16:    544.81   0.003091   15.62  0.001771  ( 0.000000  0.000000  0.042079)
 17:    553.42   0.000001    0.01  0.000001  ( 0.000000 -0.000915 -0.000001)
 18:    638.50   0.004531   22.90  0.002214  (-0.047058 -0.000000  0.000000)
 19:    643.71   0.000046    0.23  0.000022  (-0.000000 -0.000000 -0.004702)
 20:    708.41   0.000000    0.00  0.000000  ( 0.000000  0.000001 -0.000000)
 21:    862.60   0.000004    0.02  0.000002  (-0.000001 -0.001269  0.000000)
 22:    878.55   0.003816   19.29  0.001356  ( 0.036818 -0.000000  0.000000)
 23:   1113.11   0.002418   12.22  0.000678  (-0.000000  0.026037  0.000002)
 24:   1115.27   0.000504    2.55  0.000141  (-0.000000 -0.000003  0.011872)
 25:   1130.99   0.004189   21.17  0.001156  (-0.000000 -0.000000  0.033998)
 26:   1152.70   0.000000    0.00  0.000000  ( 0.000000  0.000000  0.000000)
 27:   1158.27   0.000189    0.95  0.000051  ( 0.007127  0.000000  0.000000)
 28:   1198.57   0.031894  161.18  0.008304  (-0.000000  0.091127  0.000000)
 29:   1239.82   0.002827   14.29  0.000712  (-0.000000 -0.026676 -0.000000)
 30:   1396.86   0.003210   16.22  0.000717  (-0.000000  0.000000 -0.026779)
 31:   1433.09   0.000545    2.75  0.000119  (-0.000000  0.010889 -0.000000)
 32:   1451.87   0.005631   28.46  0.001210  ( 0.000000 -0.034790 -0.000001)
 33:   1453.86   0.004782   24.17  0.001027  (-0.000000 -0.000000 -0.032039)
 34:   1466.58   0.000000    0.00  0.000000  ( 0.000037  0.000000  0.000000)
 35:   1467.26   0.010184   51.47  0.002166  ( 0.046540  0.000000 -0.000000)
 36:   1481.85   0.011350   57.36  0.002390  ( 0.000000 -0.000000  0.048890)
 37:   1501.83   0.001292    6.53  0.000268  (-0.000000  0.016386  0.000000)
 38:   1522.25   0.000252    1.27  0.000052  ( 0.000000  0.000000  0.007184)
 39:   1638.28   0.028978  146.44  0.005520  ( 0.000000  0.074295  0.000000)
 40:   1661.90   0.021659  109.45  0.004067  (-0.000000 -0.000000  0.063773)
 41:   3105.72   0.002262   11.43  0.000227  ( 0.000000  0.015078 -0.000018)
 42:   3105.82   0.000306    1.55  0.000031  (-0.000000  0.000049  0.005546)
 43:   3200.88   0.000000    0.00  0.000000  (-0.000010  0.000000 -0.000000)
 44:   3200.92   0.000193    0.98  0.000019  ( 0.004337 -0.000000  0.000000)
 45:   3213.19   0.000037    0.19  0.000004  (-0.000000  0.000048  0.001905)
 46:   3213.22   0.000029    0.15  0.000003  (-0.000000  0.001681 -0.000054)
 47:   3296.75   0.014898   75.29  0.001410  ( 0.000000  0.000000  0.037553)

* The epsilon (eps) is given for a Dirac delta lineshape.
** The dipole moment derivative (T) already includes vibrational overlap.

The first frequency considered to be a vibration is 6
The total number of vibrations considered is 42


--------------------------
THERMOCHEMISTRY AT 298.15K
--------------------------

Temperature         ... 298.15 K
Pressure            ... 1.00 atm
Total Mass          ... 166.03 AMU

Throughout the following assumptions are being made:
  (1) The electronic state is orbitally nondegenerate
  (2) There are no thermally accessible electronically excited states
  (3) Hindered rotations indicated by low frequency modes are not
      treated as such but are treated as vibrations and this may
      cause some error
  (4) All equations used are the standard statistical mechanics
      equations for an ideal gas
  (5) All vibrations are strictly harmonic

freq.      95.65  E(vib)   ...       0.47 
freq.      97.69  E(vib)   ...       0.46 
freq.     113.77  E(vib)   ...       0.44 
freq.     163.97  E(vib)   ...       0.39 
freq.     174.98  E(vib)   ...       0.38 
freq.     234.14  E(vib)   ...       0.32 
freq.     268.13  E(vib)   ...       0.29 
freq.     282.73  E(vib)   ...       0.28 
freq.     317.12  E(vib)   ...       0.25 
freq.     444.88  E(vib)   ...       0.17 
freq.     544.81  E(vib)   ...       0.12 
freq.     553.42  E(vib)   ...       0.12 
freq.     638.50  E(vib)   ...       0.09 
freq.     643.71  E(vib)   ...       0.09 
freq.     708.41  E(vib)   ...       0.07 
freq.     862.60  E(vib)   ...       0.04 
freq.     878.55  E(vib)   ...       0.04 
freq.    1113.11  E(vib)   ...       0.01 
freq.    1115.27  E(vib)   ...       0.01 
freq.    1130.99  E(vib)   ...       0.01 
freq.    1152.70  E(vib)   ...       0.01 
freq.    1158.27  E(vib)   ...       0.01 
freq.    1198.57  E(vib)   ...       0.01 
freq.    1239.82  E(vib)   ...       0.01 
freq.    1396.86  E(vib)   ...       0.00 
freq.    1433.09  E(vib)   ...       0.00 
freq.    1451.87  E(vib)   ...       0.00 
freq.    1453.86  E(vib)   ...       0.00 
freq.    1466.58  E(vib)   ...       0.00 
freq.    1467.26  E(vib)   ...       0.00 
freq.    1481.85  E(vib)   ...       0.00 
freq.    1501.83  E(vib)   ...       0.00 
freq.    1522.25  E(vib)   ...       0.00 
freq.    1638.28  E(vib)   ...       0.00 
freq.    1661.90  E(vib)   ...       0.00 
freq.    3105.72  E(vib)   ...       0.00 
freq.    3105.82  E(vib)   ...       0.00 
freq.    3200.88  E(vib)   ...       0.00 
freq.    3200.92  E(vib)   ...       0.00 
freq.    3213.19  E(vib)   ...       0.00 
freq.    3213.22  E(vib)   ...       0.00 
freq.    3296.75  E(vib)   ...       0.00 

------------
INNER ENERGY
------------

The inner energy is: U= E(el) + E(ZPE) + E(vib) + E(rot) + E(trans)
    E(el)   - is the total energy from the electronic structure calculation
              = E(kin-el) + E(nuc-el) + E(el-el) + E(nuc-nuc)
    E(ZPE)  - the the zero temperature vibrational energy from the frequency calculation
    E(vib)  - the the finite temperature correction to E(ZPE) due to population
              of excited vibrational states
    E(rot)  - is the rotational thermal energy
    E(trans)- is the translational thermal energy

Summary of contributions to the inner energy U:
Electronic energy                ...  -1224.54740748 Eh
Zero point energy                ...      0.12289333 Eh      77.12 kcal/mol
Thermal vibrational correction   ...      0.00657708 Eh       4.13 kcal/mol
Thermal rotational correction    ...      0.00141627 Eh       0.89 kcal/mol
Thermal translational correction ...      0.00141627 Eh       0.89 kcal/mol
-----------------------------------------------------------------------
Total thermal energy                  -1224.41510454 Eh


Summary of corrections to the electronic energy:
(perhaps to be used in another calculation)
Total thermal correction                  0.00940962 Eh       5.90 kcal/mol
Non-thermal (ZPE) correction              0.12289333 Eh      77.12 kcal/mol
-----------------------------------------------------------------------
Total correction                          0.13230295 Eh      83.02 kcal/mol


--------
ENTHALPY
--------

The enthalpy is H = U + kB*T
                kB is Boltzmann's constant
Total free energy                 ...  -1224.41510454 Eh 
Thermal Enthalpy correction       ...      0.00094421 Eh       0.59 kcal/mol
-----------------------------------------------------------------------
Total Enthalpy                    ...  -1224.41416033 Eh


Note: Rotational entropy computed according to Herzberg 
Infrared and Raman Spectra, Chapter V,1, Van Nostrand Reinhold, 1945 
Point Group:  C2v, Symmetry Number:   2  
Rotational constants in cm-1:     0.051257     0.036783     0.021591 

Vibrational entropy computed according to the QRRHO of S. Grimme
Chem.Eur.J. 2012 18 9955


-------
ENTROPY
-------

The entropy contributions are T*S = T*(S(el)+S(vib)+S(rot)+S(trans))
     S(el)   - electronic entropy
     S(vib)  - vibrational entropy
     S(rot)  - rotational entropy
     S(trans)- translational entropy
The entropies will be listed as multiplied by the temperature to get
units of energy

Electronic entropy                ...      0.00000000 Eh      0.00 kcal/mol
Vibrational entropy               ...      0.01156489 Eh      7.26 kcal/mol
Rotational entropy                ...      0.01362877 Eh      8.55 kcal/mol
Translational entropy             ...      0.01958930 Eh     12.29 kcal/mol
-----------------------------------------------------------------------
Final entropy term                ...      0.04478296 Eh     28.10 kcal/mol

In case the symmetry of your molecule has not been determined correctly
or in case you have a reason to use a different symmetry number we print 
out the resulting rotational entropy values for sn=1,12 :
 --------------------------------------------------------
|  sn= 1 | S(rot)=       0.01428323 Eh      8.96 kcal/mol|
|  sn= 2 | S(rot)=       0.01362877 Eh      8.55 kcal/mol|
|  sn= 3 | S(rot)=       0.01324594 Eh      8.31 kcal/mol|
|  sn= 4 | S(rot)=       0.01297431 Eh      8.14 kcal/mol|
|  sn= 5 | S(rot)=       0.01276363 Eh      8.01 kcal/mol|
|  sn= 6 | S(rot)=       0.01259148 Eh      7.90 kcal/mol|
|  sn= 7 | S(rot)=       0.01244594 Eh      7.81 kcal/mol|
|  sn= 8 | S(rot)=       0.01231986 Eh      7.73 kcal/mol|
|  sn= 9 | S(rot)=       0.01220865 Eh      7.66 kcal/mol|
|  sn=10 | S(rot)=       0.01210917 Eh      7.60 kcal/mol|
|  sn=11 | S(rot)=       0.01201918 Eh      7.54 kcal/mol|
|  sn=12 | S(rot)=       0.01193703 Eh      7.49 kcal/mol|
 --------------------------------------------------------


-------------------
GIBBS FREE ENERGY
-------------------

The Gibbs free energy is G = H - T*S

Total enthalpy                    ...  -1224.41416033 Eh 
Total entropy correction          ...     -0.04478296 Eh    -28.10 kcal/mol
-----------------------------------------------------------------------
Final Gibbs free energy         ...  -1224.45894328 Eh

For completeness - the Gibbs free energy minus the electronic energy
G-E(el)                           ...      0.08846420 Eh     55.51 kcal/mol


Timings for individual modules:

Sum of individual times         ...     1269.298 sec (=  21.155 min)
GTO integral calculation        ...        2.997 sec (=   0.050 min)   0.2 %
SCF iterations                  ...      347.287 sec (=   5.788 min)  27.4 %
SCF Gradient evaluation         ...       79.570 sec (=   1.326 min)   6.3 %
Geometry relaxation             ...        0.142 sec (=   0.002 min)   0.0 %
Analytical frequency calculation...      839.301 sec (=  13.988 min)  66.1 %
                             ****ORCA TERMINATED NORMALLY****
TOTAL RUN TIME: 0 days 0 hours 21 minutes 10 seconds 854 msec
