
                                 *****************
                                 * O   R   C   A *
                                 *****************

                                            #,                                       
                                            ###                                      
                                            ####                                     
                                            #####                                    
                                            ######                                   
                                           ########,                                 
                                     ,,################,,,,,                         
                               ,,#################################,,                 
                          ,,##########################################,,             
                       ,#########################################, ''#####,          
                    ,#############################################,,   '####,        
                  ,##################################################,,,,####,       
                ,###########''''           ''''###############################       
              ,#####''   ,,,,##########,,,,          '''####'''          '####       
            ,##' ,,,,###########################,,,                        '##       
           ' ,,###''''                  '''############,,,                           
         ,,##''                                '''############,,,,        ,,,,,,###''
      ,#''                                            '''#######################'''  
     '                                                          ''''####''''         
             ,#######,   #######,   ,#######,      ##                                
            ,#'     '#,  ##    ##  ,#'     '#,    #''#        ######   ,####,        
            ##       ##  ##   ,#'  ##            #'  '#       #        #'  '#        
            ##       ##  #######   ##           ,######,      #####,   #    #        
            '#,     ,#'  ##    ##  '#,     ,#' ,#      #,         ##   #,  ,#        
             '#######'   ##     ##  '#######'  #'      '#     #####' # '####'        



                  #######################################################
                  #                        -***-                        #
                  #          Department of theory and spectroscopy      #
                  #    Directorship and core code : Frank Neese         #
                  #        Max Planck Institute fuer Kohlenforschung    #
                  #                Kaiser Wilhelm Platz 1               #
                  #                 D-45470 Muelheim/Ruhr               #
                  #                      Germany                        #
                  #                                                     #
                  #                  All rights reserved                #
                  #                        -***-                        #
                  #######################################################


                         Program Version 5.0.4 -  RELEASE  -


 With contributions from (in alphabetic order):
   Daniel Aravena         : Magnetic Suceptibility
   Michael Atanasov       : Ab Initio Ligand Field Theory (pilot matlab implementation)
   Alexander A. Auer      : GIAO ZORA, VPT2 properties, NMR spectrum
   Ute Becker             : Parallelization
   Giovanni Bistoni       : ED, misc. LED, open-shell LED, HFLD
   Martin Brehm           : Molecular dynamics
   Dmytro Bykov           : SCF Hessian
   Vijay G. Chilkuri      : MRCI spin determinant printing, contributions to CSF-ICE
   Dipayan Datta          : RHF DLPNO-CCSD density
   Achintya Kumar Dutta   : EOM-CC, STEOM-CC
   Dmitry Ganyushin       : Spin-Orbit,Spin-Spin,Magnetic field MRCI
   Miquel Garcia          : C-PCM and meta-GGA Hessian, CC/C-PCM, Gaussian charge scheme
   Yang Guo               : DLPNO-NEVPT2, F12-NEVPT2, CIM, IAO-localization
   Andreas Hansen         : Spin unrestricted coupled pair/coupled cluster methods
   Benjamin Helmich-Paris : MC-RPA, TRAH-SCF, COSX integrals
   Lee Huntington         : MR-EOM, pCC
   Robert Izsak           : Overlap fitted RIJCOSX, COSX-SCS-MP3, EOM
   Marcus Kettner         : VPT2
   Christian Kollmar      : KDIIS, OOCD, Brueckner-CCSD(T), CCSD density, CASPT2, CASPT2-K
   Simone Kossmann        : Meta GGA functionals, TD-DFT gradient, OOMP2, MP2 Hessian
   Martin Krupicka        : Initial AUTO-CI
   Lucas Lang             : DCDCAS
   Marvin Lechner         : AUTO-CI (C++ implementation), FIC-MRCC
   Dagmar Lenk            : GEPOL surface, SMD
   Dimitrios Liakos       : Extrapolation schemes; Compound Job, initial MDCI parallelization
   Dimitrios Manganas     : Further ROCIS development; embedding schemes
   Dimitrios Pantazis     : SARC Basis sets
   Anastasios Papadopoulos: AUTO-CI, single reference methods and gradients
   Taras Petrenko         : DFT Hessian,TD-DFT gradient, ASA, ECA, R-Raman, ABS, FL, XAS/XES, NRVS
   Peter Pinski           : DLPNO-MP2, DLPNO-MP2 Gradient
   Christoph Reimann      : Effective Core Potentials
   Marius Retegan         : Local ZFS, SOC
   Christoph Riplinger    : Optimizer, TS searches, QM/MM, DLPNO-CCSD(T), (RO)-DLPNO pert. Triples
   Tobias Risthaus        : Range-separated hybrids, TD-DFT gradient, RPA, STAB
   Michael Roemelt        : Original ROCIS implementation
   Masaaki Saitow         : Open-shell DLPNO-CCSD energy and density
   Barbara Sandhoefer     : DKH picture change effects
   Avijit Sen             : IP-ROCIS
   Kantharuban Sivalingam : CASSCF convergence, NEVPT2, FIC-MRCI
   Bernardo de Souza      : ESD, SOC TD-DFT
   Georgi Stoychev        : AutoAux, RI-MP2 NMR, DLPNO-MP2 response
   Willem Van den Heuvel  : Paramagnetic NMR
   Boris Wezisla          : Elementary symmetry handling
   Frank Wennmohs         : Technical directorship


 We gratefully acknowledge several colleagues who have allowed us to
 interface, adapt or use parts of their codes:
   Stefan Grimme, W. Hujo, H. Kruse, P. Pracht,  : VdW corrections, initial TS optimization,
                  C. Bannwarth, S. Ehlert          DFT functionals, gCP, sTDA/sTD-DF
   Ed Valeev, F. Pavosevic, A. Kumar             : LibInt (2-el integral package), F12 methods
   Garnet Chan, S. Sharma, J. Yang, R. Olivares  : DMRG
   Ulf Ekstrom                                   : XCFun DFT Library
   Mihaly Kallay                                 : mrcc  (arbitrary order and MRCC methods)
   Jiri Pittner, Ondrej Demel                    : Mk-CCSD
   Frank Weinhold                                : gennbo (NPA and NBO analysis)
   Christopher J. Cramer and Donald G. Truhlar   : smd solvation model
   Lars Goerigk                                  : TD-DFT with DH, B97 family of functionals
   V. Asgeirsson, H. Jonsson                     : NEB implementation
   FAccTs GmbH                                   : IRC, NEB, NEB-TS, DLPNO-Multilevel, CI-OPT
                                                   MM, QMMM, 2- and 3-layer-ONIOM, Crystal-QMMM,
                                                   LR-CPCM, SF, NACMEs, symmetry and pop. for TD-DFT,
                                                   nearIR, NL-DFT gradient (VV10), updates on ESD,
                                                   ML-optimized integration grids
   S Lehtola, MJT Oliveira, MAL Marques          : LibXC Library
   Liviu Ungur et al                             : ANISO software


 Your calculation uses the libint2 library for the computation of 2-el integrals
 For citations please refer to: http://libint.valeyev.net

 Your ORCA version has been built with support for libXC version: 5.1.0
 For citations please refer to: https://tddft.org/programs/libxc/

 This ORCA versions uses:
   CBLAS   interface :  Fast vector & matrix operations
   LAPACKE interface :  Fast linear algebra routines
   SCALAPACK package :  Parallel linear algebra routines
   Shared memory     :  Shared parallel matrices
   BLAS/LAPACK       :  OpenBLAS 0.3.15  USE64BITINT DYNAMIC_ARCH NO_AFFINITY SkylakeX SINGLE_THREADED
        Core in use  :  SkylakeX
   Copyright (c) 2011-2014, The OpenBLAS Project




***************************************
The coordinates will be read from file: 4_prot.xyz
***************************************


Your calculation utilizes the atom-pairwise dispersion correction
based on tight binding partial charges (D4)
Cite in your paper:
E.Caldeweyher, C.Bannwarth, S.Grimme, J.Chem.Phys., (2017), 147, 034112.
E.Caldeweyher, S.Ehlert, A.Hansen, H.Neugebauer, S.Grimme, J.Chem.Phys., (2018), in progress.
   

XCFun DFT library Copyright 2009-2010 Ulf Ekstrom and contributors.
See http://admol.org/xcfun for more information.
This is free software; see the source code for copying conditions.
There is ABSOLUTELY NO WARRANTY; not even for MERCHANTABILITY or FITNESS FOR A PARTICULAR PURPOSE.
For details see the documentation.
Scientific users of this library should cite U. Ekstrom, L. Visscher, R. Bast, A. J. Thorvaldsen and K. Ruud;
J.Chem.Theor.Comp. 2010, DOI: 10.1021/ct100117s
XCFun Version 0.99 

================================================================================

----- Orbital basis set information -----
Your calculation utilizes the basis: def2-TZVP
   F. Weigend and R. Ahlrichs, Phys. Chem. Chem. Phys. 7, 3297 (2005).

----- AuxJ basis set information -----
Your calculation utilizes the auxiliary basis: def2/J
   F. Weigend, Phys. Chem. Chem. Phys. 8, 1057 (2006).

================================================================================
                                        WARNINGS
                       Please study these warnings very carefully!
================================================================================


WARNING: Geometry Optimization
  ===> : Switching off AutoStart
         For restart on a previous wavefunction, please use MOREAD

INFO   : the flag for use of the SHARK integral package has been found!

================================================================================
                                       INPUT FILE
================================================================================
NAME = 4_prot.inp
|  1> # ORCA 5.0.4 - /users/bwb16179/postgrad/2024_06/pKa_Reviewer_Comments/Aq_Z=1/4_prot.inp # write input file
|  2> # Basic Mode
|  3> #
|  4> ! Opt Freq wB97X Def2-TZVP D4 SlowConv TightSCF Defgrid2 Def2/J RIJCOSX CPCM(Water)
|  5> 
|  6> %PAL NPROCS 4 END
|  7> 
|  8> %maxcore 4500
|  9> 
| 10> %geom
| 11> Maxiter 150
| 12> END
| 13> 
| 14> * xyzfile 1 1 4_prot.xyz
| 15> 
| 16>                          ****END OF INPUT****
================================================================================

                       *****************************
                       * Geometry Optimization Run *
                       *****************************

Geometry optimization settings:
Update method            Update   .... BFGS
Choice of coordinates    CoordSys .... Z-matrix Internals
Initial Hessian          InHess   .... Almoef's Model

Convergence Tolerances:
Energy Change            TolE     ....  5.0000e-06 Eh
Max. Gradient            TolMAXG  ....  3.0000e-04 Eh/bohr
RMS Gradient             TolRMSG  ....  1.0000e-04 Eh/bohr
Max. Displacement        TolMAXD  ....  4.0000e-03 bohr
RMS Displacement         TolRMSD  ....  2.0000e-03 bohr
Strict Convergence                ....  False
------------------------------------------------------------------------------
                        ORCA OPTIMIZATION COORDINATE SETUP
------------------------------------------------------------------------------

The optimization will be done in new redundant internal coordinates
Making redundant internal coordinates   ...  (new redundants) done
Evaluating the initial hessian          ...  (Almloef) done
Evaluating the coordinates              ...  done
Calculating the B-matrix                .... done
Calculating the G-matrix                .... done
Diagonalizing the G-matrix              .... done
Small eigenvalue found = 1.916e-02
Small eigenvalue found = 2.090e-02
The first mode is                       ....   69
The number of degrees of freedom        ....   78

    -----------------------------------------------------------------
                    Redundant Internal Coordinates


    -----------------------------------------------------------------
         Definition                    Initial Value    Approx d2E/dq
    -----------------------------------------------------------------
      1. B(C   1,C   0)                  1.3613         0.694310   
      2. B(N   2,C   0)                  1.3783         0.584113   
      3. B(N   3,C   1)                  1.3784         0.584000   
      4. B(C   4,N   3)                  1.3301         0.697299   
      5. B(C   4,N   2)                  1.3303         0.696819   
      6. B(H   5,C   0)                  1.0885         0.362080   
      7. B(H   6,C   1)                  1.0885         0.362124   
      8. B(C   7,N   2)                  1.4790         0.403552   
      9. B(C   8,N   3)                  1.4787         0.403951   
     10. B(H   9,C   7)                  1.1006         0.346361   
     11. B(H  10,C   8)                  1.1004         0.346554   
     12. B(H  11,C   4)                  1.0903         0.359685   
     13. B(C  12,C   7)                  1.5225         0.383948   
     14. B(C  13,C   8)                  1.5222         0.384365   
     15. B(C  14,C   8)                  1.5221         0.384555   
     16. B(C  15,C   7)                  1.5217         0.385083   
     17. B(H  16,C  12)                  1.1014         0.345305   
     18. B(H  17,C  13)                  1.1015         0.345170   
     19. B(H  18,C  14)                  1.1014         0.345320   
     20. B(H  19,C  15)                  1.1013         0.345414   
     21. B(H  20,C  12)                  1.0999         0.347206   
     22. B(H  21,C  13)                  1.0998         0.347344   
     23. B(H  22,C  14)                  1.0999         0.347226   
     24. B(H  23,C  15)                  1.0998         0.347314   
     25. B(H  24,C  12)                  1.0995         0.347722   
     26. B(H  25,C  13)                  1.0995         0.347773   
     27. B(H  26,C  14)                  1.0995         0.347782   
     28. B(H  27,C  15)                  1.0994         0.347840   
     29. A(C   1,C   0,H   5)          130.5717         0.360094   
     30. A(C   1,C   0,N   2)          107.0012         0.435402   
     31. A(N   2,C   0,H   5)          122.4270         0.347550   
     32. A(C   0,C   1,N   3)          107.0023         0.435386   
     33. A(N   3,C   1,H   6)          122.3610         0.347545   
     34. A(C   0,C   1,H   6)          130.6366         0.360102   
     35. A(C   4,N   2,C   7)          125.3474         0.405225   
     36. A(C   0,N   2,C   7)          126.2061         0.392846   
     37. A(C   0,N   2,C   4)          108.4427         0.432832   
     38. A(C   1,N   3,C   8)          126.2074         0.392901   
     39. A(C   1,N   3,C   4)          108.4451         0.432870   
     40. A(C   4,N   3,C   8)          125.3473         0.405346   
     41. A(N   2,C   4,H  11)          125.3893         0.357679   
     42. A(N   2,C   4,N   3)          109.1086         0.446896   
     43. A(N   3,C   4,H  11)          125.5018         0.357721   
     44. A(N   2,C   7,H   9)          104.6916         0.324414   
     45. A(H   9,C   7,C  15)          109.3082         0.323863   
     46. A(N   2,C   7,C  15)          110.0773         0.367797   
     47. A(C  12,C   7,C  15)          113.1666         0.366960   
     48. A(H   9,C   7,C  12)          109.3174         0.323707   
     49. A(N   2,C   7,C  12)          109.9307         0.367611   
     50. A(N   3,C   8,H  10)          104.6606         0.324496   
     51. A(N   3,C   8,C  14)          109.9998         0.367773   
     52. A(C  13,C   8,C  14)          113.2275         0.366942   
     53. A(H  10,C   8,C  14)          109.2995         0.323820   
     54. A(H  10,C   8,C  13)          109.2976         0.323794   
     55. A(N   3,C   8,C  13)          109.9991         0.367742   
     56. A(C   7,C  12,H  16)          110.9659         0.323544   
     57. A(H  20,C  12,H  24)          108.4782         0.287602   
     58. A(H  16,C  12,H  24)          108.0946         0.287355   
     59. A(C   7,C  12,H  24)          109.2469         0.323915   
     60. A(H  16,C  12,H  20)          108.8837         0.287289   
     61. A(C   7,C  12,H  20)          111.0893         0.323836   
     62. A(C   8,C  13,H  17)          111.0321         0.323581   
     63. A(H  17,C  13,H  25)          108.0395         0.287344   
     64. A(H  21,C  13,H  25)          108.4845         0.287626   
     65. A(C   8,C  13,H  25)          109.2645         0.323980   
     66. A(H  17,C  13,H  21)          108.8626         0.287289   
     67. A(C   8,C  13,H  21)          111.0730         0.323915   
     68. A(C   8,C  14,H  18)          111.0684         0.323631   
     69. A(H  22,C  14,H  26)          108.5182         0.287612   
     70. A(H  18,C  14,H  26)          107.9648         0.287365   
     71. A(C   8,C  14,H  26)          109.2245         0.324008   
     72. A(H  18,C  14,H  22)          108.8706         0.287293   
     73. A(C   8,C  14,H  22)          111.1068         0.323923   
     74. A(C   7,C  15,H  19)          111.1192         0.323718   
     75. A(H  23,C  15,H  27)          108.4648         0.287631   
     76. A(H  19,C  15,H  27)          107.9675         0.287385   
     77. A(C   7,C  15,H  27)          109.1396         0.324090   
     78. A(H  19,C  15,H  23)          108.8907         0.287317   
     79. A(C   7,C  15,H  23)          111.1676         0.324010   
     80. D(H   6,C   1,C   0,N   2)    179.8670         0.033906   
     81. D(H   6,C   1,C   0,H   5)     -0.1518         0.033906   
     82. D(N   3,C   1,C   0,H   5)    179.9340         0.033906   
     83. D(N   3,C   1,C   0,N   2)     -0.0472         0.033906   
     84. D(C   7,N   2,C   0,H   5)      0.7377         0.027391   
     85. D(C   7,N   2,C   0,C   1)   -179.2792         0.027391   
     86. D(C   4,N   2,C   0,H   5)   -179.9371         0.027391   
     87. D(C   4,N   2,C   0,C   1)      0.0460         0.027391   
     88. D(C   8,N   3,C   1,C   0)    179.8887         0.027379   
     89. D(C   4,N   3,C   1,H   6)   -179.8907         0.027379   
     90. D(C   8,N   3,C   1,H   6)     -0.0343         0.027379   
     91. D(C   4,N   3,C   1,C   0)      0.0322         0.027379   
     92. D(H  11,C   4,N   2,C   0)    179.7920         0.040144   
     93. D(N   3,C   4,N   2,C   7)    179.3061         0.040144   
     94. D(N   3,C   4,N   2,C   0)     -0.0263         0.040144   
     95. D(H  11,C   4,N   3,C   8)      0.3204         0.040205   
     96. D(H  11,C   4,N   3,C   1)   -179.8216         0.040205   
     97. D(N   2,C   4,N   3,C   8)   -179.8616         0.040205   
     98. D(N   2,C   4,N   3,C   1)     -0.0036         0.040205   
     99. D(H  11,C   4,N   2,C   7)     -0.8756         0.040144   
    100. D(C  15,C   7,N   2,C   4)    120.4188         0.013900   
    101. D(C  15,C   7,N   2,C   0)    -60.3660         0.013900   
    102. D(C  12,C   7,N   2,C   4)   -114.2658         0.013900   
    103. D(C  12,C   7,N   2,C   0)     64.9494         0.013900   
    104. D(H   9,C   7,N   2,C   4)      3.0465         0.013900   
    105. D(H   9,C   7,N   2,C   0)   -177.7384         0.013900   
    106. D(C  13,C   8,N   3,C   4)    115.2814         0.013927   
    107. D(H  10,C   8,N   3,C   4)     -2.0240         0.013927   
    108. D(H  10,C   8,N   3,C   1)    178.1430         0.013927   
    109. D(C  14,C   8,N   3,C   1)     60.8351         0.013927   
    110. D(C  13,C   8,N   3,C   1)    -64.5517         0.013927   
    111. D(C  14,C   8,N   3,C   4)   -119.3319         0.013927   
    112. D(H  24,C  12,C   7,C  15)    -60.5223         0.011737   
    113. D(H  24,C  12,C   7,H   9)     61.5577         0.011737   
    114. D(H  24,C  12,C   7,N   2)    175.9495         0.011737   
    115. D(H  20,C  12,C   7,C  15)    179.8436         0.011737   
    116. D(H  20,C  12,C   7,H   9)    -58.0764         0.011737   
    117. D(H  20,C  12,C   7,N   2)     56.3154         0.011737   
    118. D(H  16,C  12,C   7,C  15)     58.5616         0.011737   
    119. D(H  16,C  12,C   7,H   9)   -179.3584         0.011737   
    120. D(H  16,C  12,C   7,N   2)    -64.9666         0.011737   
    121. D(H  25,C  13,C   8,C  14)     60.4707         0.011761   
    122. D(H  25,C  13,C   8,H  10)    -61.6255         0.011761   
    123. D(H  25,C  13,C   8,N   3)   -176.0067         0.011761   
    124. D(H  21,C  13,C   8,C  14)   -179.8862         0.011761   
    125. D(H  21,C  13,C   8,H  10)     58.0176         0.011761   
    126. D(H  21,C  13,C   8,N   3)    -56.3636         0.011761   
    127. D(H  17,C  13,C   8,C  14)    -58.5968         0.011761   
    128. D(H  17,C  13,C   8,H  10)    179.3070         0.011761   
    129. D(H  17,C  13,C   8,N   3)     64.9258         0.011761   
    130. D(H  26,C  14,C   8,H  10)     61.0529         0.011772   
    131. D(H  26,C  14,C   8,N   3)    175.4356         0.011772   
    132. D(H  22,C  14,C   8,C  13)    179.2776         0.011772   
    133. D(H  22,C  14,C   8,H  10)    -58.6273         0.011772   
    134. D(H  22,C  14,C   8,N   3)     55.7554         0.011772   
    135. D(H  18,C  14,C   8,C  13)     57.9300         0.011772   
    136. D(H  18,C  14,C   8,H  10)   -179.9749         0.011772   
    137. D(H  26,C  14,C   8,C  13)    -61.0422         0.011772   
    138. D(H  18,C  14,C   8,N   3)    -65.5922         0.011772   
    139. D(H  23,C  15,C   7,N   2)    -55.5037         0.011803   
    140. D(H  19,C  15,C   7,C  12)    -57.5012         0.011803   
    141. D(H  19,C  15,C   7,H   9)   -179.5864         0.011803   
    142. D(H  19,C  15,C   7,N   2)     65.9463         0.011803   
    143. D(H  27,C  15,C   7,C  12)     61.4516         0.011803   
    144. D(H  27,C  15,C   7,H   9)    -60.6336         0.011803   
    145. D(H  27,C  15,C   7,N   2)   -175.1009         0.011803   
    146. D(H  23,C  15,C   7,C  12)   -178.9512         0.011803   
    147. D(H  23,C  15,C   7,H   9)     58.9636         0.011803   
    -----------------------------------------------------------------

Number of atoms                         .... 28
Number of degrees of freedom            .... 147

         *************************************************************
         *                GEOMETRY OPTIMIZATION CYCLE   1            *
         *************************************************************
---------------------------------
CARTESIAN COORDINATES (ANGSTROEM)
---------------------------------
  C      1.253015   -0.198578   -0.585770
  C      0.269589   -1.119170   -0.781927
  N      0.702982    0.827807    0.151649
  N     -0.862504   -0.638381   -0.159720
  C     -0.572018    0.535621    0.393942
  H      2.292199   -0.192804   -0.909670
  H      0.284097   -2.070071   -1.311411
  C      1.397421    2.057505    0.590973
  C     -2.182254   -1.303648   -0.111854
  H      0.648379    2.604577    1.183378
  H     -2.809513   -0.634603    0.496329
  H     -1.266152    1.158273    0.958979
  C      1.789779    2.892797   -0.620012
  C     -2.766027   -1.403662   -1.514155
  C     -2.060971   -2.651218    0.585411
  C      2.579443    1.700527    1.480403
  H      2.531700    2.364613   -1.239448
  H     -2.151791   -2.058529   -2.152297
  H     -1.437007   -3.345042    0.000281
  H      3.352229    1.157191    0.914254
  H      0.911950    3.128522   -1.239436
  H     -2.835882   -0.412214   -1.985058
  H     -1.624407   -2.540117    1.588840
  H      2.262385    1.082681    2.333275
  H      2.239303    3.836543   -0.279102
  H     -3.776055   -1.834253   -1.456753
  H     -3.060628   -3.097552    0.686977
  H      3.030507    2.624924    1.868701

----------------------------
CARTESIAN COORDINATES (A.U.)
----------------------------
  NO LB      ZA    FRAG     MASS         X           Y           Z
   0 C     6.0000    0    12.011    2.367855   -0.375258   -1.106945
   1 C     6.0000    0    12.011    0.509449   -2.114925   -1.477628
   2 N     7.0000    0    14.007    1.328443    1.564329    0.286575
   3 N     7.0000    0    14.007   -1.629896   -1.206365   -0.301827
   4 C     6.0000    0    12.011   -1.080957    1.012177    0.744442
   5 H     1.0000    0     1.008    4.331628   -0.364347   -1.719027
   6 H     1.0000    0     1.008    0.536866   -3.911867   -2.478208
   7 C     6.0000    0    12.011    2.640743    3.888121    1.116777
   8 C     6.0000    0    12.011   -4.123862   -2.463538   -0.211373
   9 H     1.0000    0     1.008    1.225259    4.921937    2.236260
  10 H     1.0000    0     1.008   -5.309210   -1.199226    0.937926
  11 H     1.0000    0     1.008   -2.392681    2.188819    1.812208
  12 C     6.0000    0    12.011    3.382192    5.466594   -1.171653
  13 C     6.0000    0    12.011   -5.227034   -2.652537   -2.861338
  14 C     6.0000    0    12.011   -3.894671   -5.010076    1.106266
  15 C     6.0000    0    12.011    4.874441    3.213530    2.797556
  16 H     1.0000    0     1.008    4.784220    4.468471   -2.342217
  17 H     1.0000    0     1.008   -4.066296   -3.890056   -4.067252
  18 H     1.0000    0     1.008   -2.715550   -6.321213    0.000531
  19 H     1.0000    0     1.008    6.334795    2.186774    1.727690
  20 H     1.0000    0     1.008    1.723336    5.912050   -2.342195
  21 H     1.0000    0     1.008   -5.359040   -0.778972   -3.751216
  22 H     1.0000    0     1.008   -3.069684   -4.800125    3.002472
  23 H     1.0000    0     1.008    4.275288    2.045971    4.409251
  24 H     1.0000    0     1.008    4.231669    7.250016   -0.527426
  25 H     1.0000    0     1.008   -7.135710   -3.466236   -2.752864
  26 H     1.0000    0     1.008   -5.783749   -5.853525    1.298198
  27 H     1.0000    0     1.008    5.726828    4.960387    3.531333

--------------------------------
INTERNAL COORDINATES (ANGSTROEM)
--------------------------------
 C      0   0   0     0.000000000000     0.00000000     0.00000000
 C      1   0   0     1.361283914762     0.00000000     0.00000000
 N      1   2   0     1.378328426347   107.00124577     0.00000000
 N      2   1   3     1.378380997409   107.00230060   359.95277398
 C      4   2   1     1.330114439604   108.44512980     0.03220274
 H      1   2   3     1.088507204814   130.57173267   179.98123668
 H      2   1   3     1.088474391119   130.63664704   179.86698768
 C      3   1   2     1.478988936031   126.20613854   180.72079591
 C      4   2   1     1.478719512871   126.20744837   179.88867287
 H      8   3   1     1.100588649302   104.69164735   182.26163398
 H      9   4   2     1.100437016187   104.66062759   178.14295676
 H      5   4   2     1.090313869686   125.50184677   180.17839603
 C      8   3   1     1.522544644880   109.93071792    64.94935467
 C      9   4   2     1.522248931787   109.99912407   295.44829315
 C      9   4   2     1.522114631430   109.99982643    60.83506618
 C      8   3   1     1.521740788002   110.07727086   299.63396817
 H     13   8   3     1.101420022604   110.96594444   295.03342626
 H     14   9   4     1.101527059835   111.03213305    64.92581477
 H     15   9   4     1.101408159209   111.06843726   294.40779710
 H     16   8   3     1.101334145885   111.11921235    65.94632026
 H     13   8   3     1.099925506860   111.08927929    56.31543534
 H     14   9   4     1.099817481739   111.07297932   303.63639383
 H     15   9   4     1.099909685537   111.10677824    55.75538419
 H     16   8   3     1.099840944621   111.16756733   304.49631739
 H     13   8   3     1.099521699282   109.24693374   175.94954040
 H     14   9   4     1.099481768684   109.26447052   183.99329784
 H     15   9   4     1.099474333289   109.22452529   175.43557577
 H     16   8   3     1.099428889246   109.13956391   184.89914394

---------------------------
INTERNAL COORDINATES (A.U.)
---------------------------
 C      0   0   0     0.000000000000     0.00000000     0.00000000
 C      1   0   0     2.572453789412     0.00000000     0.00000000
 N      1   2   0     2.604663248394   107.00124577     0.00000000
 N      2   1   3     2.604762593305   107.00230060   359.95277398
 C      4   2   1     2.513552017626   108.44512980     0.03220274
 H      1   2   3     2.056980511899   130.57173267   179.98123668
 H      2   1   3     2.056918503001   130.63664704   179.86698768
 C      3   1   2     2.794884044197   126.20613854   180.72079591
 C      4   2   1     2.794374908211   126.20744837   179.88867287
 H      8   3   1     2.079811133284   104.69164735   182.26163398
 H      9   4   2     2.079524588223   104.66062759   178.14295676
 H      5   4   2     2.060394613722   125.50184677   180.17839603
 C      8   3   1     2.877192405492   109.93071792    64.94935467
 C      9   4   2     2.876633588731   109.99912407   295.44829315
 C      9   4   2     2.876379797838   109.99982643    60.83506618
 C      8   3   1     2.875673336141   110.07727086   299.63396817
 H     13   8   3     2.081382201139   110.96594444   295.03342626
 H     14   9   4     2.081584472192   111.03213305    64.92581477
 H     15   9   4     2.081359782571   111.06843726   294.40779710
 H     16   8   3     2.081219917659   111.11921235    65.94632026
 H     13   8   3     2.078557975681   111.08927929    56.31543534
 H     14   9   4     2.078353837785   111.07297932   303.63639383
 H     15   9   4     2.078528077712   111.10677824    55.75538419
 H     16   8   3     2.078398176206   111.16756733   304.49631739
 H     13   8   3     2.077794889947   109.24693374   175.94954040
 H     14   9   4     2.077719432053   109.26447052   183.99329784
 H     15   9   4     2.077705381192   109.22452529   175.43557577
 H     16   8   3     2.077619504396   109.13956391   184.89914394

---------------------
BASIS SET INFORMATION
---------------------
There are 3 groups of distinct atoms

 Group   1 Type C   : 11s6p2d1f contracted to 5s3p2d1f pattern {62111/411/11/1}
 Group   2 Type N   : 11s6p2d1f contracted to 5s3p2d1f pattern {62111/411/11/1}
 Group   3 Type H   : 5s1p contracted to 3s1p pattern {311/1}

Atom   0C    basis set group =>   1
Atom   1C    basis set group =>   1
Atom   2N    basis set group =>   2
Atom   3N    basis set group =>   2
Atom   4C    basis set group =>   1
Atom   5H    basis set group =>   3
Atom   6H    basis set group =>   3
Atom   7C    basis set group =>   1
Atom   8C    basis set group =>   1
Atom   9H    basis set group =>   3
Atom  10H    basis set group =>   3
Atom  11H    basis set group =>   3
Atom  12C    basis set group =>   1
Atom  13C    basis set group =>   1
Atom  14C    basis set group =>   1
Atom  15C    basis set group =>   1
Atom  16H    basis set group =>   3
Atom  17H    basis set group =>   3
Atom  18H    basis set group =>   3
Atom  19H    basis set group =>   3
Atom  20H    basis set group =>   3
Atom  21H    basis set group =>   3
Atom  22H    basis set group =>   3
Atom  23H    basis set group =>   3
Atom  24H    basis set group =>   3
Atom  25H    basis set group =>   3
Atom  26H    basis set group =>   3
Atom  27H    basis set group =>   3
---------------------------------
AUXILIARY/J BASIS SET INFORMATION
---------------------------------
There are 3 groups of distinct atoms

 Group   1 Type C   : 12s5p4d2f1g contracted to 6s4p3d1f1g pattern {711111/2111/211/2/1}
 Group   2 Type N   : 12s5p4d2f1g contracted to 6s4p3d1f1g pattern {711111/2111/211/2/1}
 Group   3 Type H   : 5s2p1d contracted to 3s1p1d pattern {311/2/1}

Atom   0C    basis set group =>   1
Atom   1C    basis set group =>   1
Atom   2N    basis set group =>   2
Atom   3N    basis set group =>   2
Atom   4C    basis set group =>   1
Atom   5H    basis set group =>   3
Atom   6H    basis set group =>   3
Atom   7C    basis set group =>   1
Atom   8C    basis set group =>   1
Atom   9H    basis set group =>   3
Atom  10H    basis set group =>   3
Atom  11H    basis set group =>   3
Atom  12C    basis set group =>   1
Atom  13C    basis set group =>   1
Atom  14C    basis set group =>   1
Atom  15C    basis set group =>   1
Atom  16H    basis set group =>   3
Atom  17H    basis set group =>   3
Atom  18H    basis set group =>   3
Atom  19H    basis set group =>   3
Atom  20H    basis set group =>   3
Atom  21H    basis set group =>   3
Atom  22H    basis set group =>   3
Atom  23H    basis set group =>   3
Atom  24H    basis set group =>   3
Atom  25H    basis set group =>   3
Atom  26H    basis set group =>   3
Atom  27H    basis set group =>   3


           ************************************************************
           *        Program running with 4 parallel MPI-processes     *
           *              working on a common directory               *
           ************************************************************
------------------------------------------------------------------------------
                           ORCA GTO INTEGRAL CALCULATION
                           -- RI-GTO INTEGRALS CHOSEN --
------------------------------------------------------------------------------
------------------------------------------------------------------------------
                   ___                                                        
                  /   \      - P O W E R E D   B Y -                         
                 /     \                                                     
                 |  |  |   _    _      __       _____    __    __             
                 |  |  |  | |  | |    /  \     |  _  \  |  |  /  |          
                  \  \/   | |  | |   /    \    | | | |  |  | /  /          
                 / \  \   | |__| |  /  /\  \   | |_| |  |  |/  /          
                |  |  |   |  __  | /  /__\  \  |    /   |      \           
                |  |  |   | |  | | |   __   |  |    \   |  |\   \          
                \     /   | |  | | |  |  |  |  | |\  \  |  | \   \       
                 \___/    |_|  |_| |__|  |__|  |_| \__\ |__|  \__/        
                                                                              
                      - O R C A' S   B I G   F R I E N D -                    
                                      &                                       
                       - I N T E G R A L  F E E D E R -                       
                                                                              
 v1 FN, 2020, v2 2021                                                         
------------------------------------------------------------------------------


Reading SHARK input file 4_prot.SHARKINP.tmp ... ok
----------------------
SHARK INTEGRAL PACKAGE
----------------------

Number of atoms                             ...     28
Number of basis functions                   ...    443
Number of shells                            ...    189
Maximum angular momentum                    ...      3
Integral batch strategy                     ... SHARK/LIBINT Hybrid
RI-J (if used) integral strategy            ... SPLIT-RIJ (Revised 2003 algorithm where possible)
Printlevel                                  ...      1
Contraction scheme used                     ... SEGMENTED contraction
Coulomb Range Separation                    ... NOT USED
Exchange Range Separation                   ... Long Range
   Mu parameter                             ...  0.300000
   Scaling (regular/separated)              ...  0.157706  0.842294
Finite Nucleus Model                        ... NOT USED
Auxiliary Coulomb fitting basis             ... AVAILABLE
   # of basis functions in Aux-J            ...    726
   # of shells in Aux-J                     ...    250
   Maximum angular momentum in Aux-J        ...      4
Auxiliary J/K fitting basis                 ... NOT available
Auxiliary Correlation fitting basis         ... NOT available
Auxiliary 'external' fitting basis          ... NOT available
Integral threshold                          ...     2.500000e-11
Primitive cut-off                           ...     2.500000e-12
Primitive pair pre-selection threshold      ...     2.500000e-12

Calculating pre-screening integrals         ... done (  0.1 sec) Dimension = 189
Organizing shell pair data                  ... done (  0.1 sec)
Shell pair information
Total number of shell pairs                 ...     17955
Shell pairs after pre-screening             ...     15029
Total number of primitive shell pairs       ...     52296
Primitive shell pairs kept                  ...     31720
          la=0 lb=0:   4624 shell pairs
          la=1 lb=0:   4439 shell pairs
          la=1 lb=1:   1102 shell pairs
          la=2 lb=0:   1968 shell pairs
          la=2 lb=1:    967 shell pairs
          la=2 lb=2:    228 shell pairs
          la=3 lb=0:    966 shell pairs
          la=3 lb=1:    465 shell pairs
          la=3 lb=2:    212 shell pairs
          la=3 lb=3:     58 shell pairs

Calculating one electron integrals          ... done (  0.0 sec)
Calculating RI/J V-Matrix + Cholesky decomp.... done (  0.1 sec)
Calculating Nuclear repulsion               ... done (  0.0 sec) ENN=    647.119547085749 Eh

SHARK setup successfully completed in   0.8 seconds

Maximum memory used throughout the entire GTOINT-calculation: 27.3 MB


           ************************************************************
           *        Program running with 4 parallel MPI-processes     *
           *              working on a common directory               *
           ************************************************************
-------------------------------------------------------------------------------
                                 ORCA SCF
-------------------------------------------------------------------------------

------------
SCF SETTINGS
------------
Hamiltonian:
 Density Functional     Method          .... DFT(GTOs)
 Exchange Functional    Exchange        .... WB97X
 Correlation Functional Correlation     .... WB97X
 Gradients option       PostSCFGGA      .... off
 Hybrid DFT is turned on
   Fraction HF Exchange ScalHFX         ....  0.157706
   Scaling of DF-GGA-X  ScalDFX         ....  0.000000
   Scaling of DF-GGA-C  ScalDFC         ....  1.000000
   Scaling of DF-LDA-C  ScalLDAC        ....  1.000000
   Perturbative correction              ....  0.000000
   Density functional embedding theory  .... OFF
 Long-range corrected/Screened/Range-Separated Hybrid DFT is turned on
   Amount of maximum screened exact exchange              ....  0.842294
   Range separation parameter mu (erf(mu*r12)/r12)        ....  0.300000
 RI-approximation to the Coulomb term is turned on
   Number of AuxJ basis functions       .... 726
   RIJ-COSX (HFX calculated with COS-X)).... on


General Settings:
 Integral files         IntName         .... 4_prot
 Hartree-Fock type      HFTyp           .... RHF
 Total Charge           Charge          ....    1
 Multiplicity           Mult            ....    1
 Number of Electrons    NEL             ....   84
 Basis Dimension        Dim             ....  443
 Nuclear Repulsion      ENuc            ....    647.1195470857 Eh

Convergence Acceleration:
 DIIS                   CNVDIIS         .... on
   Start iteration      DIISMaxIt       ....     0
   Startup error        DIISStart       ....  0.200000
   # of expansion vecs  DIISMaxEq       ....     5
   Bias factor          DIISBfac        ....   1.050
   Max. coefficient     DIISMaxC        ....  10.000
 Trust-Rad. Augm. Hess. CNVTRAH         .... auto
   Auto Start mean grad. ratio tolernc. ....  1.125000
   Auto Start start iteration           ....    20
   Auto Start num. interpolation iter.  ....    10
   Max. Number of Micro iterations      ....    16
   Max. Number of Macro iterations      .... Maxiter - #DIIS iter
   Number of Davidson start vectors     ....     2
   Converg. threshold I  (grad. norm)   ....   1.000e-05
   Converg. threshold II (energy diff.) ....   1.000e-08
   Grad. Scal. Fac. for Micro threshold ....   0.100
   Minimum threshold for Micro iter.    ....   0.010
   NR start threshold (gradient norm)   ....   0.001
   Initial trust radius                 ....   0.400
   Minimum AH scaling param. (alpha)    ....   1.000
   Maximum AH scaling param. (alpha)    .... 1000.000
   Orbital update algorithm             .... Taylor
   White noise on init. David. guess    .... on
   Maximum white noise                  ....   0.010
   Quad. conv. algorithm                .... NR
 SOSCF                  CNVSOSCF        .... on
   Start iteration      SOSCFMaxIt      ....   150
   Startup grad/error   SOSCFStart      ....  0.001000
 Level Shifting         CNVShift        .... on
   Level shift para.    LevelShift      ....    0.2500
   Turn off err/grad.   ShiftErr        ....    0.0000
 Zerner damping         CNVZerner       .... off
 Static damping         CNVDamp         .... on
   Fraction old density DampFac         ....    0.8500
   Max. Damping (<1)    DampMax         ....    0.9800
   Min. Damping (>=0)   DampMin         ....    0.0000
   Turn off err/grad.   DampErr         ....    0.0300
 Fernandez-Rico         CNVRico         .... off

SCF Procedure:
 Maximum # iterations   MaxIter         ....   125
 SCF integral mode      SCFMode         .... Direct
   Integral package                     .... SHARK and LIBINT hybrid scheme
 Reset frequency        DirectResetFreq ....    20
 Integral Threshold     Thresh          ....  2.500e-11 Eh
 Primitive CutOff       TCut            ....  2.500e-12 Eh

Convergence Tolerance:
 Convergence Check Mode ConvCheckMode   .... Total+1el-Energy
 Convergence forced     ConvForced      .... 0
 Energy Change          TolE            ....  1.000e-08 Eh
 1-El. energy change                    ....  1.000e-05 Eh
 Orbital Gradient       TolG            ....  1.000e-05
 Orbital Rotation angle TolX            ....  1.000e-05
 DIIS Error             TolErr          ....  5.000e-07


Diagonalization of the overlap matrix:
Smallest eigenvalue                        ... 6.341e-05
Time for diagonalization                   ...    0.034 sec
Threshold for overlap eigenvalues          ... 1.000e-08
Number of eigenvalues below threshold      ... 0
Time for construction of square roots      ...    0.017 sec
Total time needed                          ...    0.053 sec

Time for model grid setup =    0.215 sec

------------------------------
INITIAL GUESS: MODEL POTENTIAL
------------------------------
Loading Hartree-Fock densities                     ... done
Calculating cut-offs                               ... done
Initializing the effective Hamiltonian             ... done
Setting up the integral package (SHARK)            ... done
Starting the Coulomb interaction                   ... done (   0.4 sec)
Reading the grid                                   ... done
Mapping shells                                     ... done
Starting the XC term evaluation                    ... done (   0.3 sec)
  promolecular density results
     # of electrons  =     84.992600508
     EX              =    -64.200907149
     EC              =     -2.812810044
     EX+EC           =    -67.013717192
Transforming the Hamiltonian                       ... done (   0.0 sec)
Diagonalizing the Hamiltonian                      ... done (   0.0 sec)
Back transforming the eigenvectors                 ... done (   0.0 sec)
Now organizing SCF variables                       ... done
                      ------------------
                      INITIAL GUESS DONE (   1.0 sec)
                      ------------------
-------------------
DFT GRID GENERATION
-------------------

General Integration Accuracy     IntAcc      ... 4.388
Radial Grid Type                 RadialGrid  ... OptM3 with GC (2021)
Angular Grid (max. ang.)         AngularGrid ... 4 (Lebedev-302)
Angular grid pruning method      GridPruning ... 4 (adaptive)
Weight generation scheme         WeightScheme... Becke
Basis function cutoff            BFCut       ... 1.0000e-11
Integration weight cutoff        WCut        ... 1.0000e-14
Angular grids for H and He will be reduced by one unit
Partially contracted basis set               ... off
Rotationally invariant grid construction     ... off

Total number of grid points                  ...   120194
Total number of batches                      ...     1891
Average number of points per batch           ...       63
Average number of grid points per atom       ...     4293
Time for grid setup =    0.973 sec

--------------------
COSX GRID GENERATION
--------------------

GRIDX 1
-------
General Integration Accuracy     IntAcc      ... 3.816
Radial Grid Type                 RadialGrid  ... OptM3 with GC (2021)
Angular Grid (max. ang.)         AngularGrid ... 1 (Lebedev-50)
Angular grid pruning method      GridPruning ... 4 (adaptive)
Weight generation scheme         WeightScheme... Becke
Basis function cutoff            BFCut       ... 1.0000e-11
Integration weight cutoff        WCut        ... 1.0000e-14
Angular grids for H and He will be reduced by one unit
Partially contracted basis set               ... on
Rotationally invariant grid construction     ... off

Total number of grid points                  ...    15385
Total number of batches                      ...      257
Average number of points per batch           ...       59
Average number of grid points per atom       ...      549
UseSFitting                                  ... on

GRIDX 2
-------
General Integration Accuracy     IntAcc      ... 4.020
Radial Grid Type                 RadialGrid  ... OptM3 with GC (2021)
Angular Grid (max. ang.)         AngularGrid ... 2 (Lebedev-110)
Angular grid pruning method      GridPruning ... 4 (adaptive)
Weight generation scheme         WeightScheme... Becke
Basis function cutoff            BFCut       ... 1.0000e-11
Integration weight cutoff        WCut        ... 1.0000e-14
Angular grids for H and He will be reduced by one unit
Partially contracted basis set               ... on
Rotationally invariant grid construction     ... off

Total number of grid points                  ...    32128
Total number of batches                      ...      519
Average number of points per batch           ...       61
Average number of grid points per atom       ...     1147
UseSFitting                                  ... on

GRIDX 3
-------
General Integration Accuracy     IntAcc      ... 4.338
Radial Grid Type                 RadialGrid  ... OptM3 with GC (2021)
Angular Grid (max. ang.)         AngularGrid ... 3 (Lebedev-194)
Angular grid pruning method      GridPruning ... 4 (adaptive)
Weight generation scheme         WeightScheme... Becke
Basis function cutoff            BFCut       ... 1.0000e-11
Integration weight cutoff        WCut        ... 1.0000e-14
Angular grids for H and He will be reduced by one unit
Partially contracted basis set               ... on
Rotationally invariant grid construction     ... off

Total number of grid points                  ...    70023
Total number of batches                      ...     1106
Average number of points per batch           ...       63
Average number of grid points per atom       ...     2501
UseSFitting                                  ... on

Time for X-Grid setup             =    1.259 sec


--------------------
CPCM SOLVATION MODEL
--------------------
CPCM parameters:
  Epsilon                                         ...      80.4000
  Refrac                                          ...       1.3300
  Rsolv                                           ...       1.3000
  Surface type                                    ... GAUSSIAN VDW
  Epsilon function type                           ...         CPCM
Radii:
 Radius for C  used is    3.8550 Bohr (=   2.0400 Ang.)
 Radius for N  used is    3.5149 Bohr (=   1.8600 Ang.)
 Radius for H  used is    2.4944 Bohr (=   1.3200 Ang.)
Calculating surface                               ...        done! (  0.0s)
GEPOL surface points                              ...         1526
GEPOL Volume                                      ...    1454.2300
GEPOL Surface-area                                ...     817.6648
Calculating surface distance matrix               ...        done! (  0.0s)
Performing Cholesky decomposition & store         ...        done! (  0.1s)
Overall time for CPCM initialization              ...                 0.1s
--------------
SCF ITERATIONS
--------------
ITER       Energy         Delta-E        Max-DP      RMS-DP      [F,P]     Damp
               ***  Starting incremental Fock matrix formation  ***
  0   -462.3810097494   0.000000000000 0.01519842  0.00026309  0.1694484 0.8500
  1   -462.4321598466  -0.051150097148 0.01304122  0.00025709  0.1357040 0.8500
                               ***Turning on DIIS***
  2   -462.4706218780  -0.038462031392 0.00993944  0.00021156  0.1034746 0.8500
  3   -462.4989166862  -0.028294808180 0.00653848  0.00015800  0.0778583 0.8500
  4   -462.5205930315  -0.021676345359 0.00530545  0.00012578  0.0618082 0.8500
  5   -462.5375801469  -0.016987115402 0.00462456  0.00010527  0.0510891 0.8500
  6   -462.5513460084  -0.013765861467 0.00402329  0.00008980  0.0430076 0.8500
  7   -462.5627170241  -0.011371015702 0.00349299  0.00007754  0.0364721 0.8500
  8   -462.5722183052  -0.009501281151 0.00300849  0.00006673  0.0308759 0.8500
  9   -462.5801768795  -0.007958574283 0.01713467  0.00038041  0.0260736 0.0000
 10   -462.6231784924  -0.043001612833 0.00060607  0.00001176  0.0011956 0.0000
                      *** Initiating the SOSCF procedure ***
                           *** Shutting down DIIS ***
                      *** Re-Reading the Fockian *** 
                      *** Removing any level shift *** 
ITER      Energy       Delta-E        Grad      Rot      Max-DP    RMS-DP
 11   -462.62319300  -0.0000145112  0.000119  0.000119  0.000228  0.000006
               *** Restarting incremental Fock matrix formation ***
 12   -462.62321635  -0.0000233460  0.000045  0.000071  0.000660  0.000011
 13   -462.62321657  -0.0000002193  0.000037  0.000063  0.000186  0.000004
 14   -462.62321660  -0.0000000315  0.000020  0.000021  0.000146  0.000002
                  ***Gradient check signals convergence***
              ***Rediagonalizing the Fockian in SOSCF/NRSCF***

               *****************************************************
               *                     SUCCESS                       *
               *           SCF CONVERGED AFTER  15 CYCLES          *
               *****************************************************

Old exchange energy                            =    -21.412807921 Eh
New exchange energy                            =    -21.412818230 Eh
Exchange energy change after final integration =     -0.000010309 Eh
Total energy after final integration           =   -462.623226919 Eh
Final COS-X integration done in                =    39.800 sec

----------------
TOTAL SCF ENERGY
----------------

Total Energy       :         -462.62322692 Eh          -12588.61800 eV

Components:
Nuclear Repulsion  :          647.11954709 Eh           17609.01810 eV
Electronic Energy  :        -1109.74277400 Eh          -30197.63610 eV
One Electron Energy:        -1892.05403069 Eh          -51485.40764 eV
Two Electron Energy:          782.31125668 Eh           21287.77154 eV
Max COSX asymmetry :            0.00000095 Eh               0.00003 eV
CPCM Dielectric    :           -0.08035392 Eh              -2.18654 eV

Virial components:
Potential Energy   :         -922.77566005 Eh          -25110.00228 eV
Kinetic Energy     :          460.15243313 Eh           12521.38428 eV
Virial Ratio       :            2.00536951


DFT components:
N(Alpha)           :       42.000121337004 electrons
N(Beta)            :       42.000121337004 electrons
N(Total)           :       84.000242674009 electrons
E(XC)              :      -47.335597470244 Eh       
DFET-embed. en.    :        0.000000000000 Eh       
CPCM Solvation Model Properties:
Surface-charge          :           -1.02707911
Charge-correction       :            0.00365475 Eh               0.09945 eV
Free-energy (cav+disp)  :  This term is not implemented in the current solvation scheme

---------------
SCF CONVERGENCE
---------------

  Last Energy change         ...   -9.8150e-09  Tolerance :   1.0000e-08
  Last MAX-Density change    ...    2.1094e-15  Tolerance :   1.0000e-07
  Last RMS-Density change    ...    1.5447e-17  Tolerance :   5.0000e-09
  Last Orbital Gradient      ...    1.3988e-06  Tolerance :   1.0000e-05
  Last Orbital Rotation      ...    1.8812e-06  Tolerance :   1.0000e-05

             **** THE GBW FILE WAS UPDATED (4_prot.gbw) ****
             **** DENSITY 4_prot.scfp WAS UPDATED ****
             **** ENERGY FILE WAS UPDATED (4_prot.en.tmp) ****
             **** THE GBW FILE WAS UPDATED (4_prot.gbw) ****
             **** DENSITY 4_prot.scfp WAS UPDATED ****
----------------
ORBITAL ENERGIES
----------------

  NO   OCC          E(Eh)            E(eV) 
   0   2.0000     -14.494916      -394.4267 
   1   2.0000     -14.494893      -394.4261 
   2   2.0000     -10.365978      -282.0726 
   3   2.0000     -10.324216      -280.9362 
   4   2.0000     -10.324108      -280.9333 
   5   2.0000     -10.318427      -280.7787 
   6   2.0000     -10.317735      -280.7598 
   7   2.0000     -10.256683      -279.0985 
   8   2.0000     -10.256643      -279.0974 
   9   2.0000     -10.256595      -279.0961 
  10   2.0000     -10.256486      -279.0932 
  11   2.0000      -1.218478       -33.1565 
  12   2.0000      -1.100423       -29.9440 
  13   2.0000      -0.968218       -26.3465 
  14   2.0000      -0.924340       -25.1526 
  15   2.0000      -0.918395       -24.9908 
  16   2.0000      -0.827905       -22.5285 
  17   2.0000      -0.827386       -22.5143 
  18   2.0000      -0.796021       -21.6608 
  19   2.0000      -0.790570       -21.5125 
  20   2.0000      -0.735582       -20.0162 
  21   2.0000      -0.711165       -19.3518 
  22   2.0000      -0.666669       -18.1410 
  23   2.0000      -0.624675       -16.9983 
  24   2.0000      -0.616795       -16.7838 
  25   2.0000      -0.583799       -15.8860 
  26   2.0000      -0.582776       -15.8581 
  27   2.0000      -0.571771       -15.5587 
  28   2.0000      -0.560921       -15.2634 
  29   2.0000      -0.554905       -15.0997 
  30   2.0000      -0.554391       -15.0858 
  31   2.0000      -0.517742       -14.0885 
  32   2.0000      -0.503429       -13.6990 
  33   2.0000      -0.501379       -13.6432 
  34   2.0000      -0.496781       -13.5181 
  35   2.0000      -0.487684       -13.2706 
  36   2.0000      -0.471476       -12.8295 
  37   2.0000      -0.462156       -12.5759 
  38   2.0000      -0.459392       -12.5007 
  39   2.0000      -0.454091       -12.3564 
  40   2.0000      -0.410902       -11.1812 
  41   2.0000      -0.373119       -10.1531 
  42   0.0000       0.059863         1.6290 
  43   0.0000       0.088161         2.3990 
  44   0.0000       0.114441         3.1141 
  45   0.0000       0.124043         3.3754 
  46   0.0000       0.144289         3.9263 
  47   0.0000       0.145441         3.9576 
  48   0.0000       0.147773         4.0211 
  49   0.0000       0.158231         4.3057 
  50   0.0000       0.170525         4.6402 
  51   0.0000       0.173736         4.7276 
  52   0.0000       0.182302         4.9607 
  53   0.0000       0.190256         5.1771 
  54   0.0000       0.193760         5.2725 
  55   0.0000       0.201262         5.4766 
  56   0.0000       0.205833         5.6010 
  57   0.0000       0.211574         5.7572 
  58   0.0000       0.220318         5.9952 
  59   0.0000       0.229997         6.2585 
  60   0.0000       0.234562         6.3828 
  61   0.0000       0.236581         6.4377 
  62   0.0000       0.239899         6.5280 
  63   0.0000       0.240188         6.5359 
  64   0.0000       0.243620         6.6292 
  65   0.0000       0.255538         6.9535 
  66   0.0000       0.257276         7.0008 
  67   0.0000       0.270641         7.3645 
  68   0.0000       0.274839         7.4787 
  69   0.0000       0.283476         7.7138 
  70   0.0000       0.287178         7.8145 
  71   0.0000       0.301110         8.1936 
  72   0.0000       0.308685         8.3998 
  73   0.0000       0.310149         8.4396 
  74   0.0000       0.318617         8.6700 
  75   0.0000       0.320999         8.7348 
  76   0.0000       0.345761         9.4086 
  77   0.0000       0.346302         9.4233 
  78   0.0000       0.356626         9.7043 
  79   0.0000       0.368359        10.0236 
  80   0.0000       0.370302        10.0764 
  81   0.0000       0.400485        10.8978 
  82   0.0000       0.402732        10.9589 
  83   0.0000       0.407630        11.0922 
  84   0.0000       0.419749        11.4220 
  85   0.0000       0.429911        11.6985 
  86   0.0000       0.448137        12.1944 
  87   0.0000       0.453627        12.3438 
  88   0.0000       0.460506        12.5310 
  89   0.0000       0.464525        12.6404 
  90   0.0000       0.467965        12.7340 
  91   0.0000       0.470455        12.8017 
  92   0.0000       0.484383        13.1807 
  93   0.0000       0.496157        13.5011 
  94   0.0000       0.499095        13.5811 
  95   0.0000       0.502979        13.6868 
  96   0.0000       0.511646        13.9226 
  97   0.0000       0.517092        14.0708 
  98   0.0000       0.519643        14.1402 
  99   0.0000       0.520053        14.1514 
 100   0.0000       0.526193        14.3184 
 101   0.0000       0.535705        14.5773 
 102   0.0000       0.540515        14.7082 
 103   0.0000       0.551963        15.0197 
 104   0.0000       0.561367        15.2756 
 105   0.0000       0.562563        15.3081 
 106   0.0000       0.564977        15.3738 
 107   0.0000       0.567741        15.4490 
 108   0.0000       0.579179        15.7603 
 109   0.0000       0.582753        15.8575 
 110   0.0000       0.583448        15.8764 
 111   0.0000       0.586274        15.9533 
 112   0.0000       0.593438        16.1483 
 113   0.0000       0.596438        16.2299 
 114   0.0000       0.606726        16.5099 
 115   0.0000       0.624371        16.9900 
 116   0.0000       0.634778        17.2732 
 117   0.0000       0.666442        18.1348 
 118   0.0000       0.671028        18.2596 
 119   0.0000       0.676725        18.4146 
 120   0.0000       0.686487        18.6803 
 121   0.0000       0.691046        18.8043 
 122   0.0000       0.715769        19.4771 
 123   0.0000       0.719096        19.5676 
 124   0.0000       0.720797        19.6139 
 125   0.0000       0.726910        19.7802 
 126   0.0000       0.743195        20.2234 
 127   0.0000       0.770264        20.9599 
 128   0.0000       0.788958        21.4686 
 129   0.0000       0.811921        22.0935 
 130   0.0000       0.818664        22.2770 
 131   0.0000       0.828337        22.5402 
 132   0.0000       0.844000        22.9664 
 133   0.0000       0.847607        23.0646 
 134   0.0000       0.869166        23.6512 
 135   0.0000       0.885051        24.0835 
 136   0.0000       0.904366        24.6091 
 137   0.0000       0.914318        24.8799 
 138   0.0000       0.925904        25.1951 
 139   0.0000       0.939923        25.5766 
 140   0.0000       0.943401        25.6712 
 141   0.0000       0.958603        26.0849 
 142   0.0000       0.964703        26.2509 
 143   0.0000       0.984141        26.7798 
 144   0.0000       1.013968        27.5915 
 145   0.0000       1.026970        27.9453 
 146   0.0000       1.040342        28.3091 
 147   0.0000       1.042445        28.3664 
 148   0.0000       1.056075        28.7373 
 149   0.0000       1.068297        29.0698 
 150   0.0000       1.074949        29.2509 
 151   0.0000       1.082692        29.4615 
 152   0.0000       1.109778        30.1986 
 153   0.0000       1.127467        30.6799 
 154   0.0000       1.131561        30.7913 
 155   0.0000       1.135715        30.9044 
 156   0.0000       1.138442        30.9786 
 157   0.0000       1.159955        31.5640 
 158   0.0000       1.170436        31.8492 
 159   0.0000       1.195936        32.5431 
 160   0.0000       1.220364        33.2078 
 161   0.0000       1.243358        33.8335 
 162   0.0000       1.249488        34.0003 
 163   0.0000       1.264434        34.4070 
 164   0.0000       1.265639        34.4398 
 165   0.0000       1.266021        34.4502 
 166   0.0000       1.269443        34.5433 
 167   0.0000       1.282864        34.9085 
 168   0.0000       1.296485        35.2792 
 169   0.0000       1.304221        35.4897 
 170   0.0000       1.342322        36.5264 
 171   0.0000       1.344602        36.5885 
 172   0.0000       1.384640        37.6780 
 173   0.0000       1.389333        37.8057 
 174   0.0000       1.403328        38.1865 
 175   0.0000       1.416239        38.5378 
 176   0.0000       1.451733        39.5037 
 177   0.0000       1.476029        40.1648 
 178   0.0000       1.492347        40.6088 
 179   0.0000       1.498500        40.7763 
 180   0.0000       1.554874        42.3103 
 181   0.0000       1.577216        42.9182 
 182   0.0000       1.602166        43.5972 
 183   0.0000       1.607014        43.7291 
 184   0.0000       1.609271        43.7905 
 185   0.0000       1.631543        44.3966 
 186   0.0000       1.640516        44.6407 
 187   0.0000       1.647081        44.8194 
 188   0.0000       1.648787        44.8658 
 189   0.0000       1.651181        44.9309 
 190   0.0000       1.661297        45.2062 
 191   0.0000       1.670554        45.4581 
 192   0.0000       1.670689        45.4618 
 193   0.0000       1.683466        45.8094 
 194   0.0000       1.690827        46.0097 
 195   0.0000       1.698740        46.2251 
 196   0.0000       1.707671        46.4681 
 197   0.0000       1.708764        46.4978 
 198   0.0000       1.715406        46.6786 
 199   0.0000       1.716826        46.7172 
 200   0.0000       1.726310        46.9753 
 201   0.0000       1.734283        47.1922 
 202   0.0000       1.747354        47.5479 
 203   0.0000       1.774170        48.2776 
 204   0.0000       1.776688        48.3461 
 205   0.0000       1.784837        48.5679 
 206   0.0000       1.798163        48.9305 
 207   0.0000       1.803806        49.0841 
 208   0.0000       1.807603        49.1874 
 209   0.0000       1.819002        49.4976 
 210   0.0000       1.838663        50.0326 
 211   0.0000       1.840784        50.0903 
 212   0.0000       1.867003        50.8037 
 213   0.0000       1.894053        51.5398 
 214   0.0000       1.895352        51.5751 
 215   0.0000       1.906206        51.8705 
 216   0.0000       1.928791        52.4851 
 217   0.0000       1.968194        53.5573 
 218   0.0000       1.977199        53.8023 
 219   0.0000       2.009610        54.6843 
 220   0.0000       2.011067        54.7239 
 221   0.0000       2.014833        54.8264 
 222   0.0000       2.033019        55.3213 
 223   0.0000       2.048604        55.7453 
 224   0.0000       2.065174        56.1963 
 225   0.0000       2.099098        57.1194 
 226   0.0000       2.119921        57.6860 
 227   0.0000       2.121853        57.7386 
 228   0.0000       2.147190        58.4280 
 229   0.0000       2.161081        58.8060 
 230   0.0000       2.193648        59.6922 
 231   0.0000       2.194757        59.7224 
 232   0.0000       2.196608        59.7728 
 233   0.0000       2.218337        60.3640 
 234   0.0000       2.221701        60.4556 
 235   0.0000       2.230118        60.6846 
 236   0.0000       2.258590        61.4594 
 237   0.0000       2.294250        62.4297 
 238   0.0000       2.302473        62.6535 
 239   0.0000       2.313596        62.9562 
 240   0.0000       2.324305        63.2475 
 241   0.0000       2.349013        63.9199 
 242   0.0000       2.356168        64.1146 
 243   0.0000       2.387250        64.9604 
 244   0.0000       2.398772        65.2739 
 245   0.0000       2.404201        65.4216 
 246   0.0000       2.404693        65.4350 
 247   0.0000       2.421984        65.9055 
 248   0.0000       2.425367        65.9976 
 249   0.0000       2.431826        66.1733 
 250   0.0000       2.450682        66.6864 
 251   0.0000       2.463908        67.0463 
 252   0.0000       2.468526        67.1720 
 253   0.0000       2.473090        67.2962 
 254   0.0000       2.488725        67.7216 
 255   0.0000       2.493016        67.8384 
 256   0.0000       2.506337        68.2009 
 257   0.0000       2.510654        68.3184 
 258   0.0000       2.519700        68.5645 
 259   0.0000       2.523949        68.6802 
 260   0.0000       2.551294        69.4242 
 261   0.0000       2.562026        69.7163 
 262   0.0000       2.562270        69.7229 
 263   0.0000       2.583065        70.2888 
 264   0.0000       2.611405        71.0599 
 265   0.0000       2.626263        71.4642 
 266   0.0000       2.644638        71.9643 
 267   0.0000       2.665664        72.5364 
 268   0.0000       2.673473        72.7489 
 269   0.0000       2.677333        72.8539 
 270   0.0000       2.684746        73.0557 
 271   0.0000       2.692367        73.2630 
 272   0.0000       2.705159        73.6111 
 273   0.0000       2.721222        74.0482 
 274   0.0000       2.739305        74.5403 
 275   0.0000       2.748347        74.7863 
 276   0.0000       2.750627        74.8484 
 277   0.0000       2.759815        75.0984 
 278   0.0000       2.769236        75.3547 
 279   0.0000       2.774789        75.5059 
 280   0.0000       2.792519        75.9883 
 281   0.0000       2.818050        76.6830 
 282   0.0000       2.821123        76.7667 
 283   0.0000       2.835162        77.1487 
 284   0.0000       2.856108        77.7187 
 285   0.0000       2.857949        77.7687 
 286   0.0000       2.867966        78.0413 
 287   0.0000       2.887587        78.5752 
 288   0.0000       2.900827        78.9355 
 289   0.0000       2.917563        79.3909 
 290   0.0000       2.922626        79.5287 
 291   0.0000       2.936972        79.9191 
 292   0.0000       2.969270        80.7979 
 293   0.0000       2.974450        80.9389 
 294   0.0000       2.979487        81.0760 
 295   0.0000       2.988113        81.3107 
 296   0.0000       3.001341        81.6706 
 297   0.0000       3.018775        82.1450 
 298   0.0000       3.028046        82.3973 
 299   0.0000       3.035646        82.6041 
 300   0.0000       3.053123        83.0797 
 301   0.0000       3.092081        84.1398 
 302   0.0000       3.093819        84.1871 
 303   0.0000       3.106134        84.5222 
 304   0.0000       3.135439        85.3196 
 305   0.0000       3.141561        85.4862 
 306   0.0000       3.163658        86.0875 
 307   0.0000       3.189153        86.7813 
 308   0.0000       3.191695        86.8504 
 309   0.0000       3.203278        87.1656 
 310   0.0000       3.206280        87.2473 
 311   0.0000       3.211372        87.3859 
 312   0.0000       3.228200        87.8438 
 313   0.0000       3.245755        88.3215 
 314   0.0000       3.259206        88.6875 
 315   0.0000       3.259921        88.7070 
 316   0.0000       3.260924        88.7342 
 317   0.0000       3.264056        88.8195 
 318   0.0000       3.304175        89.9112 
 319   0.0000       3.310096        90.0723 
 320   0.0000       3.315354        90.2154 
 321   0.0000       3.325964        90.5041 
 322   0.0000       3.336722        90.7968 
 323   0.0000       3.337800        90.8262 
 324   0.0000       3.368029        91.6487 
 325   0.0000       3.374410        91.8224 
 326   0.0000       3.385856        92.1338 
 327   0.0000       3.388730        92.2120 
 328   0.0000       3.405262        92.6619 
 329   0.0000       3.418764        93.0293 
 330   0.0000       3.426613        93.2429 
 331   0.0000       3.433616        93.4334 
 332   0.0000       3.448394        93.8356 
 333   0.0000       3.452912        93.9585 
 334   0.0000       3.459371        94.1343 
 335   0.0000       3.482455        94.7624 
 336   0.0000       3.494033        95.0775 
 337   0.0000       3.495466        95.1165 
 338   0.0000       3.532578        96.1263 
 339   0.0000       3.534594        96.1812 
 340   0.0000       3.548198        96.5514 
 341   0.0000       3.562762        96.9477 
 342   0.0000       3.578005        97.3625 
 343   0.0000       3.619893        98.5023 
 344   0.0000       3.622125        98.5630 
 345   0.0000       3.623797        98.6085 
 346   0.0000       3.628628        98.7400 
 347   0.0000       3.643123        99.1344 
 348   0.0000       3.659852        99.5896 
 349   0.0000       3.660320        99.6024 
 350   0.0000       3.674478        99.9876 
 351   0.0000       3.683776       100.2406 
 352   0.0000       3.701891       100.7336 
 353   0.0000       3.717094       101.1473 
 354   0.0000       3.731988       101.5525 
 355   0.0000       3.747175       101.9658 
 356   0.0000       3.753409       102.1355 
 357   0.0000       3.778430       102.8163 
 358   0.0000       3.785491       103.0084 
 359   0.0000       3.799807       103.3980 
 360   0.0000       3.831855       104.2701 
 361   0.0000       3.895783       106.0096 
 362   0.0000       3.901932       106.1770 
 363   0.0000       3.967594       107.9637 
 364   0.0000       3.983231       108.3892 
 365   0.0000       4.026316       109.5616 
 366   0.0000       4.030103       109.6647 
 367   0.0000       4.068983       110.7227 
 368   0.0000       4.071112       110.7806 
 369   0.0000       4.079970       111.0216 
 370   0.0000       4.101918       111.6189 
 371   0.0000       4.117074       112.0313 
 372   0.0000       4.122425       112.1769 
 373   0.0000       4.125815       112.2691 
 374   0.0000       4.139152       112.6321 
 375   0.0000       4.142062       112.7112 
 376   0.0000       4.158587       113.1609 
 377   0.0000       4.183860       113.8486 
 378   0.0000       4.211106       114.5900 
 379   0.0000       4.214499       114.6823 
 380   0.0000       4.337508       118.0296 
 381   0.0000       4.346389       118.2713 
 382   0.0000       4.366239       118.8114 
 383   0.0000       4.381032       119.2139 
 384   0.0000       4.382527       119.2546 
 385   0.0000       4.429860       120.5426 
 386   0.0000       4.450389       121.1013 
 387   0.0000       4.464648       121.4892 
 388   0.0000       4.465570       121.5143 
 389   0.0000       4.470058       121.6365 
 390   0.0000       4.482369       121.9715 
 391   0.0000       4.482744       121.9817 
 392   0.0000       4.520198       123.0008 
 393   0.0000       4.540252       123.5465 
 394   0.0000       4.542262       123.6012 
 395   0.0000       4.642044       126.3164 
 396   0.0000       4.649941       126.5313 
 397   0.0000       4.660258       126.8121 
 398   0.0000       4.734658       128.8366 
 399   0.0000       4.735250       128.8527 
 400   0.0000       4.793993       130.4512 
 401   0.0000       4.815742       131.0430 
 402   0.0000       4.829612       131.4204 
 403   0.0000       4.872212       132.5796 
 404   0.0000       4.893361       133.1551 
 405   0.0000       4.910606       133.6244 
 406   0.0000       4.940552       134.4393 
 407   0.0000       4.976246       135.4105 
 408   0.0000       5.029191       136.8512 
 409   0.0000       5.035517       137.0234 
 410   0.0000       5.049493       137.4037 
 411   0.0000       5.106355       138.9510 
 412   0.0000       5.173682       140.7831 
 413   0.0000       5.181526       140.9965 
 414   0.0000       5.271671       143.4495 
 415   0.0000       5.275915       143.5649 
 416   0.0000       5.293699       144.0489 
 417   0.0000       5.328056       144.9838 
 418   0.0000       5.406135       147.1084 
 419   0.0000       5.431820       147.8073 
 420   0.0000       5.490768       149.4114 
 421   0.0000       5.527609       150.4139 
 422   0.0000       5.547241       150.9481 
 423   0.0000       5.634988       153.3358 
 424   0.0000       5.669575       154.2770 
 425   0.0000       5.808118       158.0469 
 426   0.0000       5.872619       159.8021 
 427   0.0000       5.921076       161.1207 
 428   0.0000       5.959896       162.1770 
 429   0.0000       6.122225       166.5942 
 430   0.0000       6.173812       167.9980 
 431   0.0000       6.240982       169.8257 
 432   0.0000      22.398950       609.5064 
 433   0.0000      22.402990       609.6164 
 434   0.0000      22.406055       609.6998 
 435   0.0000      22.440446       610.6356 
 436   0.0000      22.493549       612.0806 
 437   0.0000      22.713385       618.0626 
 438   0.0000      22.768774       619.5699 
 439   0.0000      22.950094       624.5038 
 440   0.0000      23.043556       627.0470 
 441   0.0000      33.078707       900.1174 
 442   0.0000      33.114721       901.0974 

                    ********************************
                    * MULLIKEN POPULATION ANALYSIS *
                    ********************************

-----------------------
MULLIKEN ATOMIC CHARGES
-----------------------
   0 C :   -0.133216
   1 C :   -0.132653
   2 N :   -0.022978
   3 N :   -0.024022
   4 C :    0.112903
   5 H :    0.249670
   6 H :    0.249712
   7 C :   -0.039059
   8 C :   -0.036854
   9 H :    0.145176
  10 H :    0.144642
  11 H :    0.268232
  12 C :   -0.389326
  13 C :   -0.389838
  14 C :   -0.391546
  15 C :   -0.391299
  16 H :    0.143309
  17 H :    0.143255
  18 H :    0.143160
  19 H :    0.143015
  20 H :    0.148104
  21 H :    0.148232
  22 H :    0.148628
  23 H :    0.149071
  24 H :    0.153066
  25 H :    0.152946
  26 H :    0.153750
  27 H :    0.153921
Sum of atomic charges:    1.0000000

--------------------------------
MULLIKEN REDUCED ORBITAL CHARGES
--------------------------------
  0 C s       :     3.178121  s :     3.178121
      pz      :     0.948726  p :     2.843586
      px      :     1.047681
      py      :     0.847179
      dz2     :     0.018208  d :     0.099992
      dxz     :     0.013740
      dyz     :     0.017431
      dx2y2   :     0.031068
      dxy     :     0.019545
      f0      :     0.001305  f :     0.011516
      f+1     :     0.001122
      f-1     :     0.001962
      f+2     :     0.001444
      f-2     :     0.001968
      f+3     :     0.002006
      f-3     :     0.001709
  1 C s       :     3.177723  s :     3.177723
      pz      :     0.987634  p :     2.843504
      px      :     0.809507
      py      :     1.046362
      dz2     :     0.012148  d :     0.099918
      dxz     :     0.023508
      dyz     :     0.012947
      dx2y2   :     0.029168
      dxy     :     0.022147
      f0      :     0.001208  f :     0.011508
      f+1     :     0.001873
      f-1     :     0.001074
      f+2     :     0.001602
      f-2     :     0.002080
      f+3     :     0.002023
      f-3     :     0.001648
  2 N s       :     3.472804  s :     3.472804
      pz      :     1.287919  p :     3.445893
      px      :     1.064068
      py      :     1.093905
      dz2     :     0.014988  d :     0.098648
      dxz     :     0.017952
      dyz     :     0.015074
      dx2y2   :     0.024077
      dxy     :     0.026557
      f0      :     0.000698  f :     0.005633
      f+1     :     0.000590
      f-1     :     0.000881
      f+2     :     0.000928
      f-2     :     0.000683
      f+3     :     0.000792
      f-3     :     0.001061
  3 N s       :     3.473443  s :     3.473443
      pz      :     1.289059  p :     3.446223
      px      :     1.045848
      py      :     1.111316
      dz2     :     0.016792  d :     0.098719
      dxz     :     0.017640
      dyz     :     0.012745
      dx2y2   :     0.025389
      dxy     :     0.026153
      f0      :     0.000545  f :     0.005637
      f+1     :     0.000796
      f-1     :     0.000895
      f+2     :     0.000747
      f-2     :     0.000774
      f+3     :     0.001062
      f-3     :     0.000818
  4 C s       :     3.110467  s :     3.110467
      pz      :     0.930467  p :     2.626952
      px      :     0.845266
      py      :     0.851219
      dz2     :     0.013301  d :     0.133869
      dxz     :     0.030632
      dyz     :     0.019638
      dx2y2   :     0.033623
      dxy     :     0.036676
      f0      :     0.001359  f :     0.015810
      f+1     :     0.001407
      f-1     :     0.002659
      f+2     :     0.002670
      f-2     :     0.001899
      f+3     :     0.002731
      f-3     :     0.003084
  5 H s       :     0.728015  s :     0.728015
      pz      :     0.004922  p :     0.022315
      px      :     0.014566
      py      :     0.002826
  6 H s       :     0.727972  s :     0.727972
      pz      :     0.006864  p :     0.022316
      px      :     0.002552
      py      :     0.012900
  7 C s       :     3.187227  s :     3.187227
      pz      :     0.955192  p :     2.684647
      px      :     0.936842
      py      :     0.792612
      dz2     :     0.028895  d :     0.157113
      dxz     :     0.035976
      dyz     :     0.032805
      dx2y2   :     0.025532
      dxy     :     0.033904
      f0      :     0.001289  f :     0.010073
      f+1     :     0.001263
      f-1     :     0.001362
      f+2     :     0.001407
      f-2     :     0.002131
      f+3     :     0.001192
      f-3     :     0.001429
  8 C s       :     3.186364  s :     3.186364
      pz      :     0.978423  p :     2.683245
      px      :     0.771983
      py      :     0.932839
      dz2     :     0.029292  d :     0.157166
      dxz     :     0.031295
      dyz     :     0.037212
      dx2y2   :     0.024450
      dxy     :     0.034918
      f0      :     0.001732  f :     0.010079
      f+1     :     0.001060
      f-1     :     0.001633
      f+2     :     0.000934
      f-2     :     0.001495
      f+3     :     0.001910
      f-3     :     0.001315
  9 H s       :     0.832248  s :     0.832248
      pz      :     0.007381  p :     0.022577
      px      :     0.008673
      py      :     0.006523
 10 H s       :     0.832771  s :     0.832771
      pz      :     0.007491  p :     0.022588
      px      :     0.007416
      py      :     0.007681
 11 H s       :     0.710385  s :     0.710385
      pz      :     0.006893  p :     0.021383
      px      :     0.007675
      py      :     0.006814
 12 C s       :     3.300558  s :     3.300558
      pz      :     0.959191  p :     3.037816
      px      :     1.064349
      py      :     1.014276
      dz2     :     0.007639  d :     0.048035
      dxz     :     0.017246
      dyz     :     0.008675
      dx2y2   :     0.006639
      dxy     :     0.007836
      f0      :     0.000299  f :     0.002917
      f+1     :     0.000260
      f-1     :     0.000400
      f+2     :     0.000812
      f-2     :     0.000967
      f+3     :     0.000156
      f-3     :     0.000023
 13 C s       :     3.300755  s :     3.300755
      pz      :     0.914653  p :     3.038121
      px      :     1.044896
      py      :     1.078571
      dz2     :     0.010002  d :     0.048039
      dxz     :     0.009176
      dyz     :     0.016791
      dx2y2   :     0.006473
      dxy     :     0.005596
      f0      :     0.000732  f :     0.002923
      f+1     :     0.000613
      f-1     :     0.000526
      f+2     :     0.000336
      f-2     :     0.000366
[...]
     31      -0.002369  -0.000802  -0.033736   0.003953   0.000595   0.001072
     32      -0.003573  -0.000742  -0.031676   0.004217   0.000046   0.000237
     33      -0.000022   0.000647  -0.000860  -0.628576  -0.020554   0.062688
     34       0.000024  -0.000874   0.000538   0.565338   0.018793  -0.056358
     35       0.000044  -0.000720   0.000575   0.514930   0.017004  -0.051357
     36      -0.000508  -0.032489   0.001578   0.000096  -0.000478   0.000360
     37      -0.000411  -0.036351   0.001954   0.000011   0.000374  -0.000339
     38      -0.000435  -0.033849   0.001744  -0.000048   0.000262  -0.000211
     39      -0.038915  -0.002506  -0.050306  -0.000031   0.000306   0.000356
     40      -0.043382  -0.002397  -0.043376  -0.000063  -0.000365  -0.000341
     41       0.018315   0.001154   0.022407  -0.000045  -0.000212  -0.000200
     42       0.060495  -0.002797  -0.056162  -0.000024   0.000440   0.000479
     43       0.021488  -0.000828  -0.015449  -0.000086  -0.000459  -0.000423
     44       0.029530  -0.001033  -0.017680  -0.000032  -0.000582  -0.000582
     45       0.000298  -0.023749   0.001121   0.000105  -0.000469   0.000347
     46       0.000658  -0.067167   0.003389   0.000024   0.000271  -0.000248
     47      -0.000127   0.002543   0.000005  -0.000022   0.000454  -0.000372
     48      -0.000669  -0.088086   0.005124  -0.001141   0.005024  -0.003937
     49       0.000362   0.054595  -0.003238   0.000544  -0.003397   0.002741
     50       0.000401   0.063053  -0.003752   0.001112  -0.004095   0.003140
     51       0.023951   0.002610   0.064295  -0.000385  -0.003130  -0.003109
     52      -0.038640  -0.003562  -0.083285   0.000591   0.003415   0.003313
     53      -0.027244  -0.002843  -0.069285   0.000821   0.003297   0.003082
     54      -0.014527   0.002087   0.053564  -0.000734  -0.005620  -0.005522
     55       0.029579  -0.002877  -0.070288   0.001083   0.006127   0.005908
     56       0.027632  -0.002552  -0.061637   0.000584   0.005615   0.005637
     57       0.000387  -0.096229   0.005588  -0.001381   0.005597  -0.004241
     58      -0.000133   0.055844  -0.003359   0.000882  -0.004202   0.003246
     59      -0.000288   0.070387  -0.004097   0.000690  -0.004565   0.003639
     60       0.003917   0.259694  -0.012664   0.000003   0.001526  -0.001132
     61      -0.001133  -0.075084   0.003686  -0.000023  -0.000451   0.000318
     62       0.002734   0.180104  -0.008763  -0.000047   0.001157  -0.000837
     63      -0.030667  -0.001684  -0.031182   0.000043  -0.000130  -0.000110
     64       0.360887   0.019968   0.362335  -0.000056   0.001443   0.001365
     65      -0.170061  -0.009387  -0.170031  -0.000010  -0.000733  -0.000670
     66      -0.180214   0.007116   0.131783   0.000069   0.000936   0.000899
     67      -0.046704   0.001866   0.034850   0.000015   0.000125   0.000121
     68      -0.437414   0.017283   0.321870   0.000044   0.001974   0.001845
     69      -0.001402   0.119122  -0.005663  -0.000053   0.000491  -0.000358
     70      -0.002662   0.223082  -0.010563  -0.000124   0.001149  -0.000878
     71       0.003831  -0.322971   0.015352   0.000105  -0.001500   0.001100
     72       0.002691   0.217704  -0.011506   0.000280  -0.000231   0.000381
     73       0.005711   0.457445  -0.024122   0.000688  -0.000841   0.000999
     74       0.002040   0.163338  -0.008560  -0.000062  -0.000580   0.000578
     75       0.470572   0.028918   0.570780  -0.000561  -0.000751  -0.001142
     76       0.197310   0.012159   0.240606  -0.000182  -0.000173  -0.000375
     77      -0.025969  -0.001593  -0.030313  -0.000279   0.000314   0.000336
     78      -0.529612   0.024152   0.489044  -0.000415  -0.001346  -0.001668
     79      -0.236558   0.010802   0.220159  -0.000497  -0.000291  -0.000443
     80       0.053666  -0.002406  -0.048758   0.000218   0.000106   0.000116
     81      -0.002464   0.261031  -0.013435   0.000466  -0.000137   0.000275
     82      -0.005026   0.527292  -0.027003   0.000395  -0.001111   0.001164
     83      -0.002136   0.222297  -0.011401   0.000419  -0.000357   0.000391


-----------
IR SPECTRUM
-----------

 Mode   freq       eps      Int      T**2         TX        TY        TZ
       cm**-1   L/(mol*cm) km/mol    a.u.
----------------------------------------------------------------------------
  6:     39.51   0.000011    0.06  0.000090  (-0.002798  0.004250 -0.007979)
  7:     50.66   0.000002    0.01  0.000010  ( 0.001181 -0.002217  0.002036)
  8:    119.63   0.000066    0.33  0.000172  (-0.004783  0.006366 -0.010420)
  9:    151.15   0.000001    0.00  0.000002  (-0.001041  0.000529 -0.000470)
 10:    156.87   0.000058    0.29  0.000115  (-0.005974  0.006707  0.005898)
 11:    227.31   0.000006    0.03  0.000008  ( 0.002653 -0.000012  0.000732)
 12:    245.91   0.000009    0.04  0.000011  (-0.001187 -0.003138  0.000210)
 13:    262.11   0.000036    0.18  0.000043  ( 0.006009  0.000211 -0.002560)
 14:    273.78   0.000008    0.04  0.000009  ( 0.002789  0.000722 -0.000712)
 15:    284.87   0.000021    0.11  0.000023  ( 0.001418 -0.003093 -0.003379)
 16:    301.53   0.000141    0.71  0.000146  (-0.008313 -0.008559 -0.001949)
 17:    358.66   0.000021    0.11  0.000018  ( 0.002939  0.003115  0.000076)
 18:    399.15   0.000149    0.75  0.000117  (-0.003366  0.005128 -0.008891)
 19:    443.60   0.000002    0.01  0.000002  ( 0.000337  0.000457  0.001138)
 20:    455.04   0.000143    0.72  0.000098  ( 0.006264 -0.005370 -0.005469)
 21:    553.82   0.000114    0.58  0.000064  (-0.005345 -0.005807 -0.001392)
 22:    628.99   0.000007    0.03  0.000003  ( 0.000563  0.000295 -0.001736)
 23:    672.80   0.001560    7.88  0.000723  (-0.018508 -0.019334 -0.002662)
 24:    677.64   0.013641   68.93  0.006282  ( 0.022160 -0.035965  0.067061)
 25:    686.55   0.000048    0.24  0.000022  (-0.001948  0.001653 -0.003922)
 26:    776.05   0.011546   58.35  0.004643  (-0.018018  0.031094 -0.057892)
 27:    900.64   0.007726   39.05  0.002677  (-0.014147  0.023822 -0.043698)
 28:    909.96   0.000761    3.85  0.000261  (-0.012436 -0.009393 -0.004249)
 29:    915.56   0.000691    3.49  0.000236  ( 0.008793 -0.009050 -0.008741)
 30:    920.22   0.000081    0.41  0.000028  (-0.000436  0.002590 -0.004544)
 31:    949.93   0.000434    2.20  0.000143  (-0.003363  0.005752 -0.009915)
 32:    954.65   0.000440    2.23  0.000144  (-0.002829  0.005860 -0.010079)
 33:    971.81   0.000034    0.17  0.000011  (-0.000141  0.002068 -0.002548)
 34:    972.30   0.000090    0.45  0.000029  ( 0.001953 -0.002776  0.004160)
 35:   1040.42   0.002493   12.60  0.000748  ( 0.019936  0.018465  0.003077)
 36:   1048.67   0.000138    0.70  0.000041  ( 0.003266 -0.004087 -0.003707)
 37:   1101.22   0.000068    0.34  0.000019  (-0.002376 -0.003507 -0.001122)
 38:   1114.84   0.002461   12.44  0.000689  ( 0.016767 -0.014836 -0.013701)
 39:   1135.15   0.002899   14.65  0.000797  ( 0.019936 -0.014859 -0.013373)
 40:   1170.81   0.000840    4.25  0.000224  (-0.004158  0.006779 -0.012680)
 41:   1173.86   0.003793   19.17  0.001008  (-0.007720  0.015010 -0.026897)
 42:   1182.34   0.025497  128.85  0.006730  (-0.058454 -0.056249 -0.012198)
 43:   1206.44   0.000125    0.63  0.000032  (-0.005157  0.000082  0.002393)
 44:   1223.21   0.028686  144.97  0.007318  (-0.061098 -0.058581 -0.012394)
 45:   1287.27   0.007435   37.57  0.001802  ( 0.030118  0.029254  0.006290)
 46:   1346.08   0.001627    8.22  0.000377  (-0.013510  0.010418  0.009283)
 47:   1358.46   0.000157    0.79  0.000036  ( 0.003667 -0.001725  0.004419)
 48:   1362.35   0.000257    1.30  0.000059  ( 0.000490 -0.006109  0.004616)
 49:   1375.71   0.005884   29.74  0.001335  (-0.026409 -0.024642 -0.005487)
 50:   1405.44   0.000881    4.45  0.000196  ( 0.009385 -0.008456 -0.006000)
 51:   1415.30   0.002681   13.55  0.000591  (-0.008706  0.011014 -0.019849)
 52:   1415.82   0.004956   25.05  0.001092  (-0.010027  0.012459 -0.028924)
 53:   1426.19   0.002348   11.87  0.000514  ( 0.019365  0.009983 -0.006252)
 54:   1429.11   0.001757    8.88  0.000384  ( 0.004859 -0.017352 -0.007684)
 55:   1474.19   0.000348    1.76  0.000074  (-0.007923 -0.003105  0.001080)
 56:   1474.35   0.001011    5.11  0.000214  (-0.013437 -0.005645 -0.001208)
 57:   1476.96   0.004912   24.82  0.001038  ( 0.027639  0.016525  0.000921)
 58:   1479.07   0.002544   12.86  0.000537  ( 0.001928  0.023089 -0.000128)
 59:   1479.76   0.001206    6.09  0.000254  ( 0.001441 -0.006483 -0.014497)
 60:   1485.46   0.000973    4.92  0.000204  (-0.011481  0.001673 -0.008353)
 61:   1491.02   0.004928   24.91  0.001031  (-0.013699  0.023205  0.017473)
 62:   1492.11   0.004533   22.91  0.000948  ( 0.019968 -0.013420 -0.019215)
 63:   1502.37   0.000252    1.27  0.000052  (-0.006580  0.000254  0.002997)
 64:   1508.43   0.000437    2.21  0.000090  ( 0.007186 -0.004561 -0.004231)
 65:   1629.40   0.035664  180.23  0.006830  (-0.059952 -0.055710 -0.011510)
 66:   1636.92   0.001972    9.96  0.000376  (-0.013231  0.010039  0.010000)
 67:   3072.11   0.003391   17.13  0.000344  (-0.000140  0.008716 -0.016384)
 68:   3072.60   0.003772   19.06  0.000383  ( 0.005466 -0.008138  0.016940)
 69:   3074.89   0.001843    9.31  0.000187  (-0.001747 -0.012647 -0.004900)
 70:   3075.33   0.002228   11.26  0.000226  ( 0.014303 -0.003951  0.002421)
 71:   3121.49   0.000244    1.23  0.000024  (-0.003165  0.002420  0.002911)
 72:   3122.19   0.000330    1.67  0.000033  ( 0.003423 -0.003215 -0.003305)
 73:   3153.13   0.001850    9.35  0.000183  ( 0.004513 -0.007447  0.010358)
 74:   3153.50   0.001956    9.89  0.000194  (-0.007820  0.008818 -0.007396)
 75:   3158.93   0.007426   37.53  0.000734  ( 0.014853 -0.016937 -0.015039)
 76:   3159.38   0.009648   48.76  0.000953  ( 0.020811 -0.013733 -0.018200)
 77:   3165.19   0.002121   10.72  0.000209  (-0.005004  0.004237 -0.012889)
 78:   3165.60   0.002039   10.30  0.000201  ( 0.005025 -0.005902  0.011871)
 79:   3167.54   0.007278   36.78  0.000717  (-0.012546 -0.022712 -0.006613)
 80:   3168.01   0.006162   31.14  0.000607  (-0.021959 -0.011063  0.001544)
 81:   3299.32   0.009254   46.77  0.000875  (-0.019166  0.016451  0.015404)
 82:   3302.86   0.004399   22.23  0.000416  ( 0.014854  0.013680  0.002810)
 83:   3320.16   0.002507   12.67  0.000236  (-0.008940  0.009510  0.008081)

* The epsilon (eps) is given for a Dirac delta lineshape.
** The dipole moment derivative (T) already includes vibrational overlap.

The first frequency considered to be a vibration is 6
The total number of vibrations considered is 78


--------------------------
THERMOCHEMISTRY AT 298.15K
--------------------------

Temperature         ... 298.15 K
Pressure            ... 1.00 atm
Total Mass          ... 153.25 AMU

Throughout the following assumptions are being made:
  (1) The electronic state is orbitally nondegenerate
  (2) There are no thermally accessible electronically excited states
  (3) Hindered rotations indicated by low frequency modes are not
      treated as such but are treated as vibrations and this may
      cause some error
  (4) All equations used are the standard statistical mechanics
      equations for an ideal gas
  (5) All vibrations are strictly harmonic

freq.      39.51  E(vib)   ...       0.54 
freq.      50.66  E(vib)   ...       0.52 
freq.     119.63  E(vib)   ...       0.44 
freq.     151.15  E(vib)   ...       0.40 
freq.     156.87  E(vib)   ...       0.40 
freq.     227.31  E(vib)   ...       0.33 
freq.     245.91  E(vib)   ...       0.31 
freq.     262.11  E(vib)   ...       0.29 
freq.     273.78  E(vib)   ...       0.28 
freq.     284.87  E(vib)   ...       0.28 
freq.     301.53  E(vib)   ...       0.26 
freq.     358.66  E(vib)   ...       0.22 
freq.     399.15  E(vib)   ...       0.19 
freq.     443.60  E(vib)   ...       0.17 
freq.     455.04  E(vib)   ...       0.16 
freq.     553.82  E(vib)   ...       0.12 
freq.     628.99  E(vib)   ...       0.09 
freq.     672.80  E(vib)   ...       0.08 
freq.     677.64  E(vib)   ...       0.08 
freq.     686.55  E(vib)   ...       0.07 
freq.     776.05  E(vib)   ...       0.05 
freq.     900.64  E(vib)   ...       0.03 
freq.     909.96  E(vib)   ...       0.03 
freq.     915.56  E(vib)   ...       0.03 
freq.     920.22  E(vib)   ...       0.03 
freq.     949.93  E(vib)   ...       0.03 
freq.     954.65  E(vib)   ...       0.03 
freq.     971.81  E(vib)   ...       0.03 
freq.     972.30  E(vib)   ...       0.03 
freq.    1040.42  E(vib)   ...       0.02 
freq.    1048.67  E(vib)   ...       0.02 
freq.    1101.22  E(vib)   ...       0.02 
freq.    1114.84  E(vib)   ...       0.01 
freq.    1135.15  E(vib)   ...       0.01 
freq.    1170.81  E(vib)   ...       0.01 
freq.    1173.86  E(vib)   ...       0.01 
freq.    1182.34  E(vib)   ...       0.01 
freq.    1206.44  E(vib)   ...       0.01 
freq.    1223.21  E(vib)   ...       0.01 
freq.    1287.27  E(vib)   ...       0.01 
freq.    1346.08  E(vib)   ...       0.01 
freq.    1358.46  E(vib)   ...       0.01 
freq.    1362.35  E(vib)   ...       0.01 
freq.    1375.71  E(vib)   ...       0.01 
freq.    1405.44  E(vib)   ...       0.00 
freq.    1415.30  E(vib)   ...       0.00 
freq.    1415.82  E(vib)   ...       0.00 
freq.    1426.19  E(vib)   ...       0.00 
freq.    1429.11  E(vib)   ...       0.00 
freq.    1474.19  E(vib)   ...       0.00 
freq.    1474.35  E(vib)   ...       0.00 
freq.    1476.96  E(vib)   ...       0.00 
freq.    1479.07  E(vib)   ...       0.00 
freq.    1479.76  E(vib)   ...       0.00 
freq.    1485.46  E(vib)   ...       0.00 
freq.    1491.02  E(vib)   ...       0.00 
freq.    1492.11  E(vib)   ...       0.00 
freq.    1502.37  E(vib)   ...       0.00 
freq.    1508.43  E(vib)   ...       0.00 
freq.    1629.40  E(vib)   ...       0.00 
freq.    1636.92  E(vib)   ...       0.00 
freq.    3072.11  E(vib)   ...       0.00 
freq.    3072.60  E(vib)   ...       0.00 
freq.    3074.89  E(vib)   ...       0.00 
freq.    3075.33  E(vib)   ...       0.00 
freq.    3121.49  E(vib)   ...       0.00 
freq.    3122.19  E(vib)   ...       0.00 
freq.    3153.13  E(vib)   ...       0.00 
freq.    3153.50  E(vib)   ...       0.00 
freq.    3158.93  E(vib)   ...       0.00 
freq.    3159.38  E(vib)   ...       0.00 
freq.    3165.19  E(vib)   ...       0.00 
freq.    3165.60  E(vib)   ...       0.00 
freq.    3167.54  E(vib)   ...       0.00 
freq.    3168.01  E(vib)   ...       0.00 
freq.    3299.32  E(vib)   ...       0.00 
freq.    3302.86  E(vib)   ...       0.00 
freq.    3320.16  E(vib)   ...       0.00 

------------
INNER ENERGY
------------

The inner energy is: U= E(el) + E(ZPE) + E(vib) + E(rot) + E(trans)
    E(el)   - is the total energy from the electronic structure calculation
              = E(kin-el) + E(nuc-el) + E(el-el) + E(nuc-nuc)
    E(ZPE)  - the the zero temperature vibrational energy from the frequency calculation
    E(vib)  - the the finite temperature correction to E(ZPE) due to population
              of excited vibrational states
    E(rot)  - is the rotational thermal energy
    E(trans)- is the translational thermal energy

Summary of contributions to the inner energy U:
Electronic energy                ...   -462.62843162 Eh
Zero point energy                ...      0.25597865 Eh     160.63 kcal/mol
Thermal vibrational correction   ...      0.00916227 Eh       5.75 kcal/mol
Thermal rotational correction    ...      0.00141627 Eh       0.89 kcal/mol
Thermal translational correction ...      0.00141627 Eh       0.89 kcal/mol
-----------------------------------------------------------------------
Total thermal energy                   -462.36045816 Eh


Summary of corrections to the electronic energy:
(perhaps to be used in another calculation)
Total thermal correction                  0.01199481 Eh       7.53 kcal/mol
Non-thermal (ZPE) correction              0.25597865 Eh     160.63 kcal/mol
-----------------------------------------------------------------------
Total correction                          0.26797346 Eh     168.16 kcal/mol


--------
ENTHALPY
--------

The enthalpy is H = U + kB*T
                kB is Boltzmann's constant
Total free energy                 ...   -462.36045816 Eh 
Thermal Enthalpy correction       ...      0.00094421 Eh       0.59 kcal/mol
-----------------------------------------------------------------------
Total Enthalpy                    ...   -462.35951395 Eh


Note: Only C1 symmetry has been detected, increase convergence thresholds 
      if your molecule has a higher symmetry. Symmetry factor of 1.0 is   
      used for the rotational entropy correction. 
 

Note: Rotational entropy computed according to Herzberg 
Infrared and Raman Spectra, Chapter V,1, Van Nostrand Reinhold, 1945 
Point Group:  C1, Symmetry Number:   1  
Rotational constants in cm-1:     0.090458     0.018520     0.017881 

Vibrational entropy computed according to the QRRHO of S. Grimme
Chem.Eur.J. 2012 18 9955


-------
ENTROPY
-------

The entropy contributions are T*S = T*(S(el)+S(vib)+S(rot)+S(trans))
     S(el)   - electronic entropy
     S(vib)  - vibrational entropy
     S(rot)  - rotational entropy
     S(trans)- translational entropy
The entropies will be listed as multiplied by the temperature to get
units of energy

Electronic entropy                ...      0.00000000 Eh      0.00 kcal/mol
Vibrational entropy               ...      0.01573118 Eh      9.87 kcal/mol
Rotational entropy                ...      0.01442800 Eh      9.05 kcal/mol
Translational entropy             ...      0.01947584 Eh     12.22 kcal/mol
-----------------------------------------------------------------------
Final entropy term                ...      0.04963502 Eh     31.15 kcal/mol

In case the symmetry of your molecule has not been determined correctly
or in case you have a reason to use a different symmetry number we print 
out the resulting rotational entropy values for sn=1,12 :
 --------------------------------------------------------
|  sn= 1 | S(rot)=       0.01442800 Eh      9.05 kcal/mol|
|  sn= 2 | S(rot)=       0.01377354 Eh      8.64 kcal/mol|
|  sn= 3 | S(rot)=       0.01339071 Eh      8.40 kcal/mol|
|  sn= 4 | S(rot)=       0.01311908 Eh      8.23 kcal/mol|
|  sn= 5 | S(rot)=       0.01290840 Eh      8.10 kcal/mol|
|  sn= 6 | S(rot)=       0.01273625 Eh      7.99 kcal/mol|
|  sn= 7 | S(rot)=       0.01259071 Eh      7.90 kcal/mol|
|  sn= 8 | S(rot)=       0.01246463 Eh      7.82 kcal/mol|
|  sn= 9 | S(rot)=       0.01235342 Eh      7.75 kcal/mol|
|  sn=10 | S(rot)=       0.01225394 Eh      7.69 kcal/mol|
|  sn=11 | S(rot)=       0.01216395 Eh      7.63 kcal/mol|
|  sn=12 | S(rot)=       0.01208179 Eh      7.58 kcal/mol|
 --------------------------------------------------------


-------------------
GIBBS FREE ENERGY
-------------------

The Gibbs free energy is G = H - T*S

Total enthalpy                    ...   -462.35951395 Eh 
Total entropy correction          ...     -0.04963502 Eh    -31.15 kcal/mol
-----------------------------------------------------------------------
Final Gibbs free energy         ...   -462.40914897 Eh

For completeness - the Gibbs free energy minus the electronic energy
G-E(el)                           ...      0.21928265 Eh    137.60 kcal/mol


Timings for individual modules:

Sum of individual times         ...     2949.606 sec (=  49.160 min)
GTO integral calculation        ...        3.844 sec (=   0.064 min)   0.1 %
SCF iterations                  ...      756.674 sec (=  12.611 min)  25.7 %
SCF Gradient evaluation         ...      173.253 sec (=   2.888 min)   5.9 %
Geometry relaxation             ...        0.238 sec (=   0.004 min)   0.0 %
Analytical frequency calculation...     2015.597 sec (=  33.593 min)  68.3 %
                             ****ORCA TERMINATED NORMALLY****
TOTAL RUN TIME: 0 days 0 hours 49 minutes 11 seconds 273 msec
