
                                 *****************
                                 * O   R   C   A *
                                 *****************

                                            #,                                       
                                            ###                                      
                                            ####                                     
                                            #####                                    
                                            ######                                   
                                           ########,                                 
                                     ,,################,,,,,                         
                               ,,#################################,,                 
                          ,,##########################################,,             
                       ,#########################################, ''#####,          
                    ,#############################################,,   '####,        
                  ,##################################################,,,,####,       
                ,###########''''           ''''###############################       
              ,#####''   ,,,,##########,,,,          '''####'''          '####       
            ,##' ,,,,###########################,,,                        '##       
           ' ,,###''''                  '''############,,,                           
         ,,##''                                '''############,,,,        ,,,,,,###''
      ,#''                                            '''#######################'''  
     '                                                          ''''####''''         
             ,#######,   #######,   ,#######,      ##                                
            ,#'     '#,  ##    ##  ,#'     '#,    #''#        ######   ,####,        
            ##       ##  ##   ,#'  ##            #'  '#       #        #'  '#        
            ##       ##  #######   ##           ,######,      #####,   #    #        
            '#,     ,#'  ##    ##  '#,     ,#' ,#      #,         ##   #,  ,#        
             '#######'   ##     ##  '#######'  #'      '#     #####' # '####'        



                  #######################################################
                  #                        -***-                        #
                  #          Department of theory and spectroscopy      #
                  #    Directorship and core code : Frank Neese         #
                  #        Max Planck Institute fuer Kohlenforschung    #
                  #                Kaiser Wilhelm Platz 1               #
                  #                 D-45470 Muelheim/Ruhr               #
                  #                      Germany                        #
                  #                                                     #
                  #                  All rights reserved                #
                  #                        -***-                        #
                  #######################################################


                         Program Version 5.0.4 -  RELEASE  -


 With contributions from (in alphabetic order):
   Daniel Aravena         : Magnetic Suceptibility
   Michael Atanasov       : Ab Initio Ligand Field Theory (pilot matlab implementation)
   Alexander A. Auer      : GIAO ZORA, VPT2 properties, NMR spectrum
   Ute Becker             : Parallelization
   Giovanni Bistoni       : ED, misc. LED, open-shell LED, HFLD
   Martin Brehm           : Molecular dynamics
   Dmytro Bykov           : SCF Hessian
   Vijay G. Chilkuri      : MRCI spin determinant printing, contributions to CSF-ICE
   Dipayan Datta          : RHF DLPNO-CCSD density
   Achintya Kumar Dutta   : EOM-CC, STEOM-CC
   Dmitry Ganyushin       : Spin-Orbit,Spin-Spin,Magnetic field MRCI
   Miquel Garcia          : C-PCM and meta-GGA Hessian, CC/C-PCM, Gaussian charge scheme
   Yang Guo               : DLPNO-NEVPT2, F12-NEVPT2, CIM, IAO-localization
   Andreas Hansen         : Spin unrestricted coupled pair/coupled cluster methods
   Benjamin Helmich-Paris : MC-RPA, TRAH-SCF, COSX integrals
   Lee Huntington         : MR-EOM, pCC
   Robert Izsak           : Overlap fitted RIJCOSX, COSX-SCS-MP3, EOM
   Marcus Kettner         : VPT2
   Christian Kollmar      : KDIIS, OOCD, Brueckner-CCSD(T), CCSD density, CASPT2, CASPT2-K
   Simone Kossmann        : Meta GGA functionals, TD-DFT gradient, OOMP2, MP2 Hessian
   Martin Krupicka        : Initial AUTO-CI
   Lucas Lang             : DCDCAS
   Marvin Lechner         : AUTO-CI (C++ implementation), FIC-MRCC
   Dagmar Lenk            : GEPOL surface, SMD
   Dimitrios Liakos       : Extrapolation schemes; Compound Job, initial MDCI parallelization
   Dimitrios Manganas     : Further ROCIS development; embedding schemes
   Dimitrios Pantazis     : SARC Basis sets
   Anastasios Papadopoulos: AUTO-CI, single reference methods and gradients
   Taras Petrenko         : DFT Hessian,TD-DFT gradient, ASA, ECA, R-Raman, ABS, FL, XAS/XES, NRVS
   Peter Pinski           : DLPNO-MP2, DLPNO-MP2 Gradient
   Christoph Reimann      : Effective Core Potentials
   Marius Retegan         : Local ZFS, SOC
   Christoph Riplinger    : Optimizer, TS searches, QM/MM, DLPNO-CCSD(T), (RO)-DLPNO pert. Triples
   Tobias Risthaus        : Range-separated hybrids, TD-DFT gradient, RPA, STAB
   Michael Roemelt        : Original ROCIS implementation
   Masaaki Saitow         : Open-shell DLPNO-CCSD energy and density
   Barbara Sandhoefer     : DKH picture change effects
   Avijit Sen             : IP-ROCIS
   Kantharuban Sivalingam : CASSCF convergence, NEVPT2, FIC-MRCI
   Bernardo de Souza      : ESD, SOC TD-DFT
   Georgi Stoychev        : AutoAux, RI-MP2 NMR, DLPNO-MP2 response
   Willem Van den Heuvel  : Paramagnetic NMR
   Boris Wezisla          : Elementary symmetry handling
   Frank Wennmohs         : Technical directorship


 We gratefully acknowledge several colleagues who have allowed us to
 interface, adapt or use parts of their codes:
   Stefan Grimme, W. Hujo, H. Kruse, P. Pracht,  : VdW corrections, initial TS optimization,
                  C. Bannwarth, S. Ehlert          DFT functionals, gCP, sTDA/sTD-DF
   Ed Valeev, F. Pavosevic, A. Kumar             : LibInt (2-el integral package), F12 methods
   Garnet Chan, S. Sharma, J. Yang, R. Olivares  : DMRG
   Ulf Ekstrom                                   : XCFun DFT Library
   Mihaly Kallay                                 : mrcc  (arbitrary order and MRCC methods)
   Jiri Pittner, Ondrej Demel                    : Mk-CCSD
   Frank Weinhold                                : gennbo (NPA and NBO analysis)
   Christopher J. Cramer and Donald G. Truhlar   : smd solvation model
   Lars Goerigk                                  : TD-DFT with DH, B97 family of functionals
   V. Asgeirsson, H. Jonsson                     : NEB implementation
   FAccTs GmbH                                   : IRC, NEB, NEB-TS, DLPNO-Multilevel, CI-OPT
                                                   MM, QMMM, 2- and 3-layer-ONIOM, Crystal-QMMM,
                                                   LR-CPCM, SF, NACMEs, symmetry and pop. for TD-DFT,
                                                   nearIR, NL-DFT gradient (VV10), updates on ESD,
                                                   ML-optimized integration grids
   S Lehtola, MJT Oliveira, MAL Marques          : LibXC Library
   Liviu Ungur et al                             : ANISO software


 Your calculation uses the libint2 library for the computation of 2-el integrals
 For citations please refer to: http://libint.valeyev.net

 Your ORCA version has been built with support for libXC version: 5.1.0
 For citations please refer to: https://tddft.org/programs/libxc/

 This ORCA versions uses:
   CBLAS   interface :  Fast vector & matrix operations
   LAPACKE interface :  Fast linear algebra routines
   SCALAPACK package :  Parallel linear algebra routines
   Shared memory     :  Shared parallel matrices
   BLAS/LAPACK       :  OpenBLAS 0.3.15  USE64BITINT DYNAMIC_ARCH NO_AFFINITY SkylakeX SINGLE_THREADED
        Core in use  :  SkylakeX
   Copyright (c) 2011-2014, The OpenBLAS Project




***************************************
The coordinates will be read from file: 6_prot.xyz
***************************************


Your calculation utilizes the atom-pairwise dispersion correction
based on tight binding partial charges (D4)
Cite in your paper:
E.Caldeweyher, C.Bannwarth, S.Grimme, J.Chem.Phys., (2017), 147, 034112.
E.Caldeweyher, S.Ehlert, A.Hansen, H.Neugebauer, S.Grimme, J.Chem.Phys., (2018), in progress.
   

XCFun DFT library Copyright 2009-2010 Ulf Ekstrom and contributors.
See http://admol.org/xcfun for more information.
This is free software; see the source code for copying conditions.
There is ABSOLUTELY NO WARRANTY; not even for MERCHANTABILITY or FITNESS FOR A PARTICULAR PURPOSE.
For details see the documentation.
Scientific users of this library should cite U. Ekstrom, L. Visscher, R. Bast, A. J. Thorvaldsen and K. Ruud;
J.Chem.Theor.Comp. 2010, DOI: 10.1021/ct100117s
XCFun Version 0.99 

================================================================================

----- Orbital basis set information -----
Your calculation utilizes the basis: def2-TZVP
   F. Weigend and R. Ahlrichs, Phys. Chem. Chem. Phys. 7, 3297 (2005).

----- AuxJ basis set information -----
Your calculation utilizes the auxiliary basis: def2/J
   F. Weigend, Phys. Chem. Chem. Phys. 8, 1057 (2006).

================================================================================
                                        WARNINGS
                       Please study these warnings very carefully!
================================================================================


WARNING: Geometry Optimization
  ===> : Switching off AutoStart
         For restart on a previous wavefunction, please use MOREAD

INFO   : the flag for use of the SHARK integral package has been found!

================================================================================
                                       INPUT FILE
================================================================================
NAME = 6_prot.inp
|  1> # ORCA 5.0.4 - /users/bwb16179/postgrad/2024_06/pKa_Reviewer_Comments/Aq_Z=1/6_prot.inp # write input file
|  2> # Basic Mode
|  3> #
|  4> ! Opt Freq wB97X Def2-TZVP D4 SlowConv TightSCF Defgrid2 Def2/J RIJCOSX CPCM(Water)
|  5> 
|  6> %PAL NPROCS 4 END
|  7> 
|  8> %maxcore 4500
|  9> 
| 10> %geom
| 11> Maxiter 150
| 12> END
| 13> 
| 14> * xyzfile 1 1 6_prot.xyz
| 15> 
| 16>                          ****END OF INPUT****
================================================================================

                       *****************************
                       * Geometry Optimization Run *
                       *****************************

Geometry optimization settings:
Update method            Update   .... BFGS
Choice of coordinates    CoordSys .... Z-matrix Internals
Initial Hessian          InHess   .... Almoef's Model

Convergence Tolerances:
Energy Change            TolE     ....  5.0000e-06 Eh
Max. Gradient            TolMAXG  ....  3.0000e-04 Eh/bohr
RMS Gradient             TolRMSG  ....  1.0000e-04 Eh/bohr
Max. Displacement        TolMAXD  ....  4.0000e-03 bohr
RMS Displacement         TolRMSD  ....  2.0000e-03 bohr
Strict Convergence                ....  False
------------------------------------------------------------------------------
                        ORCA OPTIMIZATION COORDINATE SETUP
------------------------------------------------------------------------------

The optimization will be done in new redundant internal coordinates
Making redundant internal coordinates   ...  (new redundants) done
Evaluating the initial hessian          ...  (Almloef) done
Evaluating the coordinates              ...  done
Calculating the B-matrix                .... done
Calculating the G-matrix                .... done
Diagonalizing the G-matrix              .... done
Small eigenvalue found = 1.134e-02
Small eigenvalue found = 2.110e-02
Small eigenvalue found = 2.265e-02
The first mode is                       ....   81
The number of degrees of freedom        ....   96

    -----------------------------------------------------------------
                    Redundant Internal Coordinates


    -----------------------------------------------------------------
         Definition                    Initial Value    Approx d2E/dq
    -----------------------------------------------------------------
      1. B(C   1,C   0)                  1.3708         0.670489   
      2. B(N   3,C   2)                  1.3296         0.698559   
      3. B(N   3,C   0)                  1.3869         0.566027   
      4. B(N   4,C   1)                  1.3869         0.566027   
      5. B(N   4,C   2)                  1.3296         0.698557   
      6. B(H   5,C   2)                  1.0905         0.359451   
      7. B(C   6,C   0)                  1.4903         0.432154   
      8. B(C   7,C   1)                  1.4903         0.432155   
      9. B(H   8,C   6)                  1.1007         0.346162   
     10. B(H   9,C   7)                  1.1007         0.346163   
     11. B(H  10,C   7)                  1.1007         0.346161   
     12. B(H  11,C   6)                  1.1007         0.346162   
     13. B(H  12,C   6)                  1.0973         0.350552   
     14. B(H  13,C   7)                  1.0973         0.350551   
     15. B(C  18,N   3)                  1.4782         0.404748   
     16. B(C  18,C  17)                  1.5225         0.384046   
     17. B(C  18,C  14)                  1.5225         0.384046   
     18. B(C  19,C  16)                  1.5225         0.384046   
     19. B(C  19,C  15)                  1.5225         0.384045   
     20. B(C  19,N   4)                  1.4782         0.404749   
     21. B(H  20,C  14)                  1.1000         0.347061   
     22. B(H  21,C  15)                  1.1000         0.347062   
     23. B(H  22,C  16)                  1.1000         0.347062   
     24. B(H  23,C  17)                  1.1000         0.347061   
     25. B(H  24,C  14)                  1.1016         0.345052   
     26. B(H  25,C  15)                  1.1016         0.345052   
     27. B(H  26,C  16)                  1.1016         0.345053   
     28. B(H  27,C  17)                  1.1016         0.345052   
     29. B(H  28,C  14)                  1.0995         0.347688   
     30. B(H  29,C  15)                  1.0995         0.347688   
     31. B(H  30,C  16)                  1.0995         0.347688   
     32. B(H  31,C  17)                  1.0995         0.347688   
     33. B(H  32,C  18)                  1.0984         0.349175   
     34. B(H  33,C  19)                  1.0984         0.349175   
     35. A(N   3,C   0,C   6)          122.9428         0.397945   
     36. A(C   1,C   0,C   6)          130.4110         0.412682   
     37. A(C   1,C   0,N   3)          106.6462         0.430237   
     38. A(N   4,C   1,C   7)          122.9428         0.397946   
     39. A(C   0,C   1,C   7)          130.4109         0.412682   
     40. A(C   0,C   1,N   4)          106.6462         0.430237   
     41. A(N   3,C   2,H   5)          125.4839         0.357791   
     42. A(N   4,C   2,H   5)          125.4838         0.357791   
     43. A(N   3,C   2,N   4)          109.0323         0.447244   
     44. A(C   2,N   3,C  18)          124.7398         0.405616   
     45. A(C   0,N   3,C  18)          126.4226         0.390893   
     46. A(C   0,N   3,C   2)          108.8376         0.430586   
     47. A(C   2,N   4,C  19)          124.7398         0.405616   
     48. A(C   1,N   4,C   2)          108.8376         0.430585   
     49. A(C   1,N   4,C  19)          126.4226         0.390893   
     50. A(C   0,C   6,H   8)          111.3579         0.330043   
     51. A(H   8,C   6,H  12)          108.0109         0.287831   
     52. A(H  11,C   6,H  12)          108.0110         0.287831   
     53. A(C   0,C   6,H  12)          109.6718         0.330732   
     54. A(H   8,C   6,H  11)          108.3108         0.287265   
     55. A(C   0,C   6,H  11)          111.3579         0.330043   
     56. A(H   9,C   7,H  10)          108.3108         0.287265   
     57. A(C   1,C   7,H  10)          111.3579         0.330043   
     58. A(C   1,C   7,H   9)          111.3579         0.330043   
     59. A(C   1,C   7,H  13)          109.6718         0.330731   
     60. A(H   9,C   7,H  13)          108.0109         0.287831   
     61. A(H  10,C   7,H  13)          108.0109         0.287831   
     62. A(H  24,C  14,H  28)          108.0128         0.287318   
     63. A(H  20,C  14,H  28)          108.4704         0.287579   
     64. A(C  18,C  14,H  28)          109.3839         0.323923   
     65. A(H  20,C  14,H  24)          108.8029         0.287237   
     66. A(C  18,C  14,H  24)          111.0943         0.323519   
     67. A(C  18,C  14,H  20)          110.9912         0.323827   
     68. A(H  21,C  15,H  29)          108.4704         0.287579   
     69. A(C  19,C  15,H  29)          109.3838         0.323923   
     70. A(H  25,C  15,H  29)          108.0127         0.287318   
     71. A(H  21,C  15,H  25)          108.8030         0.287237   
     72. A(C  19,C  15,H  25)          111.0941         0.323519   
     73. A(C  19,C  15,H  21)          110.9912         0.323827   
     74. A(H  26,C  16,H  30)          108.0128         0.287318   
     75. A(H  22,C  16,H  30)          108.4704         0.287579   
     76. A(C  19,C  16,H  30)          109.3838         0.323923   
     77. A(H  22,C  16,H  26)          108.8030         0.287237   
     78. A(C  19,C  16,H  26)          111.0942         0.323519   
     79. A(C  19,C  16,H  22)          110.9911         0.323827   
     80. A(H  27,C  17,H  31)          108.0128         0.287318   
     81. A(H  23,C  17,H  31)          108.4703         0.287579   
     82. A(C  18,C  17,H  31)          109.3839         0.323923   
     83. A(H  23,C  17,H  27)          108.8029         0.287237   
     84. A(C  18,C  17,H  27)          111.0942         0.323519   
     85. A(C  18,C  17,H  23)          110.9912         0.323827   
     86. A(C  17,C  18,H  32)          108.8146         0.324150   
     87. A(C  14,C  18,H  32)          108.8146         0.324150   
     88. A(N   3,C  18,H  32)          104.8482         0.325003   
     89. A(C  14,C  18,C  17)          113.4415         0.366806   
     90. A(N   3,C  18,C  17)          110.2717         0.367814   
     91. A(N   3,C  18,C  14)          110.2717         0.367814   
     92. A(C  16,C  19,H  33)          108.8146         0.324150   
     93. A(C  15,C  19,H  33)          108.8146         0.324150   
     94. A(N   4,C  19,C  15)          110.2716         0.367814   
     95. A(N   4,C  19,H  33)          104.8482         0.325003   
     96. A(C  15,C  19,C  16)          113.4415         0.366806   
     97. A(N   4,C  19,C  16)          110.2717         0.367814   
     98. D(C   7,C   1,C   0,N   3)    179.9998         0.031444   
     99. D(N   4,C   1,C   0,N   3)     -0.0002         0.031444   
    100. D(C   7,C   1,C   0,C   6)     -0.0001         0.031444   
    101. D(N   4,C   1,C   0,C   6)    179.9999         0.031444   
    102. D(C   0,N   3,C   2,H   5)    179.9999         0.040365   
    103. D(C  18,N   3,C   0,C   6)      0.0001         0.025619   
    104. D(C   0,N   3,C   2,N   4)      0.0000         0.040365   
    105. D(C   2,N   3,C   0,C   6)   -180.0000         0.025619   
    106. D(C  18,N   3,C   2,N   4)    180.0000         0.040365   
    107. D(C   2,N   3,C   0,C   1)      0.0001         0.025619   
    108. D(C  18,N   3,C   0,C   1)   -179.9998         0.025619   
    109. D(C  18,N   3,C   2,H   5)     -0.0001         0.040365   
    110. D(C  19,N   4,C   1,C   0)   -180.0000         0.025619   
    111. D(C   2,N   4,C   1,C   7)   -179.9998         0.025619   
    112. D(C   1,N   4,C   2,N   3)     -0.0001         0.040365   
    113. D(C  19,N   4,C   2,N   3)   -180.0000         0.040365   
    114. D(C  19,N   4,C   2,H   5)      0.0001         0.040365   
    115. D(C   2,N   4,C   1,C   0)      0.0002         0.025619   
    116. D(C   1,N   4,C   2,H   5)    180.0000         0.040365   
    117. D(C  19,N   4,C   1,C   7)      0.0000         0.025619   
    118. D(H  11,C   6,C   0,N   3)     60.5033         0.013790   
    119. D(H  11,C   6,C   0,C   1)   -119.4968         0.013790   
    120. D(H   8,C   6,C   0,N   3)    -60.5031         0.013790   
    121. D(H  12,C   6,C   0,C   1)     -0.0000         0.013790   
    122. D(H   8,C   6,C   0,C   1)    119.4967         0.013790   
    123. D(H  12,C   6,C   0,N   3)   -179.9999         0.013790   
    124. D(H  13,C   7,C   1,C   0)      0.0001         0.013790   
    125. D(H  10,C   7,C   1,N   4)    -60.5032         0.013790   
    126. D(H  10,C   7,C   1,C   0)    119.4968         0.013790   
    127. D(H   9,C   7,C   1,N   4)     60.5033         0.013790   
    128. D(H  13,C   7,C   1,N   4)   -179.9999         0.013790   
    129. D(H   9,C   7,C   1,C   0)   -119.4968         0.013790   
    130. D(H  32,C  18,C  17,H  31)     60.7921         0.011743   
    131. D(H  32,C  18,C  17,H  23)    -58.8592         0.011743   
    132. D(C  14,C  18,C  17,H  31)    -60.4794         0.011743   
    133. D(C  14,C  18,C  17,H  27)     58.6693         0.011743   
    134. D(C  14,C  18,C  17,H  23)    179.8693         0.011743   
    135. D(N   3,C  18,C  17,H  31)    175.2762         0.011743   
    136. D(N   3,C  18,C  17,H  27)    -65.5750         0.011743   
    137. D(N   3,C  18,C  17,H  23)     55.6250         0.011743   
    138. D(H  32,C  18,C  14,H  24)   -179.9409         0.011743   
    139. D(H  32,C  18,C  14,H  20)     58.8591         0.011743   
    140. D(C  17,C  18,C  14,H  28)     60.4792         0.011743   
    141. D(C  17,C  18,C  14,H  24)    -58.6694         0.011743   
    142. D(C  17,C  18,C  14,H  20)   -179.8694         0.011743   
    143. D(H  32,C  18,C  14,H  28)    -60.7922         0.011743   
    144. D(N   3,C  18,C  14,H  28)   -175.2764         0.011743   
    145. D(N   3,C  18,C  14,H  24)     65.5749         0.011743   
    146. D(N   3,C  18,C  14,H  20)    -55.6251         0.011743   
    147. D(C  17,C  18,N   3,C   2)     63.0252         0.013981   
    148. D(C  17,C  18,N   3,C   0)   -116.9748         0.013981   
    149. D(C  14,C  18,N   3,C   2)    -63.0254         0.013981   
    150. D(H  32,C  18,N   3,C   2)    179.9999         0.013981   
    151. D(H  32,C  18,C  17,H  27)    179.9408         0.011743   
    152. D(C  14,C  18,N   3,C   0)    116.9746         0.013981   
    153. D(H  32,C  18,N   3,C   0)     -0.0001         0.013981   
    154. D(H  33,C  19,N   4,C   2)   -179.9998         0.013981   
    155. D(H  33,C  19,N   4,C   1)      0.0004         0.013981   
    156. D(C  16,C  19,N   4,C   2)    -63.0251         0.013981   
    157. D(C  16,C  19,N   4,C   1)    116.9751         0.013981   
    158. D(C  15,C  19,N   4,C   2)     63.0255         0.013981   
    159. D(N   4,C  19,C  15,H  21)     55.6249         0.011742   
    160. D(C  15,C  19,N   4,C   1)   -116.9743         0.013981   
    161. D(H  33,C  19,C  16,H  30)    -60.7919         0.011742   
    162. D(H  33,C  19,C  16,H  22)     58.8594         0.011742   
    163. D(C  15,C  19,C  16,H  30)     60.4795         0.011742   
    164. D(C  15,C  19,C  16,H  26)    -58.6691         0.011742   
    165. D(N   4,C  19,C  16,H  30)   -175.2761         0.011742   
    166. D(N   4,C  19,C  16,H  26)     65.5753         0.011742   
    167. D(N   4,C  19,C  16,H  22)    -55.6248         0.011742   
    168. D(H  33,C  19,C  15,H  29)     60.7922         0.011742   
    169. D(H  33,C  19,C  15,H  25)    179.9407         0.011742   
    170. D(H  33,C  19,C  15,H  21)    -58.8592         0.011742   
    171. D(C  15,C  19,C  16,H  22)   -179.8691         0.011742   
    172. D(C  16,C  19,C  15,H  29)    -60.4793         0.011742   
    173. D(C  16,C  19,C  15,H  25)     58.6692         0.011742   
    174. D(C  16,C  19,C  15,H  21)    179.8693         0.011742   
    175. D(H  33,C  19,C  16,H  26)   -179.9406         0.011742   
    176. D(N   4,C  19,C  15,H  29)    175.2763         0.011742   
    177. D(N   4,C  19,C  15,H  25)    -65.5751         0.011742   
    -----------------------------------------------------------------

Number of atoms                         .... 34
Number of degrees of freedom            .... 177

         *************************************************************
         *                GEOMETRY OPTIMIZATION CYCLE   1            *
         *************************************************************
---------------------------------
CARTESIAN COORDINATES (ANGSTROEM)
---------------------------------
  C      0.000001    0.685393   -1.312082
  C     -0.000001   -0.685394   -1.312082
  C      0.000003   -0.000000    0.788497
  N      0.000002    1.082684    0.016686
  N      0.000003   -1.082685    0.016686
  H      0.000005   -0.000000    1.878988
  C      0.000000    1.651535   -2.446855
  C     -0.000006   -1.651535   -2.446855
  H     -0.892273    2.295745   -2.424875
  H     -0.892280   -2.295742   -2.424874
  H      0.892267   -2.295746   -2.424879
  H      0.892274    2.295743   -2.424877
  H     -0.000002    1.104250   -3.397949
  H     -0.000007   -1.104250   -3.397950
  C     -1.272798    2.750880    1.304911
  C     -1.272798   -2.750881    1.304909
  C      1.272799   -2.750879    1.304917
  C      1.272798    2.750881    1.304914
  C      0.000001    2.473685    0.516828
  C      0.000003   -2.473685    0.516828
  H     -2.165788    2.535527    0.699702
  H     -2.165787   -2.535527    0.699699
  H      2.165791   -2.535521    0.699713
  H      2.165790    2.535527    0.699707
  H     -1.311003    2.143122    2.222918
  H     -1.311002   -2.143124    2.222917
  H      1.310996   -2.143125    2.222926
  H      1.311000    2.143124    2.222922
  H     -1.297447    3.810527    1.597396
  H     -1.297447   -3.810528    1.597393
  H      1.297449   -3.810527    1.597398
  H      1.297447    3.810528    1.597397
  H      0.000002    3.097783   -0.387027
  H      0.000006   -3.097784   -0.387027

----------------------------
CARTESIAN COORDINATES (A.U.)
----------------------------
  NO LB      ZA    FRAG     MASS         X           Y           Z
   0 C     6.0000    0    12.011    0.000002    1.295205   -2.479476
   1 C     6.0000    0    12.011   -0.000002   -1.295207   -2.479476
   2 C     6.0000    0    12.011    0.000006   -0.000000    1.490043
   3 N     7.0000    0    14.007    0.000004    2.045976    0.031532
   4 N     7.0000    0    14.007    0.000006   -2.045978    0.031532
   5 H     1.0000    0     1.008    0.000009   -0.000000    3.550773
   6 C     6.0000    0    12.011    0.000000    3.120949   -4.623886
   7 C     6.0000    0    12.011   -0.000011   -3.120949   -4.623886
   8 H     1.0000    0     1.008   -1.686152    4.338329   -4.582350
   9 H     1.0000    0     1.008   -1.686165   -4.338324   -4.582348
  10 H     1.0000    0     1.008    1.686140   -4.338331   -4.582357
  11 H     1.0000    0     1.008    1.686153    4.338326   -4.582353
  12 H     1.0000    0     1.008   -0.000004    2.086730   -6.421193
  13 H     1.0000    0     1.008   -0.000013   -2.086730   -6.421195
  14 C     6.0000    0    12.011   -2.405240    5.198410    2.465924
  15 C     6.0000    0    12.011   -2.405240   -5.198412    2.465921
  16 C     6.0000    0    12.011    2.405242   -5.198408    2.465936
  17 C     6.0000    0    12.011    2.405240    5.198412    2.465930
  18 C     6.0000    0    12.011    0.000002    4.674587    0.976663
  19 C     6.0000    0    12.011    0.000006   -4.674587    0.976663
  20 H     1.0000    0     1.008   -4.092746    4.791452    1.322245
  21 H     1.0000    0     1.008   -4.092744   -4.791452    1.322239
  22 H     1.0000    0     1.008    4.092752   -4.791440    1.322266
  23 H     1.0000    0     1.008    4.092750    4.791452    1.322255
  24 H     1.0000    0     1.008   -2.477437    4.049914    4.200706
  25 H     1.0000    0     1.008   -2.477435   -4.049917    4.200704
  26 H     1.0000    0     1.008    2.477423   -4.049919    4.200721
  27 H     1.0000    0     1.008    2.477431    4.049917    4.200714
  28 H     1.0000    0     1.008   -2.451820    7.200852    3.018641
  29 H     1.0000    0     1.008   -2.451820   -7.200854    3.018635
  30 H     1.0000    0     1.008    2.451823   -7.200852    3.018645
  31 H     1.0000    0     1.008    2.451820    7.200854    3.018643
  32 H     1.0000    0     1.008    0.000004    5.853961   -0.731375
  33 H     1.0000    0     1.008    0.000011   -5.853963   -0.731375

--------------------------------
INTERNAL COORDINATES (ANGSTROEM)
--------------------------------
 C      0   0   0     0.000000000000     0.00000000     0.00000000
 C      1   0   0     1.370787000001     0.00000000     0.00000000
 C      1   2   0     2.209569120823    71.92913462     0.00000000
 N      3   1   2     1.329622827564    36.44527191   180.00010717
 N      3   1   2     1.329623641842    72.58702767     0.00000000
 H      3   1   2     1.090491000002   161.92913462   179.99992503
 C      1   2   3     1.490348994596   130.41096358   180.00003982
 C      2   1   3     1.490348346339   130.41093430   179.99990054
 H      7   1   2     1.100745543270   111.35793145   119.49674165
 H      8   2   1     1.100744618104   111.35791846   240.50323723
 H      8   2   1     1.100746048653   111.35791244   119.49681448
 H      7   1   2     1.100745143448   111.35788531   240.50315278
 H      7   1   2     1.097315209074   109.67175922     0.00000000
 H      8   2   1     1.097316075819   109.67181454     0.00000000
 C      4   3   1     2.462198486118   104.35852426   147.75065342
 C      5   3   1     2.462197956653   104.35855346   212.24942591
 C      5   3   1     2.462198202544   104.35840133   147.75085298
 C      4   3   1     2.462198665504   104.35845493   212.24918733
 C      4   3   1     1.478183277597   124.73981232   179.99995376
 C      5   3   1     1.478182336576   124.73982422   180.00005436
 H     15   4   3     1.100039084937    89.95137330   260.48390537
 H     16   5   3     1.100039019098    89.95132832    99.51604410
 H     17   5   3     1.100038936513    89.95124368   260.48430729
 H     18   4   3     1.100039803929    89.95132787    99.51591621
 H     15   4   3     1.101619834897    94.59651031     9.34560152
 H     16   5   3     1.101620081847    94.59650784   350.65425168
 H     17   5   3     1.101619017359    94.59663373     9.34608863
 H     18   4   3     1.101620012489    94.59653321   350.65419016
 H     15   4   3     1.099548458702   143.48476336   138.39179106
 H     16   5   3     1.099548192698   143.48473298   221.60814438
 H     17   5   3     1.099548380821   143.48468262   138.39239580
 H     18   4   3     1.099547926695   143.48476892   221.60788295
 H     19   4   3     1.098386168262   104.84815819   179.99991019
 H     20   5   3     1.098386736462   104.84818800   180.00016190

---------------------------
INTERNAL COORDINATES (A.U.)
---------------------------
 C      0   0   0     0.000000000000     0.00000000     0.00000000
 C      1   0   0     2.590412017942     0.00000000     0.00000000
 C      1   2   0     4.175480512324    71.92913462     0.00000000
 N      3   1   2     2.512623005505    36.44527191   180.00010717
 N      3   1   2     2.512624544269    72.58702767     0.00000000
 H      3   1   2     2.060729341509   161.92913462   179.99992503
 C      1   2   3     2.816351443752   130.41096358   180.00003982
 C      2   1   3     2.816350218723   130.41093430   179.99990054
 H      7   1   2     2.080107619915   111.35793145   119.49674165
 H      8   2   1     2.080105871605   111.35791846   240.50323723
 H      8   2   1     2.080108574951   111.35791244   119.49681448
 H      7   1   2     2.080106864360   111.35788531   240.50315278
 H      7   1   2     2.073625227736   109.67175922     0.00000000
 H      8   2   1     2.073626865647   109.67181454     0.00000000
 C      4   3   1     4.652880826118   104.35852426   147.75065342
 C      5   3   1     4.652879825575   104.35855346   212.24942591
 C      5   3   1     4.652880290242   104.35840133   147.75085298
 C      4   3   1     4.652881165109   104.35845493   212.24918733
 C      4   3   1     2.793361570400   124.73981232   179.99995376
 C      5   3   1     2.793359792128   124.73982422   180.00005436
 H     15   4   3     2.078772607141    89.95137330   260.48390537
 H     16   5   3     2.078772482722    89.95132832    99.51604410
 H     17   5   3     2.078772326659    89.95124368   260.48430729
 H     18   4   3     2.078773965839    89.95132787    99.51591621
 H     15   4   3     2.081759791650    94.59651031     9.34560152
 H     16   5   3     2.081760258319    94.59650784   350.65425168
 H     17   5   3     2.081758246727    94.59663373     9.34608863
 H     18   4   3     2.081760127252    94.59653321   350.65419016
 H     15   4   3     2.077845457923   143.48476336   138.39179106
 H     16   5   3     2.077844955248   143.48473298   221.60814438
 H     17   5   3     2.077845310747   143.48468262   138.39239580
 H     18   4   3     2.077844452574   143.48476892   221.60788295
 H     19   4   3     2.075649047303   104.84815819   179.99991019
 H     20   5   3     2.075650121044   104.84818800   180.00016190

---------------------
BASIS SET INFORMATION
---------------------
There are 3 groups of distinct atoms

 Group   1 Type C   : 11s6p2d1f contracted to 5s3p2d1f pattern {62111/411/11/1}
 Group   2 Type N   : 11s6p2d1f contracted to 5s3p2d1f pattern {62111/411/11/1}
 Group   3 Type H   : 5s1p contracted to 3s1p pattern {311/1}

Atom   0C    basis set group =>   1
Atom   1C    basis set group =>   1
Atom   2C    basis set group =>   1
Atom   3N    basis set group =>   2
Atom   4N    basis set group =>   2
Atom   5H    basis set group =>   3
Atom   6C    basis set group =>   1
Atom   7C    basis set group =>   1
Atom   8H    basis set group =>   3
Atom   9H    basis set group =>   3
Atom  10H    basis set group =>   3
Atom  11H    basis set group =>   3
Atom  12H    basis set group =>   3
Atom  13H    basis set group =>   3
Atom  14C    basis set group =>   1
Atom  15C    basis set group =>   1
Atom  16C    basis set group =>   1
Atom  17C    basis set group =>   1
Atom  18C    basis set group =>   1
Atom  19C    basis set group =>   1
Atom  20H    basis set group =>   3
Atom  21H    basis set group =>   3
Atom  22H    basis set group =>   3
Atom  23H    basis set group =>   3
Atom  24H    basis set group =>   3
Atom  25H    basis set group =>   3
Atom  26H    basis set group =>   3
Atom  27H    basis set group =>   3
Atom  28H    basis set group =>   3
Atom  29H    basis set group =>   3
Atom  30H    basis set group =>   3
Atom  31H    basis set group =>   3
Atom  32H    basis set group =>   3
Atom  33H    basis set group =>   3
---------------------------------
AUXILIARY/J BASIS SET INFORMATION
---------------------------------
There are 3 groups of distinct atoms

 Group   1 Type C   : 12s5p4d2f1g contracted to 6s4p3d1f1g pattern {711111/2111/211/2/1}
 Group   2 Type N   : 12s5p4d2f1g contracted to 6s4p3d1f1g pattern {711111/2111/211/2/1}
 Group   3 Type H   : 5s2p1d contracted to 3s1p1d pattern {311/2/1}

Atom   0C    basis set group =>   1
Atom   1C    basis set group =>   1
Atom   2C    basis set group =>   1
Atom   3N    basis set group =>   2
Atom   4N    basis set group =>   2
Atom   5H    basis set group =>   3
Atom   6C    basis set group =>   1
Atom   7C    basis set group =>   1
Atom   8H    basis set group =>   3
Atom   9H    basis set group =>   3
Atom  10H    basis set group =>   3
Atom  11H    basis set group =>   3
Atom  12H    basis set group =>   3
Atom  13H    basis set group =>   3
Atom  14C    basis set group =>   1
Atom  15C    basis set group =>   1
Atom  16C    basis set group =>   1
Atom  17C    basis set group =>   1
Atom  18C    basis set group =>   1
Atom  19C    basis set group =>   1
Atom  20H    basis set group =>   3
Atom  21H    basis set group =>   3
Atom  22H    basis set group =>   3
Atom  23H    basis set group =>   3
Atom  24H    basis set group =>   3
Atom  25H    basis set group =>   3
Atom  26H    basis set group =>   3
Atom  27H    basis set group =>   3
Atom  28H    basis set group =>   3
Atom  29H    basis set group =>   3
Atom  30H    basis set group =>   3
Atom  31H    basis set group =>   3
Atom  32H    basis set group =>   3
Atom  33H    basis set group =>   3


           ************************************************************
           *        Program running with 4 parallel MPI-processes     *
           *              working on a common directory               *
           ************************************************************
------------------------------------------------------------------------------
                           ORCA GTO INTEGRAL CALCULATION
                           -- RI-GTO INTEGRALS CHOSEN --
------------------------------------------------------------------------------
------------------------------------------------------------------------------
                   ___                                                        
                  /   \      - P O W E R E D   B Y -                         
                 /     \                                                     
                 |  |  |   _    _      __       _____    __    __             
                 |  |  |  | |  | |    /  \     |  _  \  |  |  /  |          
                  \  \/   | |  | |   /    \    | | | |  |  | /  /          
                 / \  \   | |__| |  /  /\  \   | |_| |  |  |/  /          
                |  |  |   |  __  | /  /__\  \  |    /   |      \           
                |  |  |   | |  | | |   __   |  |    \   |  |\   \          
                \     /   | |  | | |  |  |  |  | |\  \  |  | \   \       
                 \___/    |_|  |_| |__|  |__|  |_| \__\ |__|  \__/        
                                                                              
                      - O R C A' S   B I G   F R I E N D -                    
                                      &                                       
                       - I N T E G R A L  F E E D E R -                       
                                                                              
 v1 FN, 2020, v2 2021                                                         
------------------------------------------------------------------------------


Reading SHARK input file 6_prot.SHARKINP.tmp ... ok
----------------------
SHARK INTEGRAL PACKAGE
----------------------

Number of atoms                             ...     34
Number of basis functions                   ...    529
Number of shells                            ...    227
Maximum angular momentum                    ...      3
Integral batch strategy                     ... SHARK/LIBINT Hybrid
RI-J (if used) integral strategy            ... SPLIT-RIJ (Revised 2003 algorithm where possible)
Printlevel                                  ...      1
Contraction scheme used                     ... SEGMENTED contraction
Coulomb Range Separation                    ... NOT USED
Exchange Range Separation                   ... Long Range
   Mu parameter                             ...  0.300000
   Scaling (regular/separated)              ...  0.157706  0.842294
Finite Nucleus Model                        ... NOT USED
Auxiliary Coulomb fitting basis             ... AVAILABLE
   # of basis functions in Aux-J            ...    868
   # of shells in Aux-J                     ...    300
   Maximum angular momentum in Aux-J        ...      4
Auxiliary J/K fitting basis                 ... NOT available
Auxiliary Correlation fitting basis         ... NOT available
Auxiliary 'external' fitting basis          ... NOT available
Integral threshold                          ...     2.500000e-11
Primitive cut-off                           ...     2.500000e-12
Primitive pair pre-selection threshold      ...     2.500000e-12

Calculating pre-screening integrals         ... done (  0.1 sec) Dimension = 227
Organizing shell pair data                  ... done (  0.2 sec)
Shell pair information
Total number of shell pairs                 ...     25878
Shell pairs after pre-screening             ...     21459
Total number of primitive shell pairs       ...     75040
Primitive shell pairs kept                  ...     44035
          la=0 lb=0:   6660 shell pairs
          la=1 lb=0:   6348 shell pairs
          la=1 lb=1:   1554 shell pairs
          la=2 lb=0:   2818 shell pairs
          la=2 lb=1:   1364 shell pairs
          la=2 lb=2:    328 shell pairs
          la=3 lb=0:   1340 shell pairs
          la=3 lb=1:    664 shell pairs
          la=3 lb=2:    304 shell pairs
          la=3 lb=3:     79 shell pairs

Calculating one electron integrals          ... done (  0.1 sec)
Calculating RI/J V-Matrix + Cholesky decomp.... done (  0.0 sec)
Calculating Nuclear repulsion               ... done (  0.0 sec) ENN=    870.934349261312 Eh

SHARK setup successfully completed in   0.7 seconds

Maximum memory used throughout the entire GTOINT-calculation: 32.8 MB


           ************************************************************
           *        Program running with 4 parallel MPI-processes     *
           *              working on a common directory               *
           ************************************************************
-------------------------------------------------------------------------------
                                 ORCA SCF
-------------------------------------------------------------------------------

------------
SCF SETTINGS
------------
Hamiltonian:
 Density Functional     Method          .... DFT(GTOs)
 Exchange Functional    Exchange        .... WB97X
 Correlation Functional Correlation     .... WB97X
 Gradients option       PostSCFGGA      .... off
 Hybrid DFT is turned on
   Fraction HF Exchange ScalHFX         ....  0.157706
   Scaling of DF-GGA-X  ScalDFX         ....  0.000000
   Scaling of DF-GGA-C  ScalDFC         ....  1.000000
   Scaling of DF-LDA-C  ScalLDAC        ....  1.000000
   Perturbative correction              ....  0.000000
   Density functional embedding theory  .... OFF
 Long-range corrected/Screened/Range-Separated Hybrid DFT is turned on
   Amount of maximum screened exact exchange              ....  0.842294
   Range separation parameter mu (erf(mu*r12)/r12)        ....  0.300000
 RI-approximation to the Coulomb term is turned on
   Number of AuxJ basis functions       .... 868
   RIJ-COSX (HFX calculated with COS-X)).... on


General Settings:
 Integral files         IntName         .... 6_prot
 Hartree-Fock type      HFTyp           .... RHF
 Total Charge           Charge          ....    1
 Multiplicity           Mult            ....    1
 Number of Electrons    NEL             ....  100
 Basis Dimension        Dim             ....  529
 Nuclear Repulsion      ENuc            ....    870.9343492613 Eh

Convergence Acceleration:
 DIIS                   CNVDIIS         .... on
   Start iteration      DIISMaxIt       ....     0
   Startup error        DIISStart       ....  0.200000
   # of expansion vecs  DIISMaxEq       ....     5
   Bias factor          DIISBfac        ....   1.050
   Max. coefficient     DIISMaxC        ....  10.000
 Trust-Rad. Augm. Hess. CNVTRAH         .... auto
   Auto Start mean grad. ratio tolernc. ....  1.125000
   Auto Start start iteration           ....    20
   Auto Start num. interpolation iter.  ....    10
   Max. Number of Micro iterations      ....    16
   Max. Number of Macro iterations      .... Maxiter - #DIIS iter
   Number of Davidson start vectors     ....     2
   Converg. threshold I  (grad. norm)   ....   1.000e-05
   Converg. threshold II (energy diff.) ....   1.000e-08
   Grad. Scal. Fac. for Micro threshold ....   0.100
   Minimum threshold for Micro iter.    ....   0.010
   NR start threshold (gradient norm)   ....   0.001
   Initial trust radius                 ....   0.400
   Minimum AH scaling param. (alpha)    ....   1.000
   Maximum AH scaling param. (alpha)    .... 1000.000
   Orbital update algorithm             .... Taylor
   White noise on init. David. guess    .... on
   Maximum white noise                  ....   0.010
   Quad. conv. algorithm                .... NR
 SOSCF                  CNVSOSCF        .... on
   Start iteration      SOSCFMaxIt      ....   150
   Startup grad/error   SOSCFStart      ....  0.001000
 Level Shifting         CNVShift        .... on
   Level shift para.    LevelShift      ....    0.2500
   Turn off err/grad.   ShiftErr        ....    0.0000
 Zerner damping         CNVZerner       .... off
 Static damping         CNVDamp         .... on
   Fraction old density DampFac         ....    0.8500
   Max. Damping (<1)    DampMax         ....    0.9800
   Min. Damping (>=0)   DampMin         ....    0.0000
   Turn off err/grad.   DampErr         ....    0.0300
 Fernandez-Rico         CNVRico         .... off

SCF Procedure:
 Maximum # iterations   MaxIter         ....   125
 SCF integral mode      SCFMode         .... Direct
   Integral package                     .... SHARK and LIBINT hybrid scheme
 Reset frequency        DirectResetFreq ....    20
 Integral Threshold     Thresh          ....  2.500e-11 Eh
 Primitive CutOff       TCut            ....  2.500e-12 Eh

Convergence Tolerance:
 Convergence Check Mode ConvCheckMode   .... Total+1el-Energy
 Convergence forced     ConvForced      .... 0
 Energy Change          TolE            ....  1.000e-08 Eh
 1-El. energy change                    ....  1.000e-05 Eh
 Orbital Gradient       TolG            ....  1.000e-05
 Orbital Rotation angle TolX            ....  1.000e-05
 DIIS Error             TolErr          ....  5.000e-07


Diagonalization of the overlap matrix:
Smallest eigenvalue                        ... 3.123e-05
Time for diagonalization                   ...    0.050 sec
Threshold for overlap eigenvalues          ... 1.000e-08
Number of eigenvalues below threshold      ... 0
Time for construction of square roots      ...    0.025 sec
Total time needed                          ...    0.077 sec

Time for model grid setup =    0.326 sec

------------------------------
INITIAL GUESS: MODEL POTENTIAL
------------------------------
Loading Hartree-Fock densities                     ... done
Calculating cut-offs                               ... done
Initializing the effective Hamiltonian             ... done
Setting up the integral package (SHARK)            ... done
Starting the Coulomb interaction                   ... done (   0.6 sec)
Reading the grid                                   ... done
Mapping shells                                     ... done
Starting the XC term evaluation                    ... done (   0.5 sec)
  promolecular density results
     # of electrons  =    100.981694292
     EX              =    -75.623383079
     EC              =     -3.342682508
     EX+EC           =    -78.966065587
Transforming the Hamiltonian                       ... done (   0.0 sec)
Diagonalizing the Hamiltonian                      ... done (   0.1 sec)
Back transforming the eigenvectors                 ... done (   0.0 sec)
Now organizing SCF variables                       ... done
                      ------------------
                      INITIAL GUESS DONE (   1.5 sec)
                      ------------------
-------------------
DFT GRID GENERATION
-------------------

General Integration Accuracy     IntAcc      ... 4.388
Radial Grid Type                 RadialGrid  ... OptM3 with GC (2021)
Angular Grid (max. ang.)         AngularGrid ... 4 (Lebedev-302)
Angular grid pruning method      GridPruning ... 4 (adaptive)
Weight generation scheme         WeightScheme... Becke
Basis function cutoff            BFCut       ... 1.0000e-11
Integration weight cutoff        WCut        ... 1.0000e-14
Angular grids for H and He will be reduced by one unit
Partially contracted basis set               ... off
Rotationally invariant grid construction     ... off

Total number of grid points                  ...   144329
Total number of batches                      ...     2270
Average number of points per batch           ...       63
Average number of grid points per atom       ...     4245
Time for grid setup =    1.294 sec

--------------------
COSX GRID GENERATION
--------------------

GRIDX 1
-------
General Integration Accuracy     IntAcc      ... 3.816
Radial Grid Type                 RadialGrid  ... OptM3 with GC (2021)
Angular Grid (max. ang.)         AngularGrid ... 1 (Lebedev-50)
Angular grid pruning method      GridPruning ... 4 (adaptive)
Weight generation scheme         WeightScheme... Becke
Basis function cutoff            BFCut       ... 1.0000e-11
Integration weight cutoff        WCut        ... 1.0000e-14
Angular grids for H and He will be reduced by one unit
Partially contracted basis set               ... on
Rotationally invariant grid construction     ... off

Total number of grid points                  ...    18460
Total number of batches                      ...      308
Average number of points per batch           ...       59
Average number of grid points per atom       ...      543
UseSFitting                                  ... on

GRIDX 2
-------
General Integration Accuracy     IntAcc      ... 4.020
Radial Grid Type                 RadialGrid  ... OptM3 with GC (2021)
Angular Grid (max. ang.)         AngularGrid ... 2 (Lebedev-110)
Angular grid pruning method      GridPruning ... 4 (adaptive)
Weight generation scheme         WeightScheme... Becke
Basis function cutoff            BFCut       ... 1.0000e-11
Integration weight cutoff        WCut        ... 1.0000e-14
Angular grids for H and He will be reduced by one unit
Partially contracted basis set               ... on
Rotationally invariant grid construction     ... off

Total number of grid points                  ...    38243
Total number of batches                      ...      616
Average number of points per batch           ...       62
Average number of grid points per atom       ...     1125
UseSFitting                                  ... on

GRIDX 3
-------
General Integration Accuracy     IntAcc      ... 4.338
Radial Grid Type                 RadialGrid  ... OptM3 with GC (2021)
Angular Grid (max. ang.)         AngularGrid ... 3 (Lebedev-194)
Angular grid pruning method      GridPruning ... 4 (adaptive)
Weight generation scheme         WeightScheme... Becke
Basis function cutoff            BFCut       ... 1.0000e-11
Integration weight cutoff        WCut        ... 1.0000e-14
Angular grids for H and He will be reduced by one unit
Partially contracted basis set               ... on
Rotationally invariant grid construction     ... off

Total number of grid points                  ...    83147
Total number of batches                      ...     1318
Average number of points per batch           ...       63
Average number of grid points per atom       ...     2446
UseSFitting                                  ... on

Time for X-Grid setup             =    1.786 sec


--------------------
CPCM SOLVATION MODEL
--------------------
CPCM parameters:
  Epsilon                                         ...      80.4000
  Refrac                                          ...       1.3300
  Rsolv                                           ...       1.3000
  Surface type                                    ... GAUSSIAN VDW
  Epsilon function type                           ...         CPCM
Radii:
 Radius for C  used is    3.8550 Bohr (=   2.0400 Ang.)
 Radius for N  used is    3.5149 Bohr (=   1.8600 Ang.)
 Radius for H  used is    2.4944 Bohr (=   1.3200 Ang.)
Calculating surface                               ...        done! (  0.0s)
GEPOL surface points                              ...         1791
GEPOL Volume                                      ...    1722.2724
GEPOL Surface-area                                ...     944.9131
Calculating surface distance matrix               ...        done! (  0.0s)
Performing Cholesky decomposition & store         ...        done! (  0.1s)
Overall time for CPCM initialization              ...                 0.2s
--------------
SCF ITERATIONS
--------------
ITER       Energy         Delta-E        Max-DP      RMS-DP      [F,P]     Damp
               ***  Starting incremental Fock matrix formation  ***
  0   -540.9588161985   0.000000000000 0.02121852  0.00030566  0.1661403 0.8500
  1   -541.0244262793  -0.065610080782 0.02261020  0.00029976  0.1331445 0.8500
                               ***Turning on DIIS***
  2   -541.0738827082  -0.049456428925 0.01818499  0.00024569  0.1016085 0.8500
  3   -541.1103414649  -0.036458756708 0.01368741  0.00018546  0.0765115 0.8500
  4   -541.1382809482  -0.027939483304 0.01084903  0.00014833  0.0607431 0.8500
  5   -541.1601727961  -0.021891847906 0.00909869  0.00012439  0.0501913 0.8500
  6   -541.1779030552  -0.017730259043 0.00779593  0.00010618  0.0422229 0.8500
  7   -541.1925382840  -0.014635228882 0.00674718  0.00009157  0.0357771 0.8500
  8   -541.2047577826  -0.012219498512 0.00581125  0.00007875  0.0302649 0.8500
  9   -541.2149881407  -0.010230358154 0.03308881  0.00044882  0.0255442 0.0000
 10   -541.2702036345  -0.055215493788 0.00061581  0.00001261  0.0011946 0.0000
                      *** Initiating the SOSCF procedure ***
                           *** Shutting down DIIS ***
                      *** Re-Reading the Fockian *** 
                      *** Removing any level shift *** 
ITER      Energy       Delta-E        Grad      Rot      Max-DP    RMS-DP
 11   -541.27022224  -0.0000186104  0.000115  0.000115  0.000343  0.000006
               *** Restarting incremental Fock matrix formation ***
 12   -541.27020036   0.0000218803  0.000063  0.000099  0.000456  0.000008
 13   -541.27020066  -0.0000002915  0.000034  0.000108  0.000158  0.000003
 14   -541.27020068  -0.0000000260  0.000012  0.000015  0.000085  0.000001
 15   -541.27020070  -0.0000000135  0.000004  0.000010  0.000041  0.000000
                  ***Gradient check signals convergence***
              ***Rediagonalizing the Fockian in SOSCF/NRSCF***

               *****************************************************
               *                     SUCCESS                       *
               *           SCF CONVERGED AFTER  16 CYCLES          *
               *****************************************************

Old exchange energy                            =    -25.371839309 Eh
New exchange energy                            =    -25.371842310 Eh
Exchange energy change after final integration =     -0.000003001 Eh
Total energy after final integration           =   -541.270203697 Eh
Final COS-X integration done in                =    63.832 sec

----------------
TOTAL SCF ENERGY
----------------

Total Energy       :         -541.27020370 Eh          -14728.71104 eV

Components:
Nuclear Repulsion  :          870.93434926 Eh           23699.32849 eV
Electronic Energy  :        -1412.20455296 Eh          -38428.03953 eV
One Electron Energy:        -2441.59422791 Eh          -66439.15664 eV
Two Electron Energy:         1029.38967495 Eh           28011.11711 eV
Max COSX asymmetry :            0.00000194 Eh               0.00005 eV
CPCM Dielectric    :           -0.07531795 Eh              -2.04951 eV

Virial components:
Potential Energy   :        -1079.62432278 Eh          -29378.07138 eV
Kinetic Energy     :          538.35411908 Eh           14649.36034 eV
Virial Ratio       :            2.00541667


DFT components:
N(Alpha)           :       50.000260247229 electrons
N(Beta)            :       50.000260247229 electrons
N(Total)           :      100.000520494458 electrons
E(XC)              :      -55.752503406420 Eh       
DFET-embed. en.    :        0.000000000000 Eh       
CPCM Solvation Model Properties:
Surface-charge          :           -1.02990595
Charge-correction       :            0.00387966 Eh               0.10557 eV
Free-energy (cav+disp)  :  This term is not implemented in the current solvation scheme

---------------
SCF CONVERGENCE
---------------

  Last Energy change         ...    1.0118e-10  Tolerance :   1.0000e-08
  Last MAX-Density change    ...    1.5543e-15  Tolerance :   1.0000e-07
  Last RMS-Density change    ...    1.3140e-17  Tolerance :   5.0000e-09
  Last Orbital Gradient      ...    8.8559e-07  Tolerance :   1.0000e-05
  Last Orbital Rotation      ...    3.1453e-06  Tolerance :   1.0000e-05

             **** THE GBW FILE WAS UPDATED (6_prot.gbw) ****
             **** DENSITY 6_prot.scfp WAS UPDATED ****
             **** ENERGY FILE WAS UPDATED (6_prot.en.tmp) ****
             **** THE GBW FILE WAS UPDATED (6_prot.gbw) ****
             **** DENSITY 6_prot.scfp WAS UPDATED ****
----------------
ORBITAL ENERGIES
----------------

  NO   OCC          E(Eh)            E(eV) 
   0   2.0000     -14.486627      -394.2012 
   1   2.0000     -14.486604      -394.2005 
   2   2.0000     -10.357473      -281.8412 
   3   2.0000     -10.320881      -280.8454 
   4   2.0000     -10.320876      -280.8453 
   5   2.0000     -10.317706      -280.7591 
   6   2.0000     -10.317065      -280.7416 
   7   2.0000     -10.268923      -279.4316 
   8   2.0000     -10.268912      -279.4313 
   9   2.0000     -10.256127      -279.0834 
  10   2.0000     -10.256125      -279.0834 
  11   2.0000     -10.256119      -279.0832 
  12   2.0000     -10.256119      -279.0832 
  13   2.0000      -1.210531       -32.9402 
  14   2.0000      -1.095384       -29.8069 
  15   2.0000      -0.971339       -26.4315 
  16   2.0000      -0.941986       -25.6327 
  17   2.0000      -0.920643       -25.0520 
  18   2.0000      -0.870643       -23.6914 
  19   2.0000      -0.828270       -22.5384 
  20   2.0000      -0.827508       -22.5176 
  21   2.0000      -0.826707       -22.4958 
  22   2.0000      -0.807482       -21.9727 
  23   2.0000      -0.732955       -19.9447 
  24   2.0000      -0.728763       -19.8307 
  25   2.0000      -0.694909       -18.9094 
  26   2.0000      -0.647218       -17.6117 
  27   2.0000      -0.625757       -17.0277 
  28   2.0000      -0.610046       -16.6002 
  29   2.0000      -0.593735       -16.1564 
  30   2.0000      -0.574075       -15.6214 
  31   2.0000      -0.565050       -15.3758 
  32   2.0000      -0.558269       -15.1913 
  33   2.0000      -0.538347       -14.6492 
  34   2.0000      -0.536986       -14.6121 
  35   2.0000      -0.532135       -14.4801 
  36   2.0000      -0.523987       -14.2584 
  37   2.0000      -0.517991       -14.0952 
  38   2.0000      -0.513982       -13.9862 
  39   2.0000      -0.504695       -13.7334 
  40   2.0000      -0.501735       -13.6529 
  41   2.0000      -0.492703       -13.4071 
  42   2.0000      -0.488177       -13.2840 
  43   2.0000      -0.479806       -13.0562 
  44   2.0000      -0.469762       -12.7829 
  45   2.0000      -0.459928       -12.5153 
  46   2.0000      -0.454088       -12.3564 
  47   2.0000      -0.451952       -12.2983 
  48   2.0000      -0.402263       -10.9461 
  49   2.0000      -0.344324        -9.3695 
  50   0.0000       0.057571         1.5666 
  51   0.0000       0.101077         2.7505 
  52   0.0000       0.107574         2.9272 
  53   0.0000       0.121069         3.2944 
  54   0.0000       0.123765         3.3678 
  55   0.0000       0.146117         3.9761 
  56   0.0000       0.153673         4.1817 
  57   0.0000       0.161920         4.4061 
  58   0.0000       0.162013         4.4086 
  59   0.0000       0.167205         4.5499 
  60   0.0000       0.178901         4.8682 
  61   0.0000       0.180123         4.9014 
  62   0.0000       0.191577         5.2131 
  63   0.0000       0.195512         5.3202 
  64   0.0000       0.198551         5.4029 
  65   0.0000       0.201030         5.4703 
  66   0.0000       0.207298         5.6409 
  67   0.0000       0.210473         5.7273 
  68   0.0000       0.212790         5.7903 
  69   0.0000       0.214816         5.8454 
  70   0.0000       0.218817         5.9543 
  71   0.0000       0.231175         6.2906 
  72   0.0000       0.231731         6.3057 
  73   0.0000       0.242484         6.5983 
  74   0.0000       0.247986         6.7481 
  75   0.0000       0.251540         6.8448 
  76   0.0000       0.253253         6.8914 
  77   0.0000       0.260370         7.0850 
  78   0.0000       0.264971         7.2102 
  79   0.0000       0.265073         7.2130 
  80   0.0000       0.265378         7.2213 
  81   0.0000       0.275440         7.4951 
  82   0.0000       0.290841         7.9142 
  83   0.0000       0.291265         7.9257 
  84   0.0000       0.299944         8.1619 
  85   0.0000       0.305618         8.3163 
  86   0.0000       0.321966         8.7611 
  87   0.0000       0.326637         8.8882 
  88   0.0000       0.330754         9.0003 
  89   0.0000       0.333953         9.0873 
  90   0.0000       0.337338         9.1794 
  91   0.0000       0.343691         9.3523 
  92   0.0000       0.350988         9.5509 
  93   0.0000       0.370395        10.0790 
  94   0.0000       0.387290        10.5387 
  95   0.0000       0.389865        10.6088 
  96   0.0000       0.391219        10.6456 
  97   0.0000       0.392542        10.6816 
  98   0.0000       0.401713        10.9312 
  99   0.0000       0.417534        11.3617 
 100   0.0000       0.418299        11.3825 
 101   0.0000       0.422240        11.4897 
 102   0.0000       0.442759        12.0481 
 103   0.0000       0.445577        12.1248 
 104   0.0000       0.450896        12.2695 
 105   0.0000       0.464254        12.6330 
 106   0.0000       0.480469        13.0742 
 107   0.0000       0.485429        13.2092 
 108   0.0000       0.491577        13.3765 
 109   0.0000       0.494749        13.4628 
 110   0.0000       0.498736        13.5713 
 111   0.0000       0.507170        13.8008 
 112   0.0000       0.508798        13.8451 
 113   0.0000       0.510649        13.8955 
 114   0.0000       0.510925        13.9030 
 115   0.0000       0.516507        14.0549 
 116   0.0000       0.520681        14.1685 
 117   0.0000       0.532516        14.4905 
 118   0.0000       0.533294        14.5117 
 119   0.0000       0.546845        14.8804 
 120   0.0000       0.550827        14.9888 
 121   0.0000       0.557802        15.1786 
 122   0.0000       0.560697        15.2573 
 123   0.0000       0.560888        15.2625 
 124   0.0000       0.564118        15.3504 
 125   0.0000       0.564623        15.3642 
 126   0.0000       0.569826        15.5058 
 127   0.0000       0.570003        15.5106 
 128   0.0000       0.582439        15.8490 
 129   0.0000       0.586984        15.9727 
 130   0.0000       0.590144        16.0586 
 131   0.0000       0.591033        16.0828 
 132   0.0000       0.593579        16.1521 
 133   0.0000       0.596208        16.2236 
 134   0.0000       0.610605        16.6154 
 135   0.0000       0.618889        16.8408 
 136   0.0000       0.619671        16.8621 
 137   0.0000       0.631650        17.1881 
 138   0.0000       0.640100        17.4180 
 139   0.0000       0.646622        17.5955 
 140   0.0000       0.658933        17.9305 
 141   0.0000       0.674241        18.3470 
 142   0.0000       0.677137        18.4258 
 143   0.0000       0.686559        18.6822 
 144   0.0000       0.690689        18.7946 
 145   0.0000       0.702942        19.1280 
 146   0.0000       0.713137        19.4054 
 147   0.0000       0.734200        19.9786 
 148   0.0000       0.752111        20.4660 
 149   0.0000       0.757071        20.6010 
 150   0.0000       0.766700        20.8630 
 151   0.0000       0.782656        21.2972 
 152   0.0000       0.789743        21.4900 
 153   0.0000       0.792830        21.5740 
 154   0.0000       0.796245        21.6669 
 155   0.0000       0.811911        22.0932 
 156   0.0000       0.817768        22.2526 
 157   0.0000       0.840936        22.8830 
 158   0.0000       0.849765        23.1233 
 159   0.0000       0.876579        23.8529 
 160   0.0000       0.885098        24.0847 
 161   0.0000       0.886782        24.1306 
 162   0.0000       0.921977        25.0883 
 163   0.0000       0.932292        25.3690 
 164   0.0000       0.942796        25.6548 
 165   0.0000       0.945738        25.7348 
 166   0.0000       0.948222        25.8024 
 167   0.0000       0.951126        25.8815 
 168   0.0000       0.967580        26.3292 
 169   0.0000       0.976020        26.5589 
 170   0.0000       0.983959        26.7749 
 171   0.0000       0.993469        27.0337 
 172   0.0000       1.026936        27.9443 
 173   0.0000       1.045556        28.4510 
 174   0.0000       1.051677        28.6176 
 175   0.0000       1.058187        28.7947 
 176   0.0000       1.063765        28.9465 
 177   0.0000       1.071902        29.1679 
 178   0.0000       1.083031        29.4708 
 179   0.0000       1.085715        29.5438 
 180   0.0000       1.098124        29.8815 
 181   0.0000       1.116797        30.3896 
 182   0.0000       1.131590        30.7921 
 183   0.0000       1.137308        30.9477 
 184   0.0000       1.138624        30.9835 
 185   0.0000       1.149857        31.2892 
 186   0.0000       1.154725        31.4217 
 187   0.0000       1.158752        31.5313 
 188   0.0000       1.163193        31.6521 
 189   0.0000       1.178166        32.0595 
 190   0.0000       1.196479        32.5578 
 191   0.0000       1.196927        32.5700 
 192   0.0000       1.203637        32.7526 
 193   0.0000       1.242021        33.7971 
 194   0.0000       1.250359        34.0240 
 195   0.0000       1.254222        34.1291 
 196   0.0000       1.272936        34.6384 
 197   0.0000       1.278162        34.7805 
 198   0.0000       1.282360        34.8948 
 199   0.0000       1.301788        35.4235 
 200   0.0000       1.308938        35.6180 
 201   0.0000       1.333751        36.2932 
 202   0.0000       1.347031        36.6546 
 203   0.0000       1.353041        36.8181 
 204   0.0000       1.374735        37.4084 
 205   0.0000       1.378395        37.5080 
 206   0.0000       1.400212        38.1017 
 207   0.0000       1.412348        38.4319 
 208   0.0000       1.426930        38.8287 
 209   0.0000       1.457374        39.6572 
 210   0.0000       1.471750        40.0484 
 211   0.0000       1.472382        40.0655 
 212   0.0000       1.517695        41.2986 
 213   0.0000       1.557185        42.3732 
 214   0.0000       1.585425        43.1416 
 215   0.0000       1.587772        43.2055 
 216   0.0000       1.601692        43.5843 
 217   0.0000       1.612147        43.8688 
 218   0.0000       1.616356        43.9833 
 219   0.0000       1.630162        44.3590 
 220   0.0000       1.632984        44.4357 
 221   0.0000       1.640630        44.6438 
 222   0.0000       1.644189        44.7406 
 223   0.0000       1.644459        44.7480 
 224   0.0000       1.653380        44.9908 
 225   0.0000       1.659872        45.1674 
 226   0.0000       1.660466        45.1836 
 227   0.0000       1.666229        45.3404 
 228   0.0000       1.674076        45.5539 
 229   0.0000       1.681513        45.7563 
 230   0.0000       1.689579        45.9758 
 231   0.0000       1.693048        46.0702 
 232   0.0000       1.694916        46.1210 
 233   0.0000       1.695143        46.1272 
 234   0.0000       1.715903        46.6921 
 235   0.0000       1.717105        46.7248 
 236   0.0000       1.722011        46.8583 
 237   0.0000       1.724954        46.9384 
 238   0.0000       1.747473        47.5512 
 239   0.0000       1.750176        47.6247 
 240   0.0000       1.751844        47.6701 
 241   0.0000       1.754492        47.7421 
 242   0.0000       1.758588        47.8536 
 243   0.0000       1.768701        48.1288 
 244   0.0000       1.790715        48.7278 
 245   0.0000       1.791842        48.7585 
 246   0.0000       1.809304        49.2337 
 247   0.0000       1.811142        49.2837 
 248   0.0000       1.828089        49.7448 
 249   0.0000       1.833400        49.8894 
 250   0.0000       1.842265        50.1306 
 251   0.0000       1.854888        50.4741 
 252   0.0000       1.859600        50.6023 
 253   0.0000       1.865777        50.7704 
 254   0.0000       1.870540        50.9000 
 255   0.0000       1.875084        51.0236 
 256   0.0000       1.882012        51.2121 
 257   0.0000       1.939967        52.7892 
 258   0.0000       1.950175        53.0670 
 259   0.0000       1.967128        53.5283 
 260   0.0000       1.982336        53.9421 
 261   0.0000       1.987608        54.0856 
 262   0.0000       2.020735        54.9870 
 263   0.0000       2.027279        55.1651 
 264   0.0000       2.032297        55.3016 
 265   0.0000       2.055817        55.9416 
 266   0.0000       2.065690        56.2103 
 267   0.0000       2.084739        56.7286 
 268   0.0000       2.102734        57.2183 
 269   0.0000       2.111729        57.4631 
 270   0.0000       2.115101        57.5548 
 271   0.0000       2.125259        57.8312 
 272   0.0000       2.177299        59.2473 
 273   0.0000       2.183996        59.4295 
 274   0.0000       2.194759        59.7224 
 275   0.0000       2.204787        59.9953 
 276   0.0000       2.209550        60.1249 
 277   0.0000       2.217829        60.3502 
 278   0.0000       2.223654        60.5087 
 279   0.0000       2.226513        60.5865 
 280   0.0000       2.230143        60.6853 
 281   0.0000       2.268017        61.7159 
 282   0.0000       2.281932        62.0945 
 283   0.0000       2.302281        62.6482 
 284   0.0000       2.308149        62.8079 
 285   0.0000       2.323161        63.2164 
 286   0.0000       2.328952        63.3740 
 287   0.0000       2.346800        63.8597 
 288   0.0000       2.347960        63.8912 
 289   0.0000       2.384033        64.8728 
 290   0.0000       2.385381        64.9095 
 291   0.0000       2.392183        65.0946 
 292   0.0000       2.407419        65.5092 
 293   0.0000       2.408133        65.5286 
 294   0.0000       2.414812        65.7104 
 295   0.0000       2.424282        65.9681 
 296   0.0000       2.437124        66.3175 
 297   0.0000       2.437325        66.3230 
 298   0.0000       2.445580        66.5476 
 299   0.0000       2.449648        66.6583 
 300   0.0000       2.462054        66.9959 
 301   0.0000       2.467375        67.1407 
 302   0.0000       2.476852        67.3986 
 303   0.0000       2.477802        67.4244 
 304   0.0000       2.495740        67.9125 
 305   0.0000       2.497805        67.9687 
 306   0.0000       2.504861        68.1607 
 307   0.0000       2.542566        69.1867 
 308   0.0000       2.543872        69.2223 
 309   0.0000       2.544389        69.2363 
 310   0.0000       2.551364        69.4261 
 311   0.0000       2.571195        69.9658 
 312   0.0000       2.571667        69.9786 
 313   0.0000       2.591836        70.5274 
 314   0.0000       2.595395        70.6243 
 315   0.0000       2.602159        70.8083 
 316   0.0000       2.610998        71.0489 
 317   0.0000       2.620229        71.3001 
 318   0.0000       2.639235        71.8172 
 319   0.0000       2.655569        72.2617 
 320   0.0000       2.658153        72.3320 
 321   0.0000       2.668177        72.6048 
 322   0.0000       2.675649        72.8081 
 323   0.0000       2.692430        73.2647 
 324   0.0000       2.694019        73.3080 
 325   0.0000       2.695312        73.3432 
 326   0.0000       2.695720        73.3543 
 327   0.0000       2.698680        73.4348 
 328   0.0000       2.701558        73.5131 
 329   0.0000       2.733031        74.3696 
 330   0.0000       2.743473        74.6537 
 331   0.0000       2.763158        75.1893 
 332   0.0000       2.778555        75.6083 
 333   0.0000       2.778754        75.6137 
 334   0.0000       2.799268        76.1719 
 335   0.0000       2.802047        76.2476 
 336   0.0000       2.802670        76.2645 
 337   0.0000       2.809924        76.4619 
 338   0.0000       2.817908        76.6792 
 339   0.0000       2.828152        76.9579 
 340   0.0000       2.837227        77.2049 
 341   0.0000       2.856981        77.7424 
 342   0.0000       2.872947        78.1768 
 343   0.0000       2.875404        78.2437 
 344   0.0000       2.877682        78.3057 
 345   0.0000       2.884415        78.4889 
 346   0.0000       2.942553        80.0709 
 347   0.0000       2.952651        80.3457 
 348   0.0000       2.976410        80.9922 
 349   0.0000       2.986039        81.2543 
 350   0.0000       2.994490        81.4842 
 351   0.0000       2.996263        81.5325 
 352   0.0000       3.000301        81.6423 
 353   0.0000       3.006144        81.8013 
 354   0.0000       3.025595        82.3306 
 355   0.0000       3.029767        82.4441 
 356   0.0000       3.052881        83.0731 
 357   0.0000       3.074561        83.6631 
 358   0.0000       3.085478        83.9601 
 359   0.0000       3.086022        83.9749 
 360   0.0000       3.087159        84.0059 
 361   0.0000       3.118644        84.8626 
 362   0.0000       3.138940        85.4149 
 363   0.0000       3.147383        85.6446 
 364   0.0000       3.163475        86.0825 
 365   0.0000       3.175934        86.4216 
 366   0.0000       3.179156        86.5092 
 367   0.0000       3.188963        86.7761 
 368   0.0000       3.191637        86.8489 
 369   0.0000       3.212991        87.4299 
 370   0.0000       3.235218        88.0348 
 371   0.0000       3.237378        88.0935 
 372   0.0000       3.244508        88.2876 
 373   0.0000       3.251353        88.4738 
 374   0.0000       3.256339        88.6095 
 375   0.0000       3.256435        88.6121 
 376   0.0000       3.275587        89.1332 
 377   0.0000       3.283983        89.3617 
 378   0.0000       3.287189        89.4490 
 379   0.0000       3.292221        89.5859 
 380   0.0000       3.294594        89.6505 
 381   0.0000       3.307362        89.9979 
 382   0.0000       3.318407        90.2985 
 383   0.0000       3.321056        90.3705 
 384   0.0000       3.322665        90.4143 
 385   0.0000       3.341018        90.9137 
 386   0.0000       3.343118        90.9709 
 387   0.0000       3.359687        91.4217 
 388   0.0000       3.370878        91.7262 
 389   0.0000       3.375009        91.8387 
 390   0.0000       3.377789        91.9143 
 391   0.0000       3.388191        92.1974 
 392   0.0000       3.392238        92.3075 
 393   0.0000       3.407075        92.7112 
 394   0.0000       3.412053        92.8467 
 395   0.0000       3.420101        93.0657 
 396   0.0000       3.429665        93.3259 
 397   0.0000       3.440131        93.6107 
 398   0.0000       3.444709        93.7353 
 399   0.0000       3.451501        93.9201 
 400   0.0000       3.463151        94.2371 
 401   0.0000       3.482503        94.7637 
 402   0.0000       3.491535        95.0095 
 403   0.0000       3.497830        95.1808 
 404   0.0000       3.512248        95.5731 
 405   0.0000       3.513847        95.6166 
 406   0.0000       3.528567        96.0172 
 407   0.0000       3.544526        96.4515 
 408   0.0000       3.581724        97.4637 
 409   0.0000       3.590288        97.6967 
 410   0.0000       3.596011        97.8524 
 411   0.0000       3.619133        98.4816 
 412   0.0000       3.620724        98.5249 
 413   0.0000       3.631482        98.8177 
 414   0.0000       3.642560        99.1191 
 415   0.0000       3.646621        99.2296 
 416   0.0000       3.667284        99.7919 
 417   0.0000       3.670420        99.8772 
 418   0.0000       3.674349        99.9841 
 419   0.0000       3.677686       100.0749 
 420   0.0000       3.688062       100.3573 
 421   0.0000       3.690604       100.4264 
 422   0.0000       3.708749       100.9202 
 423   0.0000       3.757138       102.2369 
 424   0.0000       3.761065       102.3438 
 425   0.0000       3.761230       102.3483 
 426   0.0000       3.778594       102.8208 
 427   0.0000       3.794776       103.2611 
 428   0.0000       3.800853       103.4265 
 429   0.0000       3.800974       103.4298 
 430   0.0000       3.839052       104.4659 
 431   0.0000       3.846722       104.6746 
 432   0.0000       3.884037       105.6900 
 433   0.0000       3.891083       105.8818 
 434   0.0000       3.911380       106.4341 
 435   0.0000       3.921339       106.7051 
 436   0.0000       3.975465       108.1779 
 437   0.0000       3.980010       108.3016 
 438   0.0000       3.990971       108.5998 
 439   0.0000       4.025276       109.5333 
 440   0.0000       4.034240       109.7773 
 441   0.0000       4.063433       110.5716 
 442   0.0000       4.075413       110.8976 
 443   0.0000       4.090330       111.3035 
 444   0.0000       4.092553       111.3640 
 445   0.0000       4.096253       111.4647 
 446   0.0000       4.119005       112.0838 
 447   0.0000       4.120453       112.1232 
 448   0.0000       4.120837       112.1337 
 449   0.0000       4.158952       113.1708 
 450   0.0000       4.161480       113.2396 
 451   0.0000       4.170867       113.4951 
 452   0.0000       4.177056       113.6635 
 453   0.0000       4.197092       114.2087 
 454   0.0000       4.218365       114.7875 
 455   0.0000       4.237669       115.3128 
 456   0.0000       4.296574       116.9157 
 457   0.0000       4.329460       117.8106 
 458   0.0000       4.351584       118.4126 
 459   0.0000       4.393650       119.5573 
 460   0.0000       4.404581       119.8548 
 461   0.0000       4.415644       120.1558 
 462   0.0000       4.429039       120.5203 
 463   0.0000       4.437851       120.7601 
 464   0.0000       4.459410       121.3467 
 465   0.0000       4.473190       121.7217 
 466   0.0000       4.475606       121.7874 
 467   0.0000       4.482153       121.9656 
 468   0.0000       4.485006       122.0432 
 469   0.0000       4.494446       122.3001 
 470   0.0000       4.507141       122.6455 
 471   0.0000       4.530047       123.2689 
 472   0.0000       4.541843       123.5898 
 473   0.0000       4.554065       123.9224 
 474   0.0000       4.569201       124.3343 
 475   0.0000       4.583025       124.7105 
 476   0.0000       4.625832       125.8753 
 477   0.0000       4.660395       126.8158 
 478   0.0000       4.712439       128.2320 
 479   0.0000       4.731772       128.7581 
 480   0.0000       4.734236       128.8251 
 481   0.0000       4.746346       129.1546 
 482   0.0000       4.811894       130.9383 
 483   0.0000       4.885513       132.9416 
 484   0.0000       4.911771       133.6561 
 485   0.0000       4.916611       133.7878 
 486   0.0000       4.941001       134.4515 
 487   0.0000       4.988811       135.7524 
 488   0.0000       5.011586       136.3722 
 489   0.0000       5.038540       137.1057 
 490   0.0000       5.047321       137.3446 
 491   0.0000       5.059380       137.6727 
 492   0.0000       5.064282       137.8061 
 493   0.0000       5.069875       137.9583 
 494   0.0000       5.184105       141.0667 
 495   0.0000       5.202534       141.5682 
 496   0.0000       5.217671       141.9800 
[...]
     74       0.034654  -0.128616  -0.131179  -0.010046  -0.005405   0.010065
     75      -0.002425  -0.002331   0.002515  -0.000642   0.000403  -0.000184
     76      -0.014657   0.078690  -0.080709   0.006496  -0.003504   0.007583
     77      -0.033591   0.128410  -0.131395   0.010046  -0.005405   0.010065
     78      -0.002430   0.002329  -0.002512   0.000642  -0.000403   0.000184
     79       0.014587   0.078691  -0.080710   0.006496  -0.003504   0.007583
     80       0.033488   0.128415  -0.131399   0.010046  -0.005405   0.010065
     81       0.002509  -0.002334  -0.002509  -0.000642  -0.000403   0.000184
     82       0.015182   0.078812   0.080573   0.006495   0.003505  -0.007583
     83      -0.034784  -0.128611  -0.131175  -0.010045  -0.005406   0.010065
     84       0.009634  -0.009731  -0.009752  -0.000258  -0.000064  -0.000128
     85      -0.382398   0.393909   0.392236   0.009079   0.003344  -0.002320
     86      -0.104384   0.110144   0.109797   0.002676   0.000981  -0.000396
     87      -0.009308   0.009713  -0.009766   0.000258  -0.000064  -0.000128
     88      -0.369503   0.393209  -0.392813   0.009078  -0.003343   0.002320
     89       0.100869  -0.109950   0.109960  -0.002676   0.000981  -0.000396
     90      -0.009309  -0.009715   0.009768  -0.000258   0.000064   0.000128
     91       0.369479   0.393263  -0.392866   0.009078  -0.003343   0.002320
     92      -0.100858  -0.109963   0.109973  -0.002676   0.000981  -0.000396
     93       0.009633   0.009729   0.009750   0.000258   0.000064   0.000128
     94       0.382426   0.393848   0.392179   0.009078   0.003343  -0.002320
     95       0.104396   0.110128   0.109782   0.002676   0.000981  -0.000396
     96      -0.000906  -0.000001  -0.000001  -0.000000  -0.000000   0.000000
     97       0.000081   0.122552   0.128148   0.026096   0.015281   0.000811
     98      -0.000118  -0.177071  -0.184954  -0.036375  -0.020766   0.002403
     99       0.000874  -0.000001   0.000001  -0.000000   0.000000  -0.000000
    100      -0.000065   0.122366  -0.128368   0.026097  -0.015282  -0.000811
    101      -0.000094   0.176803  -0.185271   0.036376  -0.020766   0.002403


-----------
IR SPECTRUM
-----------

 Mode   freq       eps      Int      T**2         TX        TY        TZ
       cm**-1   L/(mol*cm) km/mol    a.u.
----------------------------------------------------------------------------
  6:     33.70   0.000096    0.48  0.000885  ( 0.029754  0.000001 -0.000001)
  7:     48.46   0.000000    0.00  0.000000  ( 0.000000 -0.000000  0.000000)
  8:     89.90   0.000084    0.42  0.000291  ( 0.017061 -0.000000 -0.000000)
  9:    103.81   0.000000    0.00  0.000000  (-0.000000  0.000000 -0.000000)
 10:    145.93   0.000015    0.08  0.000032  ( 0.000000 -0.000000  0.005674)
 11:    196.99   0.000000    0.00  0.000000  ( 0.000001 -0.000001 -0.000001)
 12:    205.87   0.000038    0.19  0.000057  ( 0.007560 -0.000000 -0.000000)
 13:    218.95   0.000000    0.00  0.000000  (-0.000001 -0.000000 -0.000001)
 14:    227.89   0.000000    0.00  0.000000  (-0.000000  0.000135 -0.000000)
 15:    275.92   0.000004    0.02  0.000005  ( 0.002204  0.000000  0.000000)
 16:    278.61   0.000000    0.00  0.000000  (-0.000000 -0.000000  0.000001)
 17:    281.95   0.000075    0.38  0.000083  ( 0.000001  0.000000  0.009127)
 18:    288.28   0.003464   17.50  0.003750  ( 0.061234  0.000001 -0.000000)
 19:    295.62   0.000012    0.06  0.000013  ( 0.000001  0.003615  0.000001)
 20:    297.49   0.000041    0.21  0.000043  (-0.000003  0.000001 -0.006554)
 21:    315.74   0.000145    0.73  0.000143  ( 0.000000  0.011975  0.000000)
 22:    323.74   0.000004    0.02  0.000004  (-0.000000 -0.000000  0.001912)
 23:    398.21   0.000109    0.55  0.000085  ( 0.009243  0.000001 -0.000000)
 24:    425.72   0.000200    1.01  0.000147  ( 0.000000 -0.012110 -0.000000)
 25:    475.87   0.000053    0.27  0.000035  (-0.000000 -0.000000  0.005919)
 26:    490.43   0.000000    0.00  0.000000  ( 0.000001 -0.000000  0.000001)
 27:    547.99   0.002272   11.48  0.001294  ( 0.000000  0.035972  0.000001)
 28:    615.11   0.001379    6.97  0.000700  (-0.000000  0.000000 -0.026453)
 29:    625.24   0.000459    2.32  0.000229  (-0.000000  0.015136  0.000000)
 30:    682.09   0.005471   27.65  0.002503  ( 0.050032 -0.000001 -0.000000)
 31:    712.37   0.000000    0.00  0.000000  ( 0.000002 -0.000001  0.000001)
 32:    749.43   0.000369    1.87  0.000154  (-0.000000 -0.000000  0.012400)
 33:    800.88   0.000205    1.03  0.000080  (-0.000000 -0.008933  0.000000)
 34:    889.55   0.003435   17.36  0.001205  ( 0.034715  0.000000  0.000000)
 35:    912.96   0.000011    0.06  0.000004  ( 0.000000  0.000000 -0.001954)
 36:    926.22   0.001112    5.62  0.000375  ( 0.000000 -0.019353 -0.000000)
 37:    959.16   0.000000    0.00  0.000000  (-0.000034  0.000000 -0.000000)
 38:    959.30   0.000960    4.85  0.000312  (-0.017669 -0.000000 -0.000000)
 39:    975.97   0.000000    0.00  0.000000  (-0.000003  0.000000 -0.000000)
 40:    976.69   0.000096    0.49  0.000031  ( 0.005547 -0.000000 -0.000000)
 41:    988.22   0.000075    0.38  0.000024  ( 0.000000 -0.000001  0.004872)
 42:   1067.87   0.000697    3.52  0.000204  ( 0.014267 -0.000000 -0.000000)
 43:   1078.27   0.000003    0.02  0.000001  ( 0.000000 -0.000999  0.000000)
 44:   1089.34   0.000000    0.00  0.000000  (-0.000000 -0.000001  0.000000)
 45:   1109.43   0.000844    4.26  0.000237  ( 0.000000 -0.000000 -0.015405)
 46:   1143.84   0.006385   32.27  0.001742  (-0.000000 -0.041737  0.000000)
 47:   1167.60   0.000204    1.03  0.000054  (-0.000000 -0.000000 -0.007382)
 48:   1180.28   0.000000    0.00  0.000000  ( 0.000001  0.000000 -0.000000)
 49:   1182.06   0.004920   24.86  0.001299  (-0.036041  0.000001  0.000000)
 50:   1210.55   0.000468    2.37  0.000121  (-0.000000 -0.010988 -0.000000)
 51:   1226.09   0.001937    9.79  0.000493  ( 0.000000  0.000000  0.022205)
 52:   1235.03   0.036099  182.43  0.009121  (-0.000000 -0.095506  0.000000)
 53:   1257.88   0.012491   63.12  0.003099  (-0.000000 -0.055667  0.000000)
 54:   1345.96   0.000789    3.99  0.000183  (-0.000000  0.000000  0.013525)
 55:   1369.46   0.000000    0.00  0.000000  (-0.000001  0.000000 -0.000000)
 56:   1369.77   0.000161    0.81  0.000037  ( 0.006056  0.000000 -0.000000)
 57:   1396.12   0.002706   13.68  0.000605  ( 0.000000 -0.024595 -0.000001)
 58:   1407.51   0.004894   24.73  0.001085  (-0.000000  0.000001 -0.032939)
 59:   1417.94   0.000000    0.00  0.000000  ( 0.000005  0.000000 -0.000001)
 60:   1418.11   0.007261   36.69  0.001598  ( 0.039973 -0.000000 -0.000000)
 61:   1426.40   0.001272    6.43  0.000278  ( 0.000001 -0.016681 -0.000001)
 62:   1430.12   0.002756   13.93  0.000601  (-0.000001  0.000000 -0.024523)
 63:   1433.91   0.002346   11.85  0.000510  (-0.000001 -0.022594 -0.000002)
 64:   1438.78   0.005972   30.18  0.001295  (-0.000001  0.000001 -0.035990)
 65:   1471.94   0.000000    0.00  0.000000  (-0.000030  0.000002 -0.000000)
 66:   1472.62   0.007248   36.63  0.001536  (-0.039190  0.000017  0.000000)
 67:   1473.28   0.005211   26.33  0.001104  ( 0.000020  0.033222 -0.000000)
 68:   1476.70   0.000064    0.32  0.000014  (-0.003686 -0.000001  0.000001)
 69:   1476.72   0.000000    0.00  0.000000  (-0.000056 -0.000000  0.000001)
 70:   1486.90   0.001433    7.24  0.000301  ( 0.000001  0.000000 -0.017342)
 71:   1488.27   0.000000    0.00  0.000000  ( 0.000004  0.000001 -0.000002)
 72:   1488.42   0.001226    6.20  0.000257  ( 0.016032 -0.000001  0.000002)
 73:   1491.94   0.002252   11.38  0.000471  ( 0.000000  0.021703 -0.000010)
 74:   1492.18   0.009398   47.49  0.001965  (-0.000001  0.000005  0.044333)
 75:   1496.03   0.001807    9.13  0.000377  ( 0.000000 -0.019417 -0.000001)
 76:   1499.09   0.000772    3.90  0.000161  ( 0.000000 -0.000001 -0.012680)
 77:   1508.77   0.000048    0.24  0.000010  (-0.000000  0.003152  0.000000)
 78:   1526.75   0.000667    3.37  0.000136  (-0.000000  0.000000  0.011674)
 79:   1633.34   0.031466  159.02  0.006012  (-0.000000  0.077536  0.000000)
 80:   1712.19   0.006584   33.27  0.001200  (-0.000000  0.000000 -0.034640)
 81:   3070.47   0.007802   39.43  0.000793  ( 0.028158  0.000000  0.000001)
 82:   3070.53   0.000000    0.00  0.000000  (-0.000025  0.000000  0.000002)
 83:   3072.66   0.000179    0.90  0.000018  (-0.000003  0.004261  0.000019)
 84:   3072.70   0.003967   20.05  0.000403  (-0.000001 -0.000004  0.020071)
 85:   3077.60   0.003836   19.38  0.000389  (-0.000000 -0.019721 -0.000001)
 86:   3078.95   0.001751    8.85  0.000177  (-0.000000 -0.000002  0.013323)
 87:   3140.17   0.001300    6.57  0.000129  ( 0.000000  0.000143 -0.011367)
 88:   3140.19   0.000613    3.10  0.000061  ( 0.000001  0.007799  0.000210)
 89:   3146.28   0.003493   17.65  0.000346  (-0.018614  0.000000  0.000000)
 90:   3146.43   0.000000    0.00  0.000000  ( 0.000001  0.000000  0.000000)
 91:   3150.53   0.003536   17.87  0.000350  ( 0.018714  0.000000 -0.000000)
 92:   3150.62   0.000000    0.00  0.000000  (-0.000003  0.000000 -0.000001)
 93:   3162.91   0.000997    5.04  0.000098  ( 0.000004  0.009914 -0.000183)
 94:   3162.96   0.012436   62.85  0.001227  ( 0.000000 -0.000050 -0.035029)
 95:   3163.73   0.003853   19.47  0.000380  (-0.019494  0.000006 -0.000001)
 96:   3163.73   0.000001    0.01  0.000000  ( 0.000335 -0.000001  0.000009)
 97:   3167.05   0.016594   83.86  0.001635  (-0.000002 -0.040436 -0.000003)
 98:   3167.17   0.000055    0.28  0.000005  (-0.000000  0.000033 -0.002331)
 99:   3179.64   0.001865    9.43  0.000183  ( 0.000000 -0.013530 -0.000001)
100:   3184.55   0.001987   10.04  0.000195  (-0.000000  0.000000 -0.013953)
101:   3297.72   0.009207   46.53  0.000871  (-0.000000  0.000000  0.029518)

* The epsilon (eps) is given for a Dirac delta lineshape.
** The dipole moment derivative (T) already includes vibrational overlap.

The first frequency considered to be a vibration is 6
The total number of vibrations considered is 96


--------------------------
THERMOCHEMISTRY AT 298.15K
--------------------------

Temperature         ... 298.15 K
Pressure            ... 1.00 atm
Total Mass          ... 181.30 AMU

Throughout the following assumptions are being made:
  (1) The electronic state is orbitally nondegenerate
  (2) There are no thermally accessible electronically excited states
  (3) Hindered rotations indicated by low frequency modes are not
      treated as such but are treated as vibrations and this may
      cause some error
  (4) All equations used are the standard statistical mechanics
      equations for an ideal gas
  (5) All vibrations are strictly harmonic

freq.      33.70  E(vib)   ...       0.55 
freq.      48.46  E(vib)   ...       0.53 
freq.      89.90  E(vib)   ...       0.47 
freq.     103.81  E(vib)   ...       0.46 
freq.     145.93  E(vib)   ...       0.41 
freq.     196.99  E(vib)   ...       0.35 
freq.     205.87  E(vib)   ...       0.35 
freq.     218.95  E(vib)   ...       0.33 
freq.     227.89  E(vib)   ...       0.33 
freq.     275.92  E(vib)   ...       0.28 
freq.     278.61  E(vib)   ...       0.28 
freq.     281.95  E(vib)   ...       0.28 
freq.     288.28  E(vib)   ...       0.27 
freq.     295.62  E(vib)   ...       0.27 
freq.     297.49  E(vib)   ...       0.27 
freq.     315.74  E(vib)   ...       0.25 
freq.     323.74  E(vib)   ...       0.25 
freq.     398.21  E(vib)   ...       0.20 
freq.     425.72  E(vib)   ...       0.18 
freq.     475.87  E(vib)   ...       0.15 
freq.     490.43  E(vib)   ...       0.15 
freq.     547.99  E(vib)   ...       0.12 
freq.     615.11  E(vib)   ...       0.10 
freq.     625.24  E(vib)   ...       0.09 
freq.     682.09  E(vib)   ...       0.08 
freq.     712.37  E(vib)   ...       0.07 
freq.     749.43  E(vib)   ...       0.06 
freq.     800.88  E(vib)   ...       0.05 
freq.     889.55  E(vib)   ...       0.04 
freq.     912.96  E(vib)   ...       0.03 
freq.     926.22  E(vib)   ...       0.03 
freq.     959.16  E(vib)   ...       0.03 
freq.     959.30  E(vib)   ...       0.03 
freq.     975.97  E(vib)   ...       0.03 
freq.     976.69  E(vib)   ...       0.03 
freq.     988.22  E(vib)   ...       0.02 
freq.    1067.87  E(vib)   ...       0.02 
freq.    1078.27  E(vib)   ...       0.02 
freq.    1089.34  E(vib)   ...       0.02 
freq.    1109.43  E(vib)   ...       0.02 
freq.    1143.84  E(vib)   ...       0.01 
freq.    1167.60  E(vib)   ...       0.01 
freq.    1180.28  E(vib)   ...       0.01 
freq.    1182.06  E(vib)   ...       0.01 
freq.    1210.55  E(vib)   ...       0.01 
freq.    1226.09  E(vib)   ...       0.01 
freq.    1235.03  E(vib)   ...       0.01 
freq.    1257.88  E(vib)   ...       0.01 
freq.    1345.96  E(vib)   ...       0.01 
freq.    1369.46  E(vib)   ...       0.01 
freq.    1369.77  E(vib)   ...       0.01 
freq.    1396.12  E(vib)   ...       0.00 
freq.    1407.51  E(vib)   ...       0.00 
freq.    1417.94  E(vib)   ...       0.00 
freq.    1418.11  E(vib)   ...       0.00 
freq.    1426.40  E(vib)   ...       0.00 
freq.    1430.12  E(vib)   ...       0.00 
freq.    1433.91  E(vib)   ...       0.00 
freq.    1438.78  E(vib)   ...       0.00 
freq.    1471.94  E(vib)   ...       0.00 
freq.    1472.62  E(vib)   ...       0.00 
freq.    1473.28  E(vib)   ...       0.00 
freq.    1476.70  E(vib)   ...       0.00 
freq.    1476.72  E(vib)   ...       0.00 
freq.    1486.90  E(vib)   ...       0.00 
freq.    1488.27  E(vib)   ...       0.00 
freq.    1488.42  E(vib)   ...       0.00 
freq.    1491.94  E(vib)   ...       0.00 
freq.    1492.18  E(vib)   ...       0.00 
freq.    1496.03  E(vib)   ...       0.00 
freq.    1499.09  E(vib)   ...       0.00 
freq.    1508.77  E(vib)   ...       0.00 
freq.    1526.75  E(vib)   ...       0.00 
freq.    1633.34  E(vib)   ...       0.00 
freq.    1712.19  E(vib)   ...       0.00 
freq.    3070.47  E(vib)   ...       0.00 
freq.    3070.53  E(vib)   ...       0.00 
freq.    3072.66  E(vib)   ...       0.00 
freq.    3072.70  E(vib)   ...       0.00 
freq.    3077.60  E(vib)   ...       0.00 
freq.    3078.95  E(vib)   ...       0.00 
freq.    3140.17  E(vib)   ...       0.00 
freq.    3140.19  E(vib)   ...       0.00 
freq.    3146.28  E(vib)   ...       0.00 
freq.    3146.43  E(vib)   ...       0.00 
freq.    3150.53  E(vib)   ...       0.00 
freq.    3150.62  E(vib)   ...       0.00 
freq.    3162.91  E(vib)   ...       0.00 
freq.    3162.96  E(vib)   ...       0.00 
freq.    3163.73  E(vib)   ...       0.00 
freq.    3163.73  E(vib)   ...       0.00 
freq.    3167.05  E(vib)   ...       0.00 
freq.    3167.17  E(vib)   ...       0.00 
freq.    3179.64  E(vib)   ...       0.00 
freq.    3184.55  E(vib)   ...       0.00 
freq.    3297.72  E(vib)   ...       0.00 

------------
INNER ENERGY
------------

The inner energy is: U= E(el) + E(ZPE) + E(vib) + E(rot) + E(trans)
    E(el)   - is the total energy from the electronic structure calculation
              = E(kin-el) + E(nuc-el) + E(el-el) + E(nuc-nuc)
    E(ZPE)  - the the zero temperature vibrational energy from the frequency calculation
    E(vib)  - the the finite temperature correction to E(ZPE) due to population
              of excited vibrational states
    E(rot)  - is the rotational thermal energy
    E(trans)- is the translational thermal energy

Summary of contributions to the inner energy U:
Electronic energy                ...   -541.27720851 Eh
Zero point energy                ...      0.31280220 Eh     196.29 kcal/mol
Thermal vibrational correction   ...      0.01214523 Eh       7.62 kcal/mol
Thermal rotational correction    ...      0.00141627 Eh       0.89 kcal/mol
Thermal translational correction ...      0.00141627 Eh       0.89 kcal/mol
-----------------------------------------------------------------------
Total thermal energy                   -540.94942853 Eh


Summary of corrections to the electronic energy:
(perhaps to be used in another calculation)
Total thermal correction                  0.01497778 Eh       9.40 kcal/mol
Non-thermal (ZPE) correction              0.31280220 Eh     196.29 kcal/mol
-----------------------------------------------------------------------
Total correction                          0.32777998 Eh     205.68 kcal/mol


--------
ENTHALPY
--------

The enthalpy is H = U + kB*T
                kB is Boltzmann's constant
Total free energy                 ...   -540.94942853 Eh 
Thermal Enthalpy correction       ...      0.00094421 Eh       0.59 kcal/mol
-----------------------------------------------------------------------
Total Enthalpy                    ...   -540.94848433 Eh


Note: Rotational entropy computed according to Herzberg 
Infrared and Raman Spectra, Chapter V,1, Van Nostrand Reinhold, 1945 
Point Group:  C2v, Symmetry Number:   2  
Rotational constants in cm-1:     0.035461     0.019321     0.015014 

Vibrational entropy computed according to the QRRHO of S. Grimme
Chem.Eur.J. 2012 18 9955


-------
ENTROPY
-------

The entropy contributions are T*S = T*(S(el)+S(vib)+S(rot)+S(trans))
     S(el)   - electronic entropy
     S(vib)  - vibrational entropy
     S(rot)  - rotational entropy
     S(trans)- translational entropy
The entropies will be listed as multiplied by the temperature to get
units of energy

Electronic entropy                ...      0.00000000 Eh      0.00 kcal/mol
Vibrational entropy               ...      0.02091388 Eh     13.12 kcal/mol
Rotational entropy                ...      0.01427817 Eh      8.96 kcal/mol
Translational entropy             ...      0.01971392 Eh     12.37 kcal/mol
-----------------------------------------------------------------------
Final entropy term                ...      0.05490597 Eh     34.45 kcal/mol

In case the symmetry of your molecule has not been determined correctly
or in case you have a reason to use a different symmetry number we print 
out the resulting rotational entropy values for sn=1,12 :
 --------------------------------------------------------
|  sn= 1 | S(rot)=       0.01493262 Eh      9.37 kcal/mol|
|  sn= 2 | S(rot)=       0.01427817 Eh      8.96 kcal/mol|
|  sn= 3 | S(rot)=       0.01389534 Eh      8.72 kcal/mol|
|  sn= 4 | S(rot)=       0.01362371 Eh      8.55 kcal/mol|
|  sn= 5 | S(rot)=       0.01341302 Eh      8.42 kcal/mol|
|  sn= 6 | S(rot)=       0.01324088 Eh      8.31 kcal/mol|
|  sn= 7 | S(rot)=       0.01309533 Eh      8.22 kcal/mol|
|  sn= 8 | S(rot)=       0.01296926 Eh      8.14 kcal/mol|
|  sn= 9 | S(rot)=       0.01285805 Eh      8.07 kcal/mol|
|  sn=10 | S(rot)=       0.01275857 Eh      8.01 kcal/mol|
|  sn=11 | S(rot)=       0.01266858 Eh      7.95 kcal/mol|
|  sn=12 | S(rot)=       0.01258642 Eh      7.90 kcal/mol|
 --------------------------------------------------------


-------------------
GIBBS FREE ENERGY
-------------------

The Gibbs free energy is G = H - T*S

Total enthalpy                    ...   -540.94848433 Eh 
Total entropy correction          ...     -0.05490597 Eh    -34.45 kcal/mol
-----------------------------------------------------------------------
Final Gibbs free energy         ...   -541.00339030 Eh

For completeness - the Gibbs free energy minus the electronic energy
G-E(el)                           ...      0.27381822 Eh    171.82 kcal/mol


Timings for individual modules:

Sum of individual times         ...     4972.217 sec (=  82.870 min)
GTO integral calculation        ...        5.089 sec (=   0.085 min)   0.1 %
SCF iterations                  ...     1363.091 sec (=  22.718 min)  27.4 %
SCF Gradient evaluation         ...      349.127 sec (=   5.819 min)   7.0 %
Geometry relaxation             ...        0.363 sec (=   0.006 min)   0.0 %
Analytical frequency calculation...     3254.548 sec (=  54.242 min)  65.5 %
                             ****ORCA TERMINATED NORMALLY****
TOTAL RUN TIME: 0 days 1 hours 22 minutes 54 seconds 541 msec
