
                                 *****************
                                 * O   R   C   A *
                                 *****************

                                            #,                                       
                                            ###                                      
                                            ####                                     
                                            #####                                    
                                            ######                                   
                                           ########,                                 
                                     ,,################,,,,,                         
                               ,,#################################,,                 
                          ,,##########################################,,             
                       ,#########################################, ''#####,          
                    ,#############################################,,   '####,        
                  ,##################################################,,,,####,       
                ,###########''''           ''''###############################       
              ,#####''   ,,,,##########,,,,          '''####'''          '####       
            ,##' ,,,,###########################,,,                        '##       
           ' ,,###''''                  '''############,,,                           
         ,,##''                                '''############,,,,        ,,,,,,###''
      ,#''                                            '''#######################'''  
     '                                                          ''''####''''         
             ,#######,   #######,   ,#######,      ##                                
            ,#'     '#,  ##    ##  ,#'     '#,    #''#        ######   ,####,        
            ##       ##  ##   ,#'  ##            #'  '#       #        #'  '#        
            ##       ##  #######   ##           ,######,      #####,   #    #        
            '#,     ,#'  ##    ##  '#,     ,#' ,#      #,         ##   #,  ,#        
             '#######'   ##     ##  '#######'  #'      '#     #####' # '####'        



                  #######################################################
                  #                        -***-                        #
                  #          Department of theory and spectroscopy      #
                  #    Directorship and core code : Frank Neese         #
                  #        Max Planck Institute fuer Kohlenforschung    #
                  #                Kaiser Wilhelm Platz 1               #
                  #                 D-45470 Muelheim/Ruhr               #
                  #                      Germany                        #
                  #                                                     #
                  #                  All rights reserved                #
                  #                        -***-                        #
                  #######################################################


                         Program Version 5.0.4 -  RELEASE  -


 With contributions from (in alphabetic order):
   Daniel Aravena         : Magnetic Suceptibility
   Michael Atanasov       : Ab Initio Ligand Field Theory (pilot matlab implementation)
   Alexander A. Auer      : GIAO ZORA, VPT2 properties, NMR spectrum
   Ute Becker             : Parallelization
   Giovanni Bistoni       : ED, misc. LED, open-shell LED, HFLD
   Martin Brehm           : Molecular dynamics
   Dmytro Bykov           : SCF Hessian
   Vijay G. Chilkuri      : MRCI spin determinant printing, contributions to CSF-ICE
   Dipayan Datta          : RHF DLPNO-CCSD density
   Achintya Kumar Dutta   : EOM-CC, STEOM-CC
   Dmitry Ganyushin       : Spin-Orbit,Spin-Spin,Magnetic field MRCI
   Miquel Garcia          : C-PCM and meta-GGA Hessian, CC/C-PCM, Gaussian charge scheme
   Yang Guo               : DLPNO-NEVPT2, F12-NEVPT2, CIM, IAO-localization
   Andreas Hansen         : Spin unrestricted coupled pair/coupled cluster methods
   Benjamin Helmich-Paris : MC-RPA, TRAH-SCF, COSX integrals
   Lee Huntington         : MR-EOM, pCC
   Robert Izsak           : Overlap fitted RIJCOSX, COSX-SCS-MP3, EOM
   Marcus Kettner         : VPT2
   Christian Kollmar      : KDIIS, OOCD, Brueckner-CCSD(T), CCSD density, CASPT2, CASPT2-K
   Simone Kossmann        : Meta GGA functionals, TD-DFT gradient, OOMP2, MP2 Hessian
   Martin Krupicka        : Initial AUTO-CI
   Lucas Lang             : DCDCAS
   Marvin Lechner         : AUTO-CI (C++ implementation), FIC-MRCC
   Dagmar Lenk            : GEPOL surface, SMD
   Dimitrios Liakos       : Extrapolation schemes; Compound Job, initial MDCI parallelization
   Dimitrios Manganas     : Further ROCIS development; embedding schemes
   Dimitrios Pantazis     : SARC Basis sets
   Anastasios Papadopoulos: AUTO-CI, single reference methods and gradients
   Taras Petrenko         : DFT Hessian,TD-DFT gradient, ASA, ECA, R-Raman, ABS, FL, XAS/XES, NRVS
   Peter Pinski           : DLPNO-MP2, DLPNO-MP2 Gradient
   Christoph Reimann      : Effective Core Potentials
   Marius Retegan         : Local ZFS, SOC
   Christoph Riplinger    : Optimizer, TS searches, QM/MM, DLPNO-CCSD(T), (RO)-DLPNO pert. Triples
   Tobias Risthaus        : Range-separated hybrids, TD-DFT gradient, RPA, STAB
   Michael Roemelt        : Original ROCIS implementation
   Masaaki Saitow         : Open-shell DLPNO-CCSD energy and density
   Barbara Sandhoefer     : DKH picture change effects
   Avijit Sen             : IP-ROCIS
   Kantharuban Sivalingam : CASSCF convergence, NEVPT2, FIC-MRCI
   Bernardo de Souza      : ESD, SOC TD-DFT
   Georgi Stoychev        : AutoAux, RI-MP2 NMR, DLPNO-MP2 response
   Willem Van den Heuvel  : Paramagnetic NMR
   Boris Wezisla          : Elementary symmetry handling
   Frank Wennmohs         : Technical directorship


 We gratefully acknowledge several colleagues who have allowed us to
 interface, adapt or use parts of their codes:
   Stefan Grimme, W. Hujo, H. Kruse, P. Pracht,  : VdW corrections, initial TS optimization,
                  C. Bannwarth, S. Ehlert          DFT functionals, gCP, sTDA/sTD-DF
   Ed Valeev, F. Pavosevic, A. Kumar             : LibInt (2-el integral package), F12 methods
   Garnet Chan, S. Sharma, J. Yang, R. Olivares  : DMRG
   Ulf Ekstrom                                   : XCFun DFT Library
   Mihaly Kallay                                 : mrcc  (arbitrary order and MRCC methods)
   Jiri Pittner, Ondrej Demel                    : Mk-CCSD
   Frank Weinhold                                : gennbo (NPA and NBO analysis)
   Christopher J. Cramer and Donald G. Truhlar   : smd solvation model
   Lars Goerigk                                  : TD-DFT with DH, B97 family of functionals
   V. Asgeirsson, H. Jonsson                     : NEB implementation
   FAccTs GmbH                                   : IRC, NEB, NEB-TS, DLPNO-Multilevel, CI-OPT
                                                   MM, QMMM, 2- and 3-layer-ONIOM, Crystal-QMMM,
                                                   LR-CPCM, SF, NACMEs, symmetry and pop. for TD-DFT,
                                                   nearIR, NL-DFT gradient (VV10), updates on ESD,
                                                   ML-optimized integration grids
   S Lehtola, MJT Oliveira, MAL Marques          : LibXC Library
   Liviu Ungur et al                             : ANISO software


 Your calculation uses the libint2 library for the computation of 2-el integrals
 For citations please refer to: http://libint.valeyev.net

 Your ORCA version has been built with support for libXC version: 5.1.0
 For citations please refer to: https://tddft.org/programs/libxc/

 This ORCA versions uses:
   CBLAS   interface :  Fast vector & matrix operations
   LAPACKE interface :  Fast linear algebra routines
   SCALAPACK package :  Parallel linear algebra routines
   Shared memory     :  Shared parallel matrices
   BLAS/LAPACK       :  OpenBLAS 0.3.15  USE64BITINT DYNAMIC_ARCH NO_AFFINITY SkylakeX SINGLE_THREADED
        Core in use  :  SkylakeX
   Copyright (c) 2011-2014, The OpenBLAS Project




***************************************
The coordinates will be read from file: 7_prot.xyz
***************************************


Your calculation utilizes the atom-pairwise dispersion correction
based on tight binding partial charges (D4)
Cite in your paper:
E.Caldeweyher, C.Bannwarth, S.Grimme, J.Chem.Phys., (2017), 147, 034112.
E.Caldeweyher, S.Ehlert, A.Hansen, H.Neugebauer, S.Grimme, J.Chem.Phys., (2018), in progress.
   

XCFun DFT library Copyright 2009-2010 Ulf Ekstrom and contributors.
See http://admol.org/xcfun for more information.
This is free software; see the source code for copying conditions.
There is ABSOLUTELY NO WARRANTY; not even for MERCHANTABILITY or FITNESS FOR A PARTICULAR PURPOSE.
For details see the documentation.
Scientific users of this library should cite U. Ekstrom, L. Visscher, R. Bast, A. J. Thorvaldsen and K. Ruud;
J.Chem.Theor.Comp. 2010, DOI: 10.1021/ct100117s
XCFun Version 0.99 

================================================================================

----- Orbital basis set information -----
Your calculation utilizes the basis: def2-TZVP
   F. Weigend and R. Ahlrichs, Phys. Chem. Chem. Phys. 7, 3297 (2005).

----- AuxJ basis set information -----
Your calculation utilizes the auxiliary basis: def2/J
   F. Weigend, Phys. Chem. Chem. Phys. 8, 1057 (2006).

================================================================================
                                        WARNINGS
                       Please study these warnings very carefully!
================================================================================


WARNING: Geometry Optimization
  ===> : Switching off AutoStart
         For restart on a previous wavefunction, please use MOREAD

INFO   : the flag for use of the SHARK integral package has been found!

================================================================================
                                       INPUT FILE
================================================================================
NAME = 7_prot.inp
|  1> # ORCA 5.0.4 - /users/bwb16179/postgrad/2024_06/pKa_Reviewer_Comments/Aq_Z=1/7_prot.inp # write input file
|  2> # Basic Mode
|  3> #
|  4> ! Opt Freq wB97X Def2-TZVP D4 SlowConv TightSCF Defgrid2 Def2/J RIJCOSX CPCM(Water)
|  5> 
|  6> %PAL NPROCS 4 END
|  7> 
|  8> %maxcore 4500
|  9> 
| 10> %geom
| 11> Maxiter 150
| 12> END
| 13> 
| 14> * xyzfile 1 1 7_prot.xyz
| 15> 
| 16>                          ****END OF INPUT****
================================================================================

                       *****************************
                       * Geometry Optimization Run *
                       *****************************

Geometry optimization settings:
Update method            Update   .... BFGS
Choice of coordinates    CoordSys .... Z-matrix Internals
Initial Hessian          InHess   .... Almoef's Model

Convergence Tolerances:
Energy Change            TolE     ....  5.0000e-06 Eh
Max. Gradient            TolMAXG  ....  3.0000e-04 Eh/bohr
RMS Gradient             TolRMSG  ....  1.0000e-04 Eh/bohr
Max. Displacement        TolMAXD  ....  4.0000e-03 bohr
RMS Displacement         TolRMSD  ....  2.0000e-03 bohr
Strict Convergence                ....  False
------------------------------------------------------------------------------
                        ORCA OPTIMIZATION COORDINATE SETUP
------------------------------------------------------------------------------

The optimization will be done in new redundant internal coordinates
Making redundant internal coordinates   ...  (new redundants) done
Evaluating the initial hessian          ...  (Almloef) done
Evaluating the coordinates              ...  done
Calculating the B-matrix                .... done
Calculating the G-matrix                .... done
Diagonalizing the G-matrix              .... done
Small eigenvalue found = 5.339e-03
Small eigenvalue found = 1.134e-02
The first mode is                       ....   75
The number of degrees of freedom        ....   84

    -----------------------------------------------------------------
                    Redundant Internal Coordinates


    -----------------------------------------------------------------
         Definition                    Initial Value    Approx d2E/dq
    -----------------------------------------------------------------
      1. B(C   1,C   0)                  1.3582         0.702251   
      2. B(H   2,C   0)                  1.0881         0.362598   
      3. B(H   3,C   1)                  1.0881         0.362598   
      4. B(C   5,C   4)                  1.3933         0.617324   
      5. B(C   6,C   4)                  1.3936         0.616539   
      6. B(C   7,C   5)                  1.3935         0.616891   
      7. B(H   8,C   5)                  1.0934         0.355670   
      8. B(C   9,C   6)                  1.3931         0.617669   
      9. B(H  10,C   6)                  1.0933         0.355697   
     10. B(C  11,C   9)                  1.3955         0.612214   
     11. B(C  11,C   7)                  1.3949         0.613735   
     12. B(H  12,C   7)                  1.0929         0.356228   
     13. B(H  13,C   9)                  1.0931         0.356074   
     14. B(H  14,C  11)                  1.0932         0.355827   
     15. B(C  16,C  15)                  1.3933         0.617323   
     16. B(C  17,C  15)                  1.3936         0.616540   
     17. B(C  18,C  16)                  1.3935         0.616892   
     18. B(H  19,C  16)                  1.0934         0.355671   
     19. B(C  20,C  17)                  1.3931         0.617670   
     20. B(H  21,C  17)                  1.0933         0.355696   
     21. B(C  22,C  20)                  1.3955         0.612213   
     22. B(C  22,C  18)                  1.3949         0.613734   
     23. B(H  23,C  18)                  1.0929         0.356228   
     24. B(H  24,C  20)                  1.0931         0.356074   
     25. B(H  25,C  22)                  1.0933         0.355826   
     26. B(H  27,C  26)                  1.0907         0.359171   
     27. B(N  28,C  26)                  1.3325         0.691304   
     28. B(N  28,C   4)                  1.4364         0.471843   
     29. B(N  28,C   0)                  1.3830         0.574128   
     30. B(N  29,C  15)                  1.4364         0.471840   
     31. B(N  29,C   1)                  1.3830         0.574129   
     32. B(N  29,C  26)                  1.3325         0.691306   
     33. A(C   1,C   0,N  28)          106.9283         0.434942   
     34. A(C   1,C   0,H   2)          131.1249         0.360881   
     35. A(H   2,C   0,N  28)          121.9438         0.346626   
     36. A(C   0,C   1,N  29)          106.9283         0.434942   
     37. A(H   3,C   1,N  29)          121.9438         0.346626   
     38. A(C   0,C   1,H   3)          131.1249         0.360881   
     39. A(C   5,C   4,N  28)          119.3170         0.410400   
     40. A(C   5,C   4,C   6)          121.6388         0.433292   
     41. A(C   6,C   4,N  28)          119.0443         0.410308   
     42. A(C   4,C   5,H   8)          120.2922         0.351913   
     43. A(C   4,C   5,C   7)          118.8981         0.433336   
     44. A(C   7,C   5,H   8)          120.8051         0.351871   
     45. A(C   4,C   6,H  10)          120.2873         0.351842   
     46. A(C   9,C   6,H  10)          120.8656         0.351951   
     47. A(C   4,C   6,C   9)          118.8431         0.433335   
     48. A(C  11,C   7,H  12)          120.2912         0.351660   
     49. A(C   5,C   7,H  12)          119.4891         0.351965   
     50. A(C   5,C   7,C  11)          120.2160         0.432882   
     51. A(C   6,C   9,H  13)          119.5180         0.352014   
     52. A(C   6,C   9,C  11)          120.2647         0.432787   
     53. A(C  11,C   9,H  13)          120.2142         0.351486   
     54. A(C   7,C  11,C   9)          120.1344         0.432290   
     55. A(C   9,C  11,H  14)          119.9680         0.351445   
     56. A(C   7,C  11,H  14)          119.8976         0.351592   
     57. A(C  17,C  15,N  29)          119.0443         0.410308   
     58. A(C  16,C  15,N  29)          119.3170         0.410400   
     59. A(C  16,C  15,C  17)          121.6388         0.433292   
     60. A(C  18,C  16,H  19)          120.8051         0.351872   
     61. A(C  15,C  16,H  19)          120.2922         0.351913   
     62. A(C  15,C  16,C  18)          118.8981         0.433336   
     63. A(C  20,C  17,H  21)          120.8656         0.351951   
     64. A(C  15,C  17,H  21)          120.2873         0.351842   
     65. A(C  15,C  17,C  20)          118.8431         0.433336   
     66. A(C  22,C  18,H  23)          120.2913         0.351659   
     67. A(C  16,C  18,H  23)          119.4891         0.351965   
     68. A(C  16,C  18,C  22)          120.2159         0.432882   
     69. A(C  17,C  20,H  24)          119.5180         0.352014   
     70. A(C  17,C  20,C  22)          120.2647         0.432787   
     71. A(C  22,C  20,H  24)          120.2141         0.351486   
     72. A(C  18,C  22,C  20)          120.1344         0.432290   
     73. A(C  20,C  22,H  25)          119.9680         0.351445   
     74. A(C  18,C  22,H  25)          119.8976         0.351592   
     75. A(N  28,C  26,N  29)          108.5593         0.445555   
     76. A(H  27,C  26,N  29)          125.7204         0.357110   
     77. A(H  27,C  26,N  28)          125.7203         0.357110   
     78. A(C   4,N  28,C  26)          125.2378         0.416027   
     79. A(C   0,N  28,C  26)          108.7919         0.430877   
     80. A(C   0,N  28,C   4)          125.9687         0.402565   
     81. A(C  15,N  29,C  26)          125.2378         0.416027   
     82. A(C   1,N  29,C  26)          108.7920         0.430878   
     83. A(C   1,N  29,C  15)          125.9687         0.402564   
     84. D(H   3,C   1,C   0,N  28)   -179.5141         0.034752   
     85. D(H   3,C   1,C   0,H   2)      1.1220         0.034752   
     86. D(N  29,C   1,C   0,H   2)   -179.5140         0.034752   
     87. D(N  29,C   1,C   0,N  28)     -0.1502         0.034752   
     88. D(C   7,C   5,C   4,C   6)     -0.5905         0.026356   
     89. D(C   7,C   5,C   4,N  28)    179.3916         0.026356   
     90. D(H   8,C   5,C   4,N  28)     -1.3803         0.026356   
     91. D(H   8,C   5,C   4,C   6)    178.6375         0.026356   
     92. D(H  10,C   6,C   4,C   5)    179.2596         0.026286   
     93. D(H  10,C   6,C   4,N  28)     -0.7226         0.026286   
     94. D(C   9,C   6,C   4,N  28)    179.9974         0.026286   
     95. D(C   9,C   6,C   4,C   5)     -0.0205         0.026286   
     96. D(H  12,C   7,C   5,C   4)   -179.9738         0.026317   
     97. D(C  11,C   7,C   5,H   8)   -178.4973         0.026317   
     98. D(C  11,C   7,C   5,C   4)      0.7266         0.026317   
     99. D(H  12,C   7,C   5,H   8)      0.8023         0.026317   
    100. D(H  13,C   9,C   6,H  10)      0.5784         0.026388   
    101. D(C  11,C   9,C   6,C   4)      0.4986         0.026388   
    102. D(C  11,C   9,C   6,H  10)   -178.7771         0.026388   
    103. D(H  13,C   9,C   6,C   4)    179.8541         0.026388   
    104. D(H  14,C  11,C   9,H  13)      0.3681         0.025897   
    105. D(C   7,C  11,C   9,H  13)   -179.7126         0.025897   
    106. D(C   7,C  11,C   9,C   6)     -0.3616         0.025897   
    107. D(H  14,C  11,C   7,H  12)      0.3640         0.026033   
    108. D(H  14,C  11,C   7,C   5)    179.6579         0.026033   
    109. D(H  14,C  11,C   9,C   6)    179.7191         0.025897   
    110. D(C   9,C  11,C   7,H  12)   -179.5554         0.026033   
    111. D(C   9,C  11,C   7,C   5)     -0.2615         0.026033   
    112. D(C  18,C  16,C  15,C  17)     -0.5905         0.026356   
    113. D(C  18,C  16,C  15,N  29)    179.3917         0.026356   
    114. D(H  19,C  16,C  15,C  17)    178.6375         0.026356   
    115. D(H  19,C  16,C  15,N  29)     -1.3804         0.026356   
    116. D(H  21,C  17,C  15,N  29)     -0.7227         0.026286   
    117. D(H  21,C  17,C  15,C  16)    179.2595         0.026286   
    118. D(C  20,C  17,C  15,N  29)    179.9973         0.026286   
    119. D(C  20,C  17,C  15,C  16)     -0.0205         0.026286   
    120. D(H  23,C  18,C  16,H  19)      0.8024         0.026317   
    121. D(H  23,C  18,C  16,C  15)   -179.9737         0.026317   
    122. D(C  22,C  18,C  16,H  19)   -178.4973         0.026317   
    123. D(C  22,C  18,C  16,C  15)      0.7266         0.026317   
    124. D(H  24,C  20,C  17,H  21)      0.5785         0.026388   
    125. D(H  24,C  20,C  17,C  15)    179.8542         0.026388   
    126. D(C  22,C  20,C  17,H  21)   -178.7771         0.026388   
    127. D(C  22,C  20,C  17,C  15)      0.4985         0.026388   
    128. D(H  25,C  22,C  20,H  24)      0.3681         0.025897   
    129. D(H  25,C  22,C  20,C  17)    179.7192         0.025897   
    130. D(C  18,C  22,C  20,H  24)   -179.7126         0.025897   
    131. D(C  18,C  22,C  20,C  17)     -0.3615         0.025897   
    132. D(H  25,C  22,C  18,H  23)      0.3639         0.026033   
    133. D(H  25,C  22,C  18,C  16)    179.6579         0.026033   
    134. D(C  20,C  22,C  18,H  23)   -179.5555         0.026033   
    135. D(C  20,C  22,C  18,C  16)     -0.2615         0.026033   
    136. D(C   0,N  28,C  26,N  29)     -0.0477         0.039449   
    137. D(C   0,N  28,C  26,H  27)    179.9524         0.039449   
    138. D(C  26,N  28,C   4,C   6)    132.5238         0.017551   
    139. D(C  26,N  28,C   4,C   5)    -47.4588         0.017551   
    140. D(C   0,N  28,C   4,C   6)    -47.9785         0.017551   
    141. D(C   0,N  28,C   4,C   5)    132.0389         0.017551   
    142. D(C  26,N  28,C   0,H   2)    179.5604         0.026403   
    143. D(C  26,N  28,C   0,C   1)      0.1251         0.026403   
    144. D(C   4,N  28,C   0,H   2)     -0.0062         0.026403   
    145. D(C   4,N  28,C  26,H  27)     -0.4770         0.039449   
    146. D(C   4,N  28,C   0,C   1)   -179.4415         0.026403   
    147. D(C   4,N  28,C  26,N  29)    179.5229         0.039449   
    148. D(C  15,N  29,C  26,N  28)    179.5229         0.039450   
    149. D(C   1,N  29,C  26,N  28)     -0.0475         0.039450   
    150. D(C   1,N  29,C  26,H  27)    179.9524         0.039450   
    151. D(C  26,N  29,C  15,C  17)    132.5242         0.017551   
    152. D(C  26,N  29,C  15,C  16)    -47.4584         0.017551   
    153. D(C   1,N  29,C  15,C  17)    -47.9783         0.017551   
    154. D(C   1,N  29,C  15,C  16)    132.0391         0.017551   
    155. D(C  26,N  29,C   1,H   3)    179.5604         0.026404   
    156. D(C  26,N  29,C   1,C   0)      0.1250         0.026404   
    157. D(C  15,N  29,C  26,H  27)     -0.4772         0.039450   
    158. D(C  15,N  29,C   1,H   3)     -0.0061         0.026404   
    159. D(C  15,N  29,C   1,C   0)   -179.4415         0.026404   
    -----------------------------------------------------------------

Number of atoms                         .... 30
Number of degrees of freedom            .... 159

         *************************************************************
         *                GEOMETRY OPTIMIZATION CYCLE   1            *
         *************************************************************
---------------------------------
CARTESIAN COORDINATES (ANGSTROEM)
---------------------------------
  C      0.005705    0.679070   -1.865586
  C     -0.005711   -0.679070   -1.865586
  H      0.003694    1.394770   -2.685202
  H     -0.003702   -1.394770   -2.685202
  C      0.006825    2.439614   -0.073877
  C     -0.894250    2.818275    0.919046
  C      0.910267    3.346084   -0.625498
  C     -0.878546    4.134505    1.376255
  H     -1.608558    2.094479    1.320717
  C      0.906085    4.661921   -0.167953
  H      1.615970    3.022105   -1.395195
  C      0.017005    5.055680    0.833055
  H     -1.580889    4.441888    2.155199
  H      1.611615    5.381529   -0.591242
  H      0.021030    6.088413    1.191721
  C     -0.006827   -2.439614   -0.073876
  C      0.894247   -2.818273    0.919049
  C     -0.910265   -3.346086   -0.625499
  C      0.878547   -4.134503    1.376257
  H      1.608553   -2.094476    1.320721
  C     -0.906081   -4.661923   -0.167955
  H     -1.615968   -3.022108   -1.395197
  C     -0.017001   -5.055680    0.833054
  H      1.580889   -4.441884    2.155203
  H     -1.611607   -5.381533   -0.591246
  H     -0.021023   -6.088414    1.191719
  C     -0.000000    0.000000    0.235440
  H      0.000001    0.000001    1.326143
  N      0.007357    1.081772   -0.542492
  N     -0.007361   -1.081771   -0.542492

----------------------------
CARTESIAN COORDINATES (A.U.)
----------------------------
  NO LB      ZA    FRAG     MASS         X           Y           Z
   0 C     6.0000    0    12.011    0.010781    1.283256   -3.525447
   1 C     6.0000    0    12.011   -0.010792   -1.283256   -3.525447
   2 H     1.0000    0     1.008    0.006981    2.635733   -5.074296
   3 H     1.0000    0     1.008   -0.006996   -2.635733   -5.074296
   4 C     6.0000    0    12.011    0.012897    4.610202   -0.139607
   5 C     6.0000    0    12.011   -1.689888    5.325768    1.736745
   6 C     6.0000    0    12.011    1.720155    6.323182   -1.182020
   7 C     6.0000    0    12.011   -1.660211    7.813082    2.600745
   8 H     1.0000    0     1.008   -3.039734    3.957992    2.495793
   9 C     6.0000    0    12.011    1.712253    8.809754   -0.317385
  10 H     1.0000    0     1.008    3.053741    5.710951   -2.636536
  11 C     6.0000    0    12.011    0.032135    9.553851    1.574246
  12 H     1.0000    0     1.008   -2.987447    8.393952    4.072736
  13 H     1.0000    0     1.008    3.045511   10.169616   -1.117285
  14 H     1.0000    0     1.008    0.039741   11.505433    2.252026
  15 C     6.0000    0    12.011   -0.012901   -4.610202   -0.139605
  16 C     6.0000    0    12.011    1.689882   -5.325764    1.736751
  17 C     6.0000    0    12.011   -1.720152   -6.323186   -1.182022
  18 C     6.0000    0    12.011    1.660213   -7.813078    2.600749
  19 H     1.0000    0     1.008    3.039725   -3.957986    2.495801
  20 C     6.0000    0    12.011   -1.712245   -8.809758   -0.317389
  21 H     1.0000    0     1.008   -3.053737   -5.710956   -2.636540
  22 C     6.0000    0    12.011   -0.032127   -9.553851    1.574244
  23 H     1.0000    0     1.008    2.987447   -8.393944    4.072743
  24 H     1.0000    0     1.008   -3.045496  -10.169624   -1.117293
  25 H     1.0000    0     1.008   -0.039728  -11.505435    2.252023
  26 C     6.0000    0    12.011   -0.000000    0.000000    0.444917
  27 H     1.0000    0     1.008    0.000002    0.000002    2.506047
  28 N     7.0000    0    14.007    0.013903    2.044253   -1.025161
  29 N     7.0000    0    14.007   -0.013910   -2.044251   -1.025161

--------------------------------
INTERNAL COORDINATES (ANGSTROEM)
--------------------------------
 C      0   0   0     0.000000000000     0.00000000     0.00000000
 C      1   0   0     1.358187978395     0.00000000     0.00000000
 H      1   2   0     1.088118064172   131.12487594     0.00000000
 H      2   1   3     1.088118060477   131.12487728     1.12203549
 C      1   2   3     2.511919101209   134.49564622   179.00152286
 C      5   1   2     1.393275418744   134.30820805   295.93355629
 C      5   1   2     1.393621554047   100.01103287   139.48629487
 C      6   5   1     1.393466217099   118.89810084   206.93899715
 H      6   5   1     1.093369178604   120.29219037    26.16705164
 C      7   5   1     1.393123083836   118.84308015   160.35440401
 H      7   5   1     1.093349252736   120.28733427   339.63443952
 C      8   6   5     1.394862435592   120.21600710     0.72661774
 H      8   6   5     1.092942703656   119.48905300   180.02622773
 H     10   7   5     1.093060763217   119.51796874   179.85409598
 H     12   8   6     1.093249719630   119.89760129   179.65792694
 C      2   1   3     2.511919812711   134.49562920   180.12357049
 C     16   2   1     1.393275653768   134.30828940   295.93384120
 C     16   2   1     1.393621053499   100.01096330   139.48657751
 C     17  16   2     1.393465843917   118.89813462   206.93905974
 H     17  16   2     1.093368901345   120.29220841    26.16697423
 C     18  16   2     1.393122761411   118.84311489   160.35443526
 H     18  16   2     1.093349660400   120.28731321   339.63441116
 C     19  17  16     1.394862998592   120.21594030     0.72655800
 H     19  17  16     1.092942923963   119.48906933   180.02626370
 H     21  18  16     1.093060272564   119.51802304   179.85415531
 H     23  19  17     1.093250325161   119.89755914   179.65790797
 C      1   2   3     2.208048655397    72.08812149   179.43899417
 H     27   1   2     1.090703000001   162.08806852   180.00009663
 N     27   1   2     1.332465002188    36.36782977   180.12580053
 N     27   1   2     1.332464212422    72.19151232     0.07826906

---------------------------
INTERNAL COORDINATES (A.U.)
---------------------------
 C      0   0   0     0.000000000000     0.00000000     0.00000000
 C      1   0   0     2.566603317550     0.00000000     0.00000000
 H      1   2   0     2.056245142657   131.12487594     0.00000000
 H      2   1   3     2.056245135676   131.12487728     1.12203549
 C      1   2   3     4.746839171850   134.49564622   179.00152286
 C      5   1   2     2.632908970550   134.30820805   295.93355629
 C      5   1   2     2.633563071479   100.01103287   139.48629487
 C      6   5   1     2.633269527189   118.89810084   206.93899715
 H      6   5   1     2.066168310832   120.29219037    26.16705164
 C      7   5   1     2.632621099295   118.84308015   160.35440401
 H      7   5   1     2.066130656399   120.28733427   339.63443952
 C      8   6   5     2.635907997763   120.21600710     0.72661774
 H      8   6   5     2.065362389977   119.48905300   180.02622773
 H     10   7   5     2.065585490215   119.51796874   179.85409598
 H     12   8   6     2.065942566086   119.89760129   179.65792694
 C      2   1   3     4.746840516395   134.49562920   180.12357049
 C     16   2   1     2.632909414681   134.30828940   295.93384120
 C     16   2   1     2.633562125581   100.01096330   139.48657751
 C     17  16   2     2.633268821977   118.89813462   206.93905974
 H     17  16   2     2.066167786889   120.29220841    26.16697423
 C     18  16   2     2.632620489999   118.84311489   160.35443526
 H     18  16   2     2.066131426772   120.28731321   339.63441116
 C     19  17  16     2.635909061680   120.21594030     0.72655800
 H     19  17  16     2.065362806297   119.48906933   180.02626370
 H     21  18  16     2.065584563015   119.51802304   179.85415531
 H     23  19  17     2.065943710375   119.89755914   179.65790797
 C      1   2   3     4.172607249074    72.08812149   179.43899417
 H     27   1   2     2.061129963448   162.08806852   180.00009663
 N     27   1   2     2.517993937171    36.36782977   180.12580053
 N     27   1   2     2.517992444729    72.19151232     0.07826906

---------------------
BASIS SET INFORMATION
---------------------
There are 3 groups of distinct atoms

 Group   1 Type C   : 11s6p2d1f contracted to 5s3p2d1f pattern {62111/411/11/1}
 Group   2 Type H   : 5s1p contracted to 3s1p pattern {311/1}
 Group   3 Type N   : 11s6p2d1f contracted to 5s3p2d1f pattern {62111/411/11/1}

Atom   0C    basis set group =>   1
Atom   1C    basis set group =>   1
Atom   2H    basis set group =>   2
Atom   3H    basis set group =>   2
Atom   4C    basis set group =>   1
Atom   5C    basis set group =>   1
Atom   6C    basis set group =>   1
Atom   7C    basis set group =>   1
Atom   8H    basis set group =>   2
Atom   9C    basis set group =>   1
Atom  10H    basis set group =>   2
Atom  11C    basis set group =>   1
Atom  12H    basis set group =>   2
Atom  13H    basis set group =>   2
Atom  14H    basis set group =>   2
Atom  15C    basis set group =>   1
Atom  16C    basis set group =>   1
Atom  17C    basis set group =>   1
Atom  18C    basis set group =>   1
Atom  19H    basis set group =>   2
Atom  20C    basis set group =>   1
Atom  21H    basis set group =>   2
Atom  22C    basis set group =>   1
Atom  23H    basis set group =>   2
Atom  24H    basis set group =>   2
Atom  25H    basis set group =>   2
Atom  26C    basis set group =>   1
Atom  27H    basis set group =>   2
Atom  28N    basis set group =>   3
Atom  29N    basis set group =>   3
---------------------------------
AUXILIARY/J BASIS SET INFORMATION
---------------------------------
There are 3 groups of distinct atoms

 Group   1 Type C   : 12s5p4d2f1g contracted to 6s4p3d1f1g pattern {711111/2111/211/2/1}
 Group   2 Type H   : 5s2p1d contracted to 3s1p1d pattern {311/2/1}
 Group   3 Type N   : 12s5p4d2f1g contracted to 6s4p3d1f1g pattern {711111/2111/211/2/1}

Atom   0C    basis set group =>   1
Atom   1C    basis set group =>   1
Atom   2H    basis set group =>   2
Atom   3H    basis set group =>   2
Atom   4C    basis set group =>   1
Atom   5C    basis set group =>   1
Atom   6C    basis set group =>   1
Atom   7C    basis set group =>   1
Atom   8H    basis set group =>   2
Atom   9C    basis set group =>   1
Atom  10H    basis set group =>   2
Atom  11C    basis set group =>   1
Atom  12H    basis set group =>   2
Atom  13H    basis set group =>   2
Atom  14H    basis set group =>   2
Atom  15C    basis set group =>   1
Atom  16C    basis set group =>   1
Atom  17C    basis set group =>   1
Atom  18C    basis set group =>   1
Atom  19H    basis set group =>   2
Atom  20C    basis set group =>   1
Atom  21H    basis set group =>   2
Atom  22C    basis set group =>   1
Atom  23H    basis set group =>   2
Atom  24H    basis set group =>   2
Atom  25H    basis set group =>   2
Atom  26C    basis set group =>   1
Atom  27H    basis set group =>   2
Atom  28N    basis set group =>   3
Atom  29N    basis set group =>   3


           ************************************************************
           *        Program running with 4 parallel MPI-processes     *
           *              working on a common directory               *
           ************************************************************
------------------------------------------------------------------------------
                           ORCA GTO INTEGRAL CALCULATION
                           -- RI-GTO INTEGRALS CHOSEN --
------------------------------------------------------------------------------
------------------------------------------------------------------------------
                   ___                                                        
                  /   \      - P O W E R E D   B Y -                         
                 /     \                                                     
                 |  |  |   _    _      __       _____    __    __             
                 |  |  |  | |  | |    /  \     |  _  \  |  |  /  |          
                  \  \/   | |  | |   /    \    | | | |  |  | /  /          
                 / \  \   | |__| |  /  /\  \   | |_| |  |  |/  /          
                |  |  |   |  __  | /  /__\  \  |    /   |      \           
                |  |  |   | |  | | |   __   |  |    \   |  |\   \          
                \     /   | |  | | |  |  |  |  | |\  \  |  | \   \       
                 \___/    |_|  |_| |__|  |__|  |_| \__\ |__|  \__/        
                                                                              
                      - O R C A' S   B I G   F R I E N D -                    
                                      &                                       
                       - I N T E G R A L  F E E D E R -                       
                                                                              
 v1 FN, 2020, v2 2021                                                         
------------------------------------------------------------------------------


Reading SHARK input file 7_prot.SHARKINP.tmp ... ok
----------------------
SHARK INTEGRAL PACKAGE
----------------------

Number of atoms                             ...     30
Number of basis functions                   ...    605
Number of shells                            ...    239
Maximum angular momentum                    ...      3
Integral batch strategy                     ... SHARK/LIBINT Hybrid
RI-J (if used) integral strategy            ... SPLIT-RIJ (Revised 2003 algorithm where possible)
Printlevel                                  ...      1
Contraction scheme used                     ... SEGMENTED contraction
Coulomb Range Separation                    ... NOT USED
Exchange Range Separation                   ... Long Range
   Mu parameter                             ...  0.300000
   Scaling (regular/separated)              ...  0.157706  0.842294
Finite Nucleus Model                        ... NOT USED
Auxiliary Coulomb fitting basis             ... AVAILABLE
   # of basis functions in Aux-J            ...    976
   # of shells in Aux-J                     ...    320
   Maximum angular momentum in Aux-J        ...      4
Auxiliary J/K fitting basis                 ... NOT available
Auxiliary Correlation fitting basis         ... NOT available
Auxiliary 'external' fitting basis          ... NOT available
Integral threshold                          ...     2.500000e-11
Primitive cut-off                           ...     2.500000e-12
Primitive pair pre-selection threshold      ...     2.500000e-12

Calculating pre-screening integrals         ... done (  0.1 sec) Dimension = 239
Organizing shell pair data                  ... done (  0.2 sec)
Shell pair information
Total number of shell pairs                 ...     28680
Shell pairs after pre-screening             ...     20959
Total number of primitive shell pairs       ...     87984
Primitive shell pairs kept                  ...     44380
          la=0 lb=0:   5423 shell pairs
          la=1 lb=0:   6004 shell pairs
          la=1 lb=1:   1672 shell pairs
          la=2 lb=0:   3014 shell pairs
          la=2 lb=1:   1670 shell pairs
          la=2 lb=2:    436 shell pairs
          la=3 lb=0:   1432 shell pairs
          la=3 lb=1:    804 shell pairs
          la=3 lb=2:    398 shell pairs
          la=3 lb=3:    106 shell pairs

Calculating one electron integrals          ... done (  0.1 sec)
Calculating RI/J V-Matrix + Cholesky decomp.... done (  0.1 sec)
Calculating Nuclear repulsion               ... done (  0.0 sec) ENN=   1056.673439275032 Eh

SHARK setup successfully completed in   0.8 seconds

Maximum memory used throughout the entire GTOINT-calculation: 34.1 MB


           ************************************************************
           *        Program running with 4 parallel MPI-processes     *
           *              working on a common directory               *
           ************************************************************
-------------------------------------------------------------------------------
                                 ORCA SCF
-------------------------------------------------------------------------------

------------
SCF SETTINGS
------------
Hamiltonian:
 Density Functional     Method          .... DFT(GTOs)
 Exchange Functional    Exchange        .... WB97X
 Correlation Functional Correlation     .... WB97X
 Gradients option       PostSCFGGA      .... off
 Hybrid DFT is turned on
   Fraction HF Exchange ScalHFX         ....  0.157706
   Scaling of DF-GGA-X  ScalDFX         ....  0.000000
   Scaling of DF-GGA-C  ScalDFC         ....  1.000000
   Scaling of DF-LDA-C  ScalLDAC        ....  1.000000
   Perturbative correction              ....  0.000000
   Density functional embedding theory  .... OFF
 Long-range corrected/Screened/Range-Separated Hybrid DFT is turned on
   Amount of maximum screened exact exchange              ....  0.842294
   Range separation parameter mu (erf(mu*r12)/r12)        ....  0.300000
 RI-approximation to the Coulomb term is turned on
   Number of AuxJ basis functions       .... 976
   RIJ-COSX (HFX calculated with COS-X)).... on


General Settings:
 Integral files         IntName         .... 7_prot
 Hartree-Fock type      HFTyp           .... RHF
 Total Charge           Charge          ....    1
 Multiplicity           Mult            ....    1
 Number of Electrons    NEL             ....  116
 Basis Dimension        Dim             ....  605
 Nuclear Repulsion      ENuc            ....   1056.6734392750 Eh

Convergence Acceleration:
 DIIS                   CNVDIIS         .... on
   Start iteration      DIISMaxIt       ....     0
   Startup error        DIISStart       ....  0.200000
   # of expansion vecs  DIISMaxEq       ....     5
   Bias factor          DIISBfac        ....   1.050
   Max. coefficient     DIISMaxC        ....  10.000
 Trust-Rad. Augm. Hess. CNVTRAH         .... auto
   Auto Start mean grad. ratio tolernc. ....  1.125000
   Auto Start start iteration           ....    20
   Auto Start num. interpolation iter.  ....    10
   Max. Number of Micro iterations      ....    16
   Max. Number of Macro iterations      .... Maxiter - #DIIS iter
   Number of Davidson start vectors     ....     2
   Converg. threshold I  (grad. norm)   ....   1.000e-05
   Converg. threshold II (energy diff.) ....   1.000e-08
   Grad. Scal. Fac. for Micro threshold ....   0.100
   Minimum threshold for Micro iter.    ....   0.010
   NR start threshold (gradient norm)   ....   0.001
   Initial trust radius                 ....   0.400
   Minimum AH scaling param. (alpha)    ....   1.000
   Maximum AH scaling param. (alpha)    .... 1000.000
   Orbital update algorithm             .... Taylor
   White noise on init. David. guess    .... on
   Maximum white noise                  ....   0.010
   Quad. conv. algorithm                .... NR
 SOSCF                  CNVSOSCF        .... on
   Start iteration      SOSCFMaxIt      ....   150
   Startup grad/error   SOSCFStart      ....  0.001000
 Level Shifting         CNVShift        .... on
   Level shift para.    LevelShift      ....    0.2500
   Turn off err/grad.   ShiftErr        ....    0.0000
 Zerner damping         CNVZerner       .... off
 Static damping         CNVDamp         .... on
   Fraction old density DampFac         ....    0.8500
   Max. Damping (<1)    DampMax         ....    0.9800
   Min. Damping (>=0)   DampMin         ....    0.0000
   Turn off err/grad.   DampErr         ....    0.0300
 Fernandez-Rico         CNVRico         .... off

SCF Procedure:
 Maximum # iterations   MaxIter         ....   125
 SCF integral mode      SCFMode         .... Direct
   Integral package                     .... SHARK and LIBINT hybrid scheme
 Reset frequency        DirectResetFreq ....    20
 Integral Threshold     Thresh          ....  2.500e-11 Eh
 Primitive CutOff       TCut            ....  2.500e-12 Eh

Convergence Tolerance:
 Convergence Check Mode ConvCheckMode   .... Total+1el-Energy
 Convergence forced     ConvForced      .... 0
 Energy Change          TolE            ....  1.000e-08 Eh
 1-El. energy change                    ....  1.000e-05 Eh
 Orbital Gradient       TolG            ....  1.000e-05
 Orbital Rotation angle TolX            ....  1.000e-05
 DIIS Error             TolErr          ....  5.000e-07


Diagonalization of the overlap matrix:
Smallest eigenvalue                        ... 8.725e-06
Time for diagonalization                   ...    0.071 sec
Threshold for overlap eigenvalues          ... 1.000e-08
Number of eigenvalues below threshold      ... 0
Time for construction of square roots      ...    0.075 sec
Total time needed                          ...    0.148 sec

Time for model grid setup =    0.326 sec

------------------------------
INITIAL GUESS: MODEL POTENTIAL
------------------------------
Loading Hartree-Fock densities                     ... done
Calculating cut-offs                               ... done
Initializing the effective Hamiltonian             ... done
Setting up the integral package (SHARK)            ... done
Starting the Coulomb interaction                   ... done (   0.7 sec)
Reading the grid                                   ... done
Mapping shells                                     ... done
Starting the XC term evaluation                    ... done (   0.5 sec)
  promolecular density results
     # of electrons  =    116.991944706
     EX              =    -93.695288223
     EC              =     -3.911524183
     EX+EC           =    -97.606812406
Transforming the Hamiltonian                       ... done (   0.0 sec)
Diagonalizing the Hamiltonian                      ... done (   0.1 sec)
Back transforming the eigenvectors                 ... done (   0.0 sec)
Now organizing SCF variables                       ... done
                      ------------------
                      INITIAL GUESS DONE (   1.7 sec)
                      ------------------
-------------------
DFT GRID GENERATION
-------------------

General Integration Accuracy     IntAcc      ... 4.388
Radial Grid Type                 RadialGrid  ... OptM3 with GC (2021)
Angular Grid (max. ang.)         AngularGrid ... 4 (Lebedev-302)
Angular grid pruning method      GridPruning ... 4 (adaptive)
Weight generation scheme         WeightScheme... Becke
Basis function cutoff            BFCut       ... 1.0000e-11
Integration weight cutoff        WCut        ... 1.0000e-14
Angular grids for H and He will be reduced by one unit
Partially contracted basis set               ... off
Rotationally invariant grid construction     ... off

Total number of grid points                  ...   143467
Total number of batches                      ...     2254
Average number of points per batch           ...       63
Average number of grid points per atom       ...     4782
Time for grid setup =    1.323 sec

--------------------
COSX GRID GENERATION
--------------------

GRIDX 1
-------
General Integration Accuracy     IntAcc      ... 3.816
Radial Grid Type                 RadialGrid  ... OptM3 with GC (2021)
Angular Grid (max. ang.)         AngularGrid ... 1 (Lebedev-50)
Angular grid pruning method      GridPruning ... 4 (adaptive)
Weight generation scheme         WeightScheme... Becke
Basis function cutoff            BFCut       ... 1.0000e-11
Integration weight cutoff        WCut        ... 1.0000e-14
Angular grids for H and He will be reduced by one unit
Partially contracted basis set               ... on
Rotationally invariant grid construction     ... off

Total number of grid points                  ...    18290
Total number of batches                      ...      293
Average number of points per batch           ...       62
Average number of grid points per atom       ...      610
UseSFitting                                  ... on

GRIDX 2
-------
General Integration Accuracy     IntAcc      ... 4.020
Radial Grid Type                 RadialGrid  ... OptM3 with GC (2021)
Angular Grid (max. ang.)         AngularGrid ... 2 (Lebedev-110)
Angular grid pruning method      GridPruning ... 4 (adaptive)
Weight generation scheme         WeightScheme... Becke
Basis function cutoff            BFCut       ... 1.0000e-11
Integration weight cutoff        WCut        ... 1.0000e-14
Angular grids for H and He will be reduced by one unit
Partially contracted basis set               ... on
Rotationally invariant grid construction     ... off

Total number of grid points                  ...    39925
Total number of batches                      ...      638
Average number of points per batch           ...       62
Average number of grid points per atom       ...     1331
UseSFitting                                  ... on

GRIDX 3
-------
General Integration Accuracy     IntAcc      ... 4.338
Radial Grid Type                 RadialGrid  ... OptM3 with GC (2021)
Angular Grid (max. ang.)         AngularGrid ... 3 (Lebedev-194)
Angular grid pruning method      GridPruning ... 4 (adaptive)
Weight generation scheme         WeightScheme... Becke
Basis function cutoff            BFCut       ... 1.0000e-11
Integration weight cutoff        WCut        ... 1.0000e-14
Angular grids for H and He will be reduced by one unit
Partially contracted basis set               ... on
Rotationally invariant grid construction     ... off

Total number of grid points                  ...    87364
Total number of batches                      ...     1377
Average number of points per batch           ...       63
Average number of grid points per atom       ...     2912
UseSFitting                                  ... on

Time for X-Grid setup             =    1.935 sec


--------------------
CPCM SOLVATION MODEL
--------------------
CPCM parameters:
  Epsilon                                         ...      80.4000
  Refrac                                          ...       1.3300
  Rsolv                                           ...       1.3000
  Surface type                                    ... GAUSSIAN VDW
  Epsilon function type                           ...         CPCM
Radii:
 Radius for C  used is    3.8550 Bohr (=   2.0400 Ang.)
 Radius for H  used is    2.4944 Bohr (=   1.3200 Ang.)
 Radius for N  used is    3.5149 Bohr (=   1.8600 Ang.)
Calculating surface                               ...        done! (  0.0s)
GEPOL surface points                              ...         1619
GEPOL Volume                                      ...    1864.9807
GEPOL Surface-area                                ...     971.9981
Calculating surface distance matrix               ...        done! (  0.0s)
Performing Cholesky decomposition & store         ...        done! (  0.1s)
Overall time for CPCM initialization              ...                 0.1s
--------------
SCF ITERATIONS
--------------
ITER       Energy         Delta-E        Max-DP      RMS-DP      [F,P]     Damp
               ***  Starting incremental Fock matrix formation  ***
  0   -688.5614988904   0.000000000000 0.01106115  0.00024903  0.1247906 0.8500
  1   -688.6170139908  -0.055515100361 0.00958519  0.00024834  0.0997450 0.8500
                               ***Turning on DIIS***
  2   -688.6595218551  -0.042507864313 0.00804513  0.00020976  0.0755057 0.8500
  3   -688.6912069093  -0.031685054218 0.00646177  0.00016918  0.0561761 0.8500
  4   -688.7157496286  -0.024542719293 0.00539430  0.00014183  0.0441651 0.8500
  5   -688.7351480302  -0.019398401621 0.00463317  0.00012173  0.0363277 0.8500
  6   -688.7509571154  -0.015809085133 0.00401568  0.00010517  0.0305102 0.8500
  7   -688.7640720489  -0.013114933586 0.02337448  0.00060849  0.0258264 0.0000
  8   -688.8344974488  -0.070425399875 0.00094654  0.00002302  0.0011854 0.0000
                      *** Initiating the SOSCF procedure ***
                           *** Shutting down DIIS ***
                      *** Re-Reading the Fockian *** 
                      *** Removing any level shift *** 
ITER      Energy       Delta-E        Grad      Rot      Max-DP    RMS-DP
  9   -688.83452968  -0.0000322280  0.000696  0.000696  0.000458  0.000012
               *** Restarting incremental Fock matrix formation ***
 10   -688.83447780   0.0000518725  0.000310  0.000777  0.001852  0.000035
 11   -688.83448098  -0.0000031747  0.000186  0.000910  0.000906  0.000018
 12   -688.83448180  -0.0000008212  0.000060  0.000163  0.000769  0.000014
 13   -688.83448197  -0.0000001674  0.000011  0.000030  0.000068  0.000002
 14   -688.83448196   0.0000000059  0.000005  0.000020  0.000044  0.000001
                  ***Gradient check signals convergence***
              ***Rediagonalizing the Fockian in SOSCF/NRSCF***

               *****************************************************
               *                     SUCCESS                       *
               *           SCF CONVERGED AFTER  15 CYCLES          *
               *****************************************************

Old exchange energy                            =    -30.309642689 Eh
New exchange energy                            =    -30.309590540 Eh
Exchange energy change after final integration =      0.000052149 Eh
Total energy after final integration           =   -688.834429822 Eh
Final COS-X integration done in                =    70.223 sec

----------------
TOTAL SCF ENERGY
----------------

Total Energy       :         -688.83442982 Eh          -18744.13777 eV

Components:
Nuclear Repulsion  :         1056.67343928 Eh           28753.54608 eV
Electronic Energy  :        -1745.50786910 Eh          -47497.68385 eV
One Electron Energy:        -3008.89516524 Eh          -81876.19995 eV
Two Electron Energy:         1263.38729614 Eh           34378.51610 eV
Max COSX asymmetry :            0.00000119 Eh               0.00003 eV
CPCM Dielectric    :           -0.07979682 Eh              -2.17138 eV

Virial components:
Potential Energy   :        -1374.29230757 Eh          -37396.39488 eV
Kinetic Energy     :          685.45787775 Eh           18652.25712 eV
Virial Ratio       :            2.00492598


DFT components:
N(Alpha)           :       58.000088570816 electrons
N(Beta)            :       58.000088570816 electrons
N(Total)           :      116.000177141633 electrons
E(XC)              :      -69.422542959402 Eh       
DFET-embed. en.    :        0.000000000000 Eh       
CPCM Solvation Model Properties:
Surface-charge          :           -1.02716774
Charge-correction       :            0.00322159 Eh               0.08766 eV
Free-energy (cav+disp)  :  This term is not implemented in the current solvation scheme

---------------
SCF CONVERGENCE
---------------

  Last Energy change         ...   -9.6585e-09  Tolerance :   1.0000e-08
  Last MAX-Density change    ...    1.0194e-15  Tolerance :   1.0000e-07
  Last RMS-Density change    ...    1.1075e-17  Tolerance :   5.0000e-09
  Last Orbital Gradient      ...    7.8885e-07  Tolerance :   1.0000e-05
  Last Orbital Rotation      ...    3.4404e-06  Tolerance :   1.0000e-05

             **** THE GBW FILE WAS UPDATED (7_prot.gbw) ****
             **** DENSITY 7_prot.scfp WAS UPDATED ****
             **** ENERGY FILE WAS UPDATED (7_prot.en.tmp) ****
             **** THE GBW FILE WAS UPDATED (7_prot.gbw) ****
             **** DENSITY 7_prot.scfp WAS UPDATED ****
----------------
ORBITAL ENERGIES
----------------

  NO   OCC          E(Eh)            E(eV) 
   0   2.0000     -14.515397      -394.9840 
   1   2.0000     -14.515372      -394.9834 
   2   2.0000     -10.381453      -282.4937 
   3   2.0000     -10.333281      -281.1829 
   4   2.0000     -10.333275      -281.1827 
   5   2.0000     -10.329767      -281.0873 
   6   2.0000     -10.329058      -281.0680 
   7   2.0000     -10.285270      -279.8764 
   8   2.0000     -10.285270      -279.8764 
   9   2.0000     -10.284988      -279.8688 
  10   2.0000     -10.284988      -279.8687 
  11   2.0000     -10.278660      -279.6966 
  12   2.0000     -10.278660      -279.6966 
  13   2.0000     -10.278575      -279.6942 
  14   2.0000     -10.278574      -279.6942 
  15   2.0000     -10.276635      -279.6414 
  16   2.0000     -10.276634      -279.6414 
  17   2.0000      -1.234823       -33.6013 
  18   2.0000      -1.122114       -30.5343 
  19   2.0000      -1.020430       -27.7673 
  20   2.0000      -1.002612       -27.2824 
  21   2.0000      -0.948794       -25.8180 
  22   2.0000      -0.920692       -25.0533 
  23   2.0000      -0.899145       -24.4670 
  24   2.0000      -0.896193       -24.3866 
  25   2.0000      -0.888295       -24.1717 
  26   2.0000      -0.812627       -22.1127 
  27   2.0000      -0.797124       -21.6909 
  28   2.0000      -0.753879       -20.5141 
  29   2.0000      -0.750430       -20.4202 
  30   2.0000      -0.734992       -20.0002 
  31   2.0000      -0.734441       -19.9852 
  32   2.0000      -0.699921       -19.0458 
  33   2.0000      -0.665885       -18.1197 
  34   2.0000      -0.636401       -17.3173 
  35   2.0000      -0.628089       -17.0912 
  36   2.0000      -0.612253       -16.6603 
  37   2.0000      -0.605644       -16.4804 
  38   2.0000      -0.590874       -16.0785 
  39   2.0000      -0.587831       -15.9957 
  40   2.0000      -0.582353       -15.8466 
  41   2.0000      -0.565964       -15.4007 
  42   2.0000      -0.558225       -15.1901 
  43   2.0000      -0.556251       -15.1364 
  44   2.0000      -0.547192       -14.8898 
  45   2.0000      -0.546056       -14.8589 
  46   2.0000      -0.519983       -14.1495 
  47   2.0000      -0.505875       -13.7656 
  48   2.0000      -0.479519       -13.0484 
  49   2.0000      -0.476449       -12.9648 
  50   2.0000      -0.475336       -12.9345 
  51   2.0000      -0.464702       -12.6452 
  52   2.0000      -0.451544       -12.2871 
  53   2.0000      -0.390109       -10.6154 
  54   2.0000      -0.368374       -10.0240 
  55   2.0000      -0.368072       -10.0158 
  56   2.0000      -0.365690        -9.9509 
  57   2.0000      -0.356439        -9.6992 
  58   0.0000       0.019126         0.5204 
  59   0.0000       0.042742         1.1631 
  60   0.0000       0.047244         1.2856 
  61   0.0000       0.047357         1.2886 
  62   0.0000       0.073667         2.0046 
  63   0.0000       0.085461         2.3255 
  64   0.0000       0.129560         3.5255 
  65   0.0000       0.139048         3.7837 
  66   0.0000       0.146950         3.9987 
  67   0.0000       0.154782         4.2118 
  68   0.0000       0.161118         4.3842 
  69   0.0000       0.163932         4.4608 
  70   0.0000       0.175128         4.7655 
  71   0.0000       0.179604         4.8873 
  72   0.0000       0.182406         4.9635 
  73   0.0000       0.185481         5.0472 
  74   0.0000       0.190849         5.1933 
  75   0.0000       0.195598         5.3225 
  76   0.0000       0.201288         5.4773 
  77   0.0000       0.209364         5.6971 
  78   0.0000       0.209829         5.7097 
  79   0.0000       0.222223         6.0470 
  80   0.0000       0.226732         6.1697 
  81   0.0000       0.232470         6.3258 
  82   0.0000       0.242428         6.5968 
  83   0.0000       0.246845         6.7170 
  84   0.0000       0.258110         7.0235 
  85   0.0000       0.266339         7.2475 
  86   0.0000       0.276175         7.5151 
  87   0.0000       0.277361         7.5474 
  88   0.0000       0.282883         7.6976 
  89   0.0000       0.283562         7.7161 
  90   0.0000       0.288455         7.8493 
  91   0.0000       0.295719         8.0469 
  92   0.0000       0.302003         8.2179 
  93   0.0000       0.308026         8.3818 
  94   0.0000       0.308360         8.3909 
  95   0.0000       0.309065         8.4101 
  96   0.0000       0.313697         8.5361 
  97   0.0000       0.313952         8.5431 
  98   0.0000       0.319319         8.6891 
  99   0.0000       0.327564         8.9135 
 100   0.0000       0.333099         9.0641 
 101   0.0000       0.339844         9.2476 
 102   0.0000       0.346888         9.4393 
 103   0.0000       0.359177         9.7737 
 104   0.0000       0.362199         9.8559 
 105   0.0000       0.374335        10.1862 
 106   0.0000       0.381979        10.3942 
 107   0.0000       0.388084        10.5603 
 108   0.0000       0.390135        10.6161 
 109   0.0000       0.401628        10.9289 
 110   0.0000       0.408934        11.1277 
 111   0.0000       0.410490        11.1700 
 112   0.0000       0.413372        11.2484 
 113   0.0000       0.423063        11.5121 
 114   0.0000       0.425038        11.5659 
 115   0.0000       0.428198        11.6518 
 116   0.0000       0.432092        11.7578 
 117   0.0000       0.437739        11.9115 
 118   0.0000       0.443311        12.0631 
 119   0.0000       0.445092        12.1116 
 120   0.0000       0.460267        12.5245 
 121   0.0000       0.461407        12.5555 
 122   0.0000       0.465985        12.6801 
 123   0.0000       0.472543        12.8585 
 124   0.0000       0.478654        13.0248 
 125   0.0000       0.490137        13.3373 
 126   0.0000       0.491006        13.3609 
 127   0.0000       0.496572        13.5124 
 128   0.0000       0.499340        13.5877 
 129   0.0000       0.500424        13.6172 
 130   0.0000       0.502556        13.6752 
 131   0.0000       0.506146        13.7729 
 132   0.0000       0.514574        14.0023 
 133   0.0000       0.514811        14.0087 
 134   0.0000       0.516929        14.0663 
 135   0.0000       0.519640        14.1401 
 136   0.0000       0.532785        14.4978 
 137   0.0000       0.534393        14.5416 
 138   0.0000       0.550904        14.9909 
 139   0.0000       0.560777        15.2595 
 140   0.0000       0.564910        15.3720 
 141   0.0000       0.564964        15.3735 
 142   0.0000       0.567949        15.4547 
 143   0.0000       0.570517        15.5246 
 144   0.0000       0.579253        15.7623 
 145   0.0000       0.579516        15.7694 
 146   0.0000       0.595096        16.1934 
 147   0.0000       0.597464        16.2578 
 148   0.0000       0.609746        16.5920 
 149   0.0000       0.616989        16.7891 
 150   0.0000       0.629879        17.1399 
 151   0.0000       0.632096        17.2002 
 152   0.0000       0.661501        18.0004 
 153   0.0000       0.661902        18.0113 
 154   0.0000       0.668523        18.1914 
 155   0.0000       0.671801        18.2806 
 156   0.0000       0.675369        18.3777 
 157   0.0000       0.687402        18.7052 
 158   0.0000       0.689382        18.7590 
 159   0.0000       0.722913        19.6715 
 160   0.0000       0.728866        19.8334 
 161   0.0000       0.731627        19.9086 
 162   0.0000       0.731994        19.9186 
 163   0.0000       0.741013        20.1640 
 164   0.0000       0.755135        20.5483 
 165   0.0000       0.762882        20.7591 
 166   0.0000       0.769565        20.9409 
 167   0.0000       0.781264        21.2593 
 168   0.0000       0.781556        21.2672 
 169   0.0000       0.786318        21.3968 
 170   0.0000       0.790722        21.5166 
 171   0.0000       0.797547        21.7024 
 172   0.0000       0.804641        21.8954 
 173   0.0000       0.807728        21.9794 
 174   0.0000       0.819093        22.2887 
 175   0.0000       0.823751        22.4154 
 176   0.0000       0.831275        22.6201 
 177   0.0000       0.841678        22.9032 
 178   0.0000       0.842821        22.9343 
 179   0.0000       0.854135        23.2422 
 180   0.0000       0.863760        23.5041 
 181   0.0000       0.869943        23.6723 
 182   0.0000       0.875007        23.8101 
 183   0.0000       0.886864        24.1328 
 184   0.0000       0.896383        24.3918 
 185   0.0000       0.902119        24.5479 
 186   0.0000       0.908807        24.7299 
 187   0.0000       0.915688        24.9171 
 188   0.0000       0.916706        24.9448 
 189   0.0000       0.924791        25.1648 
 190   0.0000       0.936753        25.4903 
 191   0.0000       0.943890        25.6846 
 192   0.0000       0.950619        25.8676 
 193   0.0000       0.974410        26.5151 
 194   0.0000       0.984528        26.7904 
 195   0.0000       0.989945        26.9378 
 196   0.0000       1.009761        27.4770 
 197   0.0000       1.010139        27.4873 
 198   0.0000       1.011663        27.5287 
 199   0.0000       1.025043        27.8928 
 200   0.0000       1.054951        28.7067 
 201   0.0000       1.054973        28.7073 
 202   0.0000       1.075290        29.2601 
 203   0.0000       1.098156        29.8823 
 204   0.0000       1.100940        29.9581 
 205   0.0000       1.101891        29.9840 
 206   0.0000       1.107352        30.1326 
 207   0.0000       1.108748        30.1706 
 208   0.0000       1.123215        30.5642 
 209   0.0000       1.135565        30.9003 
 210   0.0000       1.135787        30.9063 
 211   0.0000       1.173708        31.9382 
 212   0.0000       1.175199        31.9788 
 213   0.0000       1.184347        32.2277 
 214   0.0000       1.201174        32.6856 
 215   0.0000       1.206525        32.8312 
 216   0.0000       1.212676        32.9986 
 217   0.0000       1.222748        33.2727 
 218   0.0000       1.239166        33.7194 
 219   0.0000       1.242054        33.7980 
 220   0.0000       1.264738        34.4153 
 221   0.0000       1.273414        34.6514 
 222   0.0000       1.284535        34.9540 
 223   0.0000       1.291690        35.1487 
 224   0.0000       1.294218        35.2175 
 225   0.0000       1.297098        35.2958 
 226   0.0000       1.307231        35.5716 
 227   0.0000       1.317074        35.8394 
 228   0.0000       1.327141        36.1133 
 229   0.0000       1.334423        36.3115 
 230   0.0000       1.340192        36.4685 
 231   0.0000       1.348503        36.6946 
 232   0.0000       1.355989        36.8983 
 233   0.0000       1.358605        36.9695 
 234   0.0000       1.372951        37.3599 
 235   0.0000       1.380385        37.5622 
 236   0.0000       1.383109        37.6363 
 237   0.0000       1.392901        37.9028 
 238   0.0000       1.395401        37.9708 
 239   0.0000       1.408223        38.3197 
 240   0.0000       1.416772        38.5523 
 241   0.0000       1.447503        39.3886 
 242   0.0000       1.463125        39.8137 
 243   0.0000       1.479152        40.2498 
 244   0.0000       1.489409        40.5289 
 245   0.0000       1.499169        40.7945 
 246   0.0000       1.509726        41.0817 
 247   0.0000       1.525800        41.5191 
 248   0.0000       1.529397        41.6170 
 249   0.0000       1.534380        41.7526 
 250   0.0000       1.536039        41.7977 
 251   0.0000       1.545858        42.0649 
 252   0.0000       1.561485        42.4902 
 253   0.0000       1.563364        42.5413 
 254   0.0000       1.573805        42.8254 
 255   0.0000       1.584469        43.1156 
 256   0.0000       1.592863        43.3440 
 257   0.0000       1.605275        43.6818 
 258   0.0000       1.617747        44.0211 
 259   0.0000       1.628493        44.3136 
 260   0.0000       1.629202        44.3328 
 261   0.0000       1.633371        44.4463 
 262   0.0000       1.650525        44.9131 
 263   0.0000       1.650795        44.9204 
 264   0.0000       1.661784        45.2194 
 265   0.0000       1.664894        45.3041 
 266   0.0000       1.683527        45.8111 
 267   0.0000       1.687775        45.9267 
 268   0.0000       1.710662        46.5495 
 269   0.0000       1.719543        46.7911 
 270   0.0000       1.719971        46.8028 
 271   0.0000       1.731697        47.1219 
 272   0.0000       1.734543        47.1993 
 273   0.0000       1.739808        47.3426 
 274   0.0000       1.742963        47.4284 
 275   0.0000       1.760324        47.9008 
 276   0.0000       1.776855        48.3507 
 277   0.0000       1.792458        48.7753 
 278   0.0000       1.796768        48.8925 
 279   0.0000       1.798135        48.9297 
 280   0.0000       1.801538        49.0223 
 281   0.0000       1.803695        49.0810 
 282   0.0000       1.805515        49.1305 
 283   0.0000       1.820579        49.5405 
 284   0.0000       1.831246        49.8307 
 285   0.0000       1.835299        49.9410 
 286   0.0000       1.839833        50.0644 
 287   0.0000       1.856118        50.5075 
 288   0.0000       1.857438        50.5434 
 289   0.0000       1.890404        51.4405 
 290   0.0000       1.891829        51.4793 
 291   0.0000       1.908899        51.9438 
 292   0.0000       1.913389        52.0660 
 293   0.0000       1.923542        52.3422 
 294   0.0000       1.939903        52.7874 
 295   0.0000       1.955067        53.2001 
 296   0.0000       1.959809        53.3291 
 297   0.0000       1.976091        53.7722 
 298   0.0000       1.995886        54.3108 
 299   0.0000       1.999440        54.4075 
 300   0.0000       2.021541        55.0089 
 301   0.0000       2.021704        55.0134 
 302   0.0000       2.061856        56.1060 
 303   0.0000       2.062971        56.1363 
 304   0.0000       2.079859        56.5958 
 305   0.0000       2.094712        57.0000 
 306   0.0000       2.106619        57.3240 
 307   0.0000       2.115920        57.5771 
 308   0.0000       2.137181        58.1557 
 309   0.0000       2.145508        58.3823 
 310   0.0000       2.166485        58.9531 
 311   0.0000       2.174863        59.1810 
 312   0.0000       2.176843        59.2349 
 313   0.0000       2.180201        59.3263 
 314   0.0000       2.193664        59.6926 
 315   0.0000       2.206517        60.0424 
 316   0.0000       2.228177        60.6318 
 317   0.0000       2.248217        61.1771 
 318   0.0000       2.253728        61.3271 
 319   0.0000       2.263648        61.5970 
 320   0.0000       2.286794        62.2268 
 321   0.0000       2.292041        62.3696 
 322   0.0000       2.294739        62.4430 
 323   0.0000       2.308337        62.8130 
 324   0.0000       2.325216        63.2724 
 325   0.0000       2.327285        63.3286 
 326   0.0000       2.343024        63.7569 
 327   0.0000       2.352925        64.0263 
 328   0.0000       2.356040        64.1111 
 329   0.0000       2.365891        64.3792 
 330   0.0000       2.388855        65.0040 
 331   0.0000       2.401509        65.3484 
 332   0.0000       2.424276        65.9679 
 333   0.0000       2.445956        66.5579 
 334   0.0000       2.453988        66.7764 
 335   0.0000       2.463297        67.0297 
 336   0.0000       2.491495        67.7970 
 337   0.0000       2.512195        68.3603 
 338   0.0000       2.529868        68.8412 
 339   0.0000       2.550259        69.3961 
 340   0.0000       2.563448        69.7550 
 341   0.0000       2.563791        69.7643 
 342   0.0000       2.604869        70.8821 
 343   0.0000       2.608073        70.9693 
 344   0.0000       2.615386        71.1683 
 345   0.0000       2.619678        71.2851 
 346   0.0000       2.628063        71.5132 
 347   0.0000       2.636834        71.7519 
 348   0.0000       2.657383        72.3111 
 349   0.0000       2.662797        72.4584 
 350   0.0000       2.682787        73.0024 
 351   0.0000       2.693254        73.2872 
 352   0.0000       2.698725        73.4360 
 353   0.0000       2.701756        73.5185 
 354   0.0000       2.701784        73.5193 
 355   0.0000       2.708615        73.7052 
 356   0.0000       2.724586        74.1397 
 357   0.0000       2.728089        74.2351 
 358   0.0000       2.735699        74.4422 
 359   0.0000       2.743650        74.6585 
 360   0.0000       2.747604        74.7661 
 361   0.0000       2.755189        74.9725 
 362   0.0000       2.760125        75.1068 
 363   0.0000       2.761800        75.1524 
 364   0.0000       2.762767        75.1787 
 365   0.0000       2.768415        75.3324 
 366   0.0000       2.772693        75.4488 
 367   0.0000       2.786515        75.8249 
 368   0.0000       2.791731        75.9669 
 369   0.0000       2.792392        75.9849 
 370   0.0000       2.811612        76.5078 
 371   0.0000       2.814347        76.5823 
 372   0.0000       2.819401        76.7198 
 373   0.0000       2.836339        77.1807 
 374   0.0000       2.846667        77.4618 
 375   0.0000       2.847609        77.4874 
 376   0.0000       2.850894        77.5768 
 377   0.0000       2.856947        77.7415 
 378   0.0000       2.861947        77.8775 
 379   0.0000       2.872929        78.1764 
 380   0.0000       2.875993        78.2597 
 381   0.0000       2.878759        78.3350 
 382   0.0000       2.893849        78.7456 
 383   0.0000       2.900124        78.9164 
 384   0.0000       2.906076        79.0784 
 385   0.0000       2.916632        79.3656 
 386   0.0000       2.923778        79.5600 
 387   0.0000       2.925239        79.5998 
 388   0.0000       2.939313        79.9828 
 389   0.0000       2.940124        80.0048 
 390   0.0000       2.942919        80.0809 
 391   0.0000       2.957957        80.4901 
 392   0.0000       2.973016        80.8999 
 393   0.0000       2.976391        80.9917 
 394   0.0000       2.980627        81.1070 
 395   0.0000       2.986127        81.2567 
 396   0.0000       3.004307        81.7513 
 397   0.0000       3.007834        81.8473 
 398   0.0000       3.016543        82.0843 
 399   0.0000       3.050215        83.0006 
 400   0.0000       3.068817        83.5068 
 401   0.0000       3.071780        83.5874 
 402   0.0000       3.082632        83.8827 
 403   0.0000       3.098523        84.3151 
 404   0.0000       3.111958        84.6807 
 405   0.0000       3.123347        84.9906 
 406   0.0000       3.125803        85.0574 
 407   0.0000       3.135941        85.3333 
 408   0.0000       3.148706        85.6806 
 409   0.0000       3.152855        85.7936 
 410   0.0000       3.178132        86.4814 
 411   0.0000       3.181531        86.5739 
 412   0.0000       3.190742        86.8245 
 413   0.0000       3.204366        87.1952 
 414   0.0000       3.206122        87.2430 
 415   0.0000       3.208241        87.3007 
 416   0.0000       3.209106        87.3242 
 417   0.0000       3.213235        87.4366 
 418   0.0000       3.224397        87.7403 
 419   0.0000       3.230282        87.9004 
 420   0.0000       3.234124        88.0050 
 421   0.0000       3.244954        88.2997 
 422   0.0000       3.250003        88.4371 
 423   0.0000       3.256090        88.6027 
 424   0.0000       3.267023        88.9002 
 425   0.0000       3.269119        88.9572 
 426   0.0000       3.279737        89.2462 
 427   0.0000       3.287075        89.4459 
 428   0.0000       3.298661        89.7611 
 429   0.0000       3.300986        89.8244 
 430   0.0000       3.315101        90.2085 
 431   0.0000       3.328010        90.5597 
 432   0.0000       3.348102        91.1065 
 433   0.0000       3.348929        91.1290 
 434   0.0000       3.356325        91.3303 
 435   0.0000       3.370953        91.7283 
 436   0.0000       3.373772        91.8050 
 437   0.0000       3.383318        92.0648 
 438   0.0000       3.385265        92.1177 
 439   0.0000       3.397653        92.4548 
 440   0.0000       3.399819        92.5138 
 441   0.0000       3.421250        93.0969 
 442   0.0000       3.421586        93.1061 
 443   0.0000       3.428556        93.2957 
 444   0.0000       3.434467        93.4566 
 445   0.0000       3.440924        93.6323 
 446   0.0000       3.445440        93.7552 
 447   0.0000       3.449126        93.8555 
 448   0.0000       3.456614        94.0592 
 449   0.0000       3.466540        94.3293 
 450   0.0000       3.477197        94.6193 
 451   0.0000       3.478373        94.6513 
 452   0.0000       3.490260        94.9748 
 453   0.0000       3.502743        95.3145 
 454   0.0000       3.504860        95.3721 
 455   0.0000       3.508496        95.4710 
 456   0.0000       3.514793        95.6424 
 457   0.0000       3.539049        96.3024 
 458   0.0000       3.543797        96.4316 
 459   0.0000       3.561749        96.9201 
 460   0.0000       3.563411        96.9653 
 461   0.0000       3.564719        97.0009 
 462   0.0000       3.574977        97.2801 
 463   0.0000       3.586309        97.5884 
 464   0.0000       3.602568        98.0309 
 465   0.0000       3.607712        98.1708 
 466   0.0000       3.607873        98.1752 
 467   0.0000       3.619450        98.4902 
 468   0.0000       3.623024        98.5875 
 469   0.0000       3.626226        98.6746 
 470   0.0000       3.645267        99.1928 
 471   0.0000       3.648602        99.2835 
 472   0.0000       3.662679        99.6666 
 473   0.0000       3.683290       100.2274 
 474   0.0000       3.698272       100.6351 
 475   0.0000       3.700942       100.7078 
 476   0.0000       3.727659       101.4348 
 477   0.0000       3.747547       101.9759 
 478   0.0000       3.781257       102.8932 
 479   0.0000       3.782578       102.9292 
 480   0.0000       3.791875       103.1822 
 481   0.0000       3.803344       103.4942 
 482   0.0000       3.813355       103.7667 
 483   0.0000       3.815033       103.8123 
 484   0.0000       3.834171       104.3331 
 485   0.0000       3.834775       104.3495 
 486   0.0000       3.845898       104.6522 
 487   0.0000       3.857603       104.9707 
 488   0.0000       3.919667       106.6596 
 489   0.0000       3.955371       107.6311 
 490   0.0000       3.965794       107.9147 
 491   0.0000       3.981135       108.3322 
 492   0.0000       3.985096       108.4400 
 493   0.0000       4.014200       109.2319 
 494   0.0000       4.018205       109.3409 
 495   0.0000       4.051563       110.2486 
 496   0.0000       4.074705       110.8784 
 497   0.0000       4.081478       111.0627 
 498   0.0000       4.082111       111.0799 
 499   0.0000       4.108126       111.7878 
 500   0.0000       4.128181       112.3335 
 501   0.0000       4.133311       112.4731 
 502   0.0000       4.158801       113.1667 
 503   0.0000       4.172227       113.5321 
 504   0.0000       4.184471       113.8652 
 505   0.0000       4.193384       114.1078 
 506   0.0000       4.196261       114.1861 
 507   0.0000       4.204958       114.4227 
 508   0.0000       4.228250       115.0565 
 509   0.0000       4.235958       115.2663 
 510   0.0000       4.258113       115.8691 
 511   0.0000       4.283063       116.5481 
 512   0.0000       4.287950       116.6811 
 513   0.0000       4.289425       116.7212 
 514   0.0000       4.297164       116.9318 
 515   0.0000       4.304194       117.1231 
 516   0.0000       4.309719       117.2734 
 517   0.0000       4.320815       117.5754 
 518   0.0000       4.324389       117.6726 
 519   0.0000       4.325018       117.6897 
 520   0.0000       4.342020       118.1524 
 521   0.0000       4.346036       118.2616 
 522   0.0000       4.366541       118.8196 
 523   0.0000       4.373103       118.9982 
 524   0.0000       4.376663       119.0951 
 525   0.0000       4.389584       119.4466 
 526   0.0000       4.399343       119.7122 
 527   0.0000       4.410036       120.0032 
 528   0.0000       4.415246       120.1450 
 529   0.0000       4.425855       120.4336 
 530   0.0000       4.523610       123.0937 
 531   0.0000       4.552772       123.8872 
 532   0.0000       4.632505       126.0569 
 533   0.0000       4.669031       127.0508 
 534   0.0000       4.695634       127.7747 
 535   0.0000       4.710483       128.1788 
 536   0.0000       4.733246       128.7982 
 537   0.0000       4.735431       128.8576 
 538   0.0000       4.754413       129.3742 
 539   0.0000       4.768454       129.7562 
 540   0.0000       4.774574       129.9228 
 541   0.0000       4.798730       130.5801 
 542   0.0000       4.851875       132.0262 
 543   0.0000       4.878441       132.7491 
 544   0.0000       4.885166       132.9321 
 545   0.0000       4.908201       133.5589 
 546   0.0000       4.924223       133.9949 
 547   0.0000       4.925647       134.0337 
 548   0.0000       4.944773       134.5541 
 549   0.0000       4.947570       134.6302 
 550   0.0000       4.955136       134.8361 
 551   0.0000       4.977638       135.4484 
 552   0.0000       4.980443       135.5248 
 553   0.0000       4.999619       136.0465 
 554   0.0000       5.052266       137.4791 
[...]
     43      -0.004236  -0.372445  -0.358621   0.000513  -0.000124   0.000317
     44       0.000613  -0.130382  -0.125546   0.000187  -0.000059   0.000091
     45      -0.002042  -0.000003   0.000013   0.000061  -0.000033  -0.000028
     46      -0.000681  -0.001338   0.001360   0.000199  -0.000219   0.000009
     47      -0.001735   0.000457  -0.000453   0.000418  -0.000242  -0.000239
     48       0.017861  -0.011289   0.011675   0.000842  -0.000005   0.000122
     49       0.019293  -0.012559   0.013004   0.000742   0.000131   0.000205
     50       0.009354  -0.005770   0.005964   0.000385  -0.000037   0.000021
     51       0.020128   0.011458  -0.011901   0.000001  -0.000439  -0.000358
     52      -0.010481  -0.006398   0.006658   0.000185   0.000190   0.000156
     53       0.022119   0.012737  -0.013234  -0.000056  -0.000381  -0.000320
     54       0.021555  -0.021953   0.022795   0.000018   0.000020  -0.000018
     55      -0.010762   0.008738  -0.009066  -0.000031  -0.000060  -0.000051
     56       0.024117  -0.023792   0.024704  -0.000021   0.000050   0.000011
     57      -0.202334   0.126429  -0.130735  -0.010003   0.000082  -0.001245
     58      -0.203882   0.128003  -0.132386  -0.009146  -0.000065  -0.001256
     59      -0.110924   0.069176  -0.071528  -0.005297   0.000101  -0.000719
     60       0.021359   0.020945  -0.021771   0.000023  -0.000023  -0.000001
     61       0.023196   0.020447  -0.021252  -0.000087  -0.000024   0.000004
     62       0.011946   0.012556  -0.013052   0.000026   0.000010   0.000020
     63      -0.227652  -0.128408   0.133352  -0.000112   0.004963   0.004119
     64       0.104407   0.059470  -0.061774  -0.000086  -0.002002  -0.001622
     65      -0.245104  -0.138571   0.143906  -0.000028   0.004988   0.003988
     66      -0.002087   0.000193  -0.000198  -0.000041   0.000024   0.000022
     67      -0.000941   0.032957  -0.034206   0.000027   0.000015   0.000024
     68      -0.001669  -0.011482   0.011918  -0.000034   0.000008  -0.000001
     69      -0.245745   0.238152  -0.247294   0.000002  -0.000473  -0.000099
     70       0.108516  -0.102725   0.106678   0.000025   0.000291   0.000106
     71      -0.269494   0.260298  -0.270292  -0.000065  -0.000575  -0.000158
     72      -0.243596  -0.226836   0.235825   0.000252   0.000232  -0.000077
     73      -0.248112  -0.228498   0.237571   0.000329   0.000311  -0.000018
     74      -0.141785  -0.132930   0.138189   0.000114   0.000152  -0.000015
     75       0.002307  -0.001440   0.001495  -0.000069   0.000031   0.000044
     76       0.004292  -0.358717   0.372376  -0.000513  -0.000125  -0.000317
     77       0.000625   0.125576  -0.130361   0.000187   0.000059   0.000091
     78       0.000001  -0.000029   0.000001  -0.000000   0.000011  -0.000000
     79       0.000000  -0.000080   0.000001   0.000000   0.001920  -0.000000
     80      -0.000766  -0.000008  -0.000426   0.093117  -0.000000   0.009996
     81       0.000001  -0.000046   0.000001   0.000001  -0.000094   0.000000
     82      -0.000001   0.000002  -0.000000  -0.000000   0.000430  -0.000000
     83       0.008158   0.000112   0.005969  -0.991138   0.000001  -0.089753
     84      -0.000154   0.000010  -0.000002   0.000076   0.000033  -0.000029
     85      -0.000108   0.000279   0.000149   0.003174   0.000091   0.000757
     86       0.000219   0.000023   0.000083  -0.003025  -0.000664   0.002499
     87       0.000156   0.000010   0.000002  -0.000076   0.000033   0.000029
     88       0.000109   0.000273  -0.000160  -0.003174   0.000091  -0.000757
     89       0.000223  -0.000020   0.000084  -0.003025   0.000664   0.002499


-----------
IR SPECTRUM
-----------

 Mode   freq       eps      Int      T**2         TX        TY        TZ
       cm**-1   L/(mol*cm) km/mol    a.u.
----------------------------------------------------------------------------
  6:     26.94   0.000021    0.11  0.000247  ( 0.000000  0.000000 -0.015716)
  7:     44.54   0.000071    0.36  0.000496  (-0.020708  0.008176 -0.000001)
  8:     66.97   0.000083    0.42  0.000387  (-0.000000  0.000000  0.019662)
  9:     87.47   0.000114    0.58  0.000406  ( 0.004493 -0.019649 -0.000001)
 10:    129.59   0.000088    0.45  0.000213  (-0.000000  0.000000 -0.014588)
 11:    144.52   0.000119    0.60  0.000257  (-0.015860 -0.002244  0.000000)
 12:    251.37   0.000049    0.25  0.000060  (-0.000000 -0.000000 -0.007760)
 13:    306.35   0.000226    1.14  0.000230  ( 0.000000  0.000000  0.015161)
 14:    316.35   0.000085    0.43  0.000084  ( 0.007926  0.004601 -0.000000)
 15:    410.41   0.000263    1.33  0.000200  ( 0.008643 -0.011186 -0.000000)
 16:    424.58   0.000069    0.35  0.000050  (-0.000004  0.000001  0.007106)
 17:    424.81   0.000133    0.67  0.000098  ( 0.009019 -0.004039  0.000003)
 18:    432.48   0.000024    0.12  0.000017  ( 0.000000 -0.000000  0.004181)
 19:    448.28   0.000913    4.61  0.000636  (-0.023388 -0.009415 -0.000000)
 20:    536.33   0.005321   26.89  0.003096  (-0.000000 -0.000000  0.055641)
 21:    571.53   0.003549   17.94  0.001938  (-0.039490  0.019453 -0.000001)
 22:    627.70   0.001054    5.32  0.000524  ( 0.021938  0.006522  0.000000)
 23:    628.55   0.000125    0.63  0.000062  ( 0.000002  0.000001 -0.007864)
 24:    673.79   0.001611    8.14  0.000746  (-0.000006 -0.000001 -0.027319)
 25:    675.24   0.005350   27.04  0.002473  ( 0.048626  0.010393 -0.000004)
 26:    695.21   0.000166    0.84  0.000075  ( 0.000000 -0.000000  0.008639)
 27:    721.63   0.013929   70.39  0.006024  ( 0.000249 -0.000078 -0.077612)
 28:    721.92   0.016548   83.63  0.007153  (-0.081634  0.022115 -0.000239)
 29:    722.28   0.003768   19.04  0.001628  (-0.006813 -0.039768  0.000020)
 30:    769.12   0.014131   71.41  0.005734  ( 0.075664 -0.002919  0.000001)
 31:    799.84   0.013219   66.80  0.005157  ( 0.000050 -0.000020 -0.071814)
 32:    801.80   0.017369   87.78  0.006760  (-0.076309  0.030614 -0.000044)
 33:    876.41   0.000265    1.34  0.000094  (-0.009714 -0.000194  0.000011)
 34:    876.63   0.000048    0.24  0.000017  ( 0.000022  0.000000  0.004151)
 35:    903.37   0.006690   33.81  0.002311  (-0.048054 -0.001428  0.000000)
 36:    914.62   0.000013    0.07  0.000005  ( 0.000001 -0.000000 -0.002121)
 37:    971.49   0.001546    7.81  0.000497  (-0.000013  0.000013  0.022285)
 38:    972.44   0.001452    7.34  0.000466  ( 0.014938 -0.015584  0.000019)
 39:    982.61   0.001761    8.90  0.000559  ( 0.002610  0.023504  0.000000)
 40:    993.06   0.000038    0.19  0.000012  ( 0.000000 -0.000000 -0.003437)
 41:   1027.50   0.000217    1.10  0.000066  (-0.005338  0.006122  0.000217)
 42:   1027.53   0.000044    0.22  0.000013  (-0.000319  0.000366 -0.003630)
 43:   1030.76   0.001288    6.51  0.000390  ( 0.001828  0.019666 -0.000000)
 44:   1031.64   0.000098    0.50  0.000030  ( 0.000001  0.000002  0.005451)
 45:   1053.08   0.000033    0.17  0.000010  (-0.000352  0.000256  0.003080)
 46:   1053.09   0.000010    0.05  0.000003  ( 0.001111 -0.000804  0.000984)
 47:   1063.62   0.000334    1.69  0.000098  (-0.000001 -0.000005  0.009901)
 48:   1064.76   0.001835    9.27  0.000538  ( 0.002663  0.023037  0.000003)
 49:   1101.73   0.016102   81.37  0.004561  (-0.008310 -0.067021 -0.000000)
 50:   1116.95   0.000549    2.78  0.000154  (-0.000003  0.000002 -0.012390)
 51:   1120.36   0.003724   18.82  0.001037  ( 0.030646 -0.009900 -0.000001)
 52:   1129.04   0.005460   27.59  0.001509  (-0.000000 -0.000000  0.038848)
 53:   1144.09   0.000428    2.16  0.000117  (-0.000000 -0.000000 -0.010800)
 54:   1176.44   0.000024    0.12  0.000006  (-0.000008 -0.000003 -0.002522)
 55:   1176.54   0.000074    0.37  0.000020  (-0.004116 -0.001644  0.000005)
 56:   1203.84   0.000008    0.04  0.000002  (-0.001422  0.000231  0.000002)
 57:   1203.98   0.000002    0.01  0.000001  ( 0.000004 -0.000001  0.000721)
 58:   1277.00   0.012556   63.45  0.003068  (-0.002708  0.055326  0.000000)
 59:   1290.81   0.010313   52.12  0.002493  ( 0.001375  0.049914  0.000000)
 60:   1309.09   0.000169    0.85  0.000040  (-0.000000  0.000000  0.006344)
 61:   1319.35   0.001638    8.28  0.000387  (-0.018577 -0.006505 -0.000000)
 62:   1357.09   0.001074    5.43  0.000247  ( 0.000001  0.000001  0.015717)
 63:   1363.46   0.000615    3.11  0.000141  ( 0.005174  0.010675 -0.000001)
 64:   1396.19   0.001521    7.69  0.000340  ( 0.000000 -0.000000 -0.018438)
 65:   1412.16   0.002560   12.94  0.000566  ( 0.007594  0.022538 -0.000000)
 66:   1464.25   0.000254    1.28  0.000054  ( 0.000000  0.000000 -0.007359)
 67:   1512.65   0.002192   11.08  0.000452  (-0.020109 -0.006919 -0.000002)
 68:   1514.54   0.001215    6.14  0.000250  ( 0.000002  0.000001 -0.015824)
 69:   1547.91   0.014013   70.82  0.002825  (-0.000628  0.053148 -0.000000)
 70:   1558.95   0.003460   17.48  0.000693  (-0.000000  0.000001  0.026316)
 71:   1627.93   0.076613  387.17  0.014686  (-0.000558 -0.121186 -0.000000)
 72:   1634.79   0.000214    1.08  0.000041  ( 0.000000 -0.000000  0.006398)
 73:   1683.35   0.001897    9.58  0.000352  (-0.016269 -0.009322  0.000000)
 74:   1686.58   0.006050   30.58  0.001119  ( 0.000555 -0.033454 -0.000003)
 75:   1686.80   0.001598    8.08  0.000296  ( 0.000000 -0.000004  0.017196)
 76:   1688.21   0.000206    1.04  0.000038  (-0.000000 -0.000002  0.006171)
 77:   3213.83   0.000119    0.60  0.000012  (-0.000435 -0.003371 -0.000005)
 78:   3213.85   0.000001    0.00  0.000000  (-0.000008 -0.000058  0.000304)
 79:   3219.78   0.000587    2.96  0.000057  ( 0.007408  0.001407  0.000006)
 80:   3219.79   0.000519    2.62  0.000050  ( 0.000006  0.000001 -0.007093)
 81:   3224.90   0.001740    8.79  0.000168  (-0.000822 -0.012798 -0.001969)
 82:   3224.90   0.000643    3.25  0.000062  ( 0.000451  0.007010 -0.003594)
 83:   3232.09   0.000758    3.83  0.000073  (-0.008246 -0.002275  0.000052)
 84:   3232.10   0.000484    2.45  0.000047  ( 0.000063  0.000017  0.006839)
 85:   3238.47   0.001517    7.66  0.000146  (-0.000102  0.012088  0.000075)
 86:   3238.48   0.000165    0.83  0.000016  ( 0.000002 -0.000227  0.003980)
 87:   3298.62   0.014176   71.64  0.001341  ( 0.000000  0.000000 -0.036622)
 88:   3306.41   0.006213   31.40  0.000586  ( 0.000630  0.024207  0.000000)
 89:   3323.68   0.003636   18.38  0.000341  ( 0.000000 -0.000000  0.018478)

* The epsilon (eps) is given for a Dirac delta lineshape.
** The dipole moment derivative (T) already includes vibrational overlap.

The first frequency considered to be a vibration is 6
The total number of vibrations considered is 84


--------------------------
THERMOCHEMISTRY AT 298.15K
--------------------------

Temperature         ... 298.15 K
Pressure            ... 1.00 atm
Total Mass          ... 221.28 AMU

Throughout the following assumptions are being made:
  (1) The electronic state is orbitally nondegenerate
  (2) There are no thermally accessible electronically excited states
  (3) Hindered rotations indicated by low frequency modes are not
      treated as such but are treated as vibrations and this may
      cause some error
  (4) All equations used are the standard statistical mechanics
      equations for an ideal gas
  (5) All vibrations are strictly harmonic

freq.      26.94  E(vib)   ...       0.55 
freq.      44.54  E(vib)   ...       0.53 
freq.      66.97  E(vib)   ...       0.50 
freq.      87.47  E(vib)   ...       0.48 
freq.     129.59  E(vib)   ...       0.43 
freq.     144.52  E(vib)   ...       0.41 
freq.     251.37  E(vib)   ...       0.30 
freq.     306.35  E(vib)   ...       0.26 
freq.     316.35  E(vib)   ...       0.25 
freq.     410.41  E(vib)   ...       0.19 
freq.     424.58  E(vib)   ...       0.18 
freq.     424.81  E(vib)   ...       0.18 
freq.     432.48  E(vib)   ...       0.18 
freq.     448.28  E(vib)   ...       0.17 
freq.     536.33  E(vib)   ...       0.12 
freq.     571.53  E(vib)   ...       0.11 
freq.     627.70  E(vib)   ...       0.09 
freq.     628.55  E(vib)   ...       0.09 
freq.     673.79  E(vib)   ...       0.08 
freq.     675.24  E(vib)   ...       0.08 
freq.     695.21  E(vib)   ...       0.07 
freq.     721.63  E(vib)   ...       0.07 
freq.     721.92  E(vib)   ...       0.07 
freq.     722.28  E(vib)   ...       0.07 
freq.     769.12  E(vib)   ...       0.06 
freq.     799.84  E(vib)   ...       0.05 
freq.     801.80  E(vib)   ...       0.05 
freq.     876.41  E(vib)   ...       0.04 
freq.     876.63  E(vib)   ...       0.04 
freq.     903.37  E(vib)   ...       0.03 
freq.     914.62  E(vib)   ...       0.03 
freq.     971.49  E(vib)   ...       0.03 
freq.     972.44  E(vib)   ...       0.03 
freq.     982.61  E(vib)   ...       0.02 
freq.     993.06  E(vib)   ...       0.02 
freq.    1027.50  E(vib)   ...       0.02 
freq.    1027.53  E(vib)   ...       0.02 
freq.    1030.76  E(vib)   ...       0.02 
freq.    1031.64  E(vib)   ...       0.02 
freq.    1053.08  E(vib)   ...       0.02 
freq.    1053.09  E(vib)   ...       0.02 
freq.    1063.62  E(vib)   ...       0.02 
freq.    1064.76  E(vib)   ...       0.02 
freq.    1101.73  E(vib)   ...       0.02 
freq.    1116.95  E(vib)   ...       0.01 
freq.    1120.36  E(vib)   ...       0.01 
freq.    1129.04  E(vib)   ...       0.01 
freq.    1144.09  E(vib)   ...       0.01 
freq.    1176.44  E(vib)   ...       0.01 
freq.    1176.54  E(vib)   ...       0.01 
freq.    1203.84  E(vib)   ...       0.01 
freq.    1203.98  E(vib)   ...       0.01 
freq.    1277.00  E(vib)   ...       0.01 
freq.    1290.81  E(vib)   ...       0.01 
freq.    1309.09  E(vib)   ...       0.01 
freq.    1319.35  E(vib)   ...       0.01 
freq.    1357.09  E(vib)   ...       0.01 
freq.    1363.46  E(vib)   ...       0.01 
freq.    1396.19  E(vib)   ...       0.00 
freq.    1412.16  E(vib)   ...       0.00 
freq.    1464.25  E(vib)   ...       0.00 
freq.    1512.65  E(vib)   ...       0.00 
freq.    1514.54  E(vib)   ...       0.00 
freq.    1547.91  E(vib)   ...       0.00 
freq.    1558.95  E(vib)   ...       0.00 
freq.    1627.93  E(vib)   ...       0.00 
freq.    1634.79  E(vib)   ...       0.00 
freq.    1683.35  E(vib)   ...       0.00 
freq.    1686.58  E(vib)   ...       0.00 
freq.    1686.80  E(vib)   ...       0.00 
freq.    1688.21  E(vib)   ...       0.00 
freq.    3213.83  E(vib)   ...       0.00 
freq.    3213.85  E(vib)   ...       0.00 
freq.    3219.78  E(vib)   ...       0.00 
freq.    3219.79  E(vib)   ...       0.00 
freq.    3224.90  E(vib)   ...       0.00 
freq.    3224.90  E(vib)   ...       0.00 
freq.    3232.09  E(vib)   ...       0.00 
freq.    3232.10  E(vib)   ...       0.00 
freq.    3238.47  E(vib)   ...       0.00 
freq.    3238.48  E(vib)   ...       0.00 
freq.    3298.62  E(vib)   ...       0.00 
freq.    3306.41  E(vib)   ...       0.00 
freq.    3323.68  E(vib)   ...       0.00 

------------
INNER ENERGY
------------

The inner energy is: U= E(el) + E(ZPE) + E(vib) + E(rot) + E(trans)
    E(el)   - is the total energy from the electronic structure calculation
              = E(kin-el) + E(nuc-el) + E(el-el) + E(nuc-nuc)
    E(ZPE)  - the the zero temperature vibrational energy from the frequency calculation
    E(vib)  - the the finite temperature correction to E(ZPE) due to population
              of excited vibrational states
    E(rot)  - is the rotational thermal energy
    E(trans)- is the translational thermal energy

Summary of contributions to the inner energy U:
Electronic energy                ...   -688.84190204 Eh
Zero point energy                ...      0.24876046 Eh     156.10 kcal/mol
Thermal vibrational correction   ...      0.00984738 Eh       6.18 kcal/mol
Thermal rotational correction    ...      0.00141627 Eh       0.89 kcal/mol
Thermal translational correction ...      0.00141627 Eh       0.89 kcal/mol
-----------------------------------------------------------------------
Total thermal energy                   -688.58046166 Eh


Summary of corrections to the electronic energy:
(perhaps to be used in another calculation)
Total thermal correction                  0.01267992 Eh       7.96 kcal/mol
Non-thermal (ZPE) correction              0.24876046 Eh     156.10 kcal/mol
-----------------------------------------------------------------------
Total correction                          0.26144038 Eh     164.06 kcal/mol


--------
ENTHALPY
--------

The enthalpy is H = U + kB*T
                kB is Boltzmann's constant
Total free energy                 ...   -688.58046166 Eh 
Thermal Enthalpy correction       ...      0.00094421 Eh       0.59 kcal/mol
-----------------------------------------------------------------------
Total Enthalpy                    ...   -688.57951745 Eh


Note: Rotational entropy computed according to Herzberg 
Infrared and Raman Spectra, Chapter V,1, Van Nostrand Reinhold, 1945 
Point Group:  C2, Symmetry Number:   2  
Rotational constants in cm-1:     0.053158     0.006815     0.006496 

Vibrational entropy computed according to the QRRHO of S. Grimme
Chem.Eur.J. 2012 18 9955


-------
ENTROPY
-------

The entropy contributions are T*S = T*(S(el)+S(vib)+S(rot)+S(trans))
     S(el)   - electronic entropy
     S(vib)  - vibrational entropy
     S(rot)  - rotational entropy
     S(trans)- translational entropy
The entropies will be listed as multiplied by the temperature to get
units of energy

Electronic entropy                ...      0.00000000 Eh      0.00 kcal/mol
Vibrational entropy               ...      0.01691597 Eh     10.61 kcal/mol
Rotational entropy                ...      0.01497449 Eh      9.40 kcal/mol
Translational entropy             ...      0.01999615 Eh     12.55 kcal/mol
-----------------------------------------------------------------------
Final entropy term                ...      0.05188661 Eh     32.56 kcal/mol

In case the symmetry of your molecule has not been determined correctly
or in case you have a reason to use a different symmetry number we print 
out the resulting rotational entropy values for sn=1,12 :
 --------------------------------------------------------
|  sn= 1 | S(rot)=       0.01562895 Eh      9.81 kcal/mol|
|  sn= 2 | S(rot)=       0.01497449 Eh      9.40 kcal/mol|
|  sn= 3 | S(rot)=       0.01459166 Eh      9.16 kcal/mol|
|  sn= 4 | S(rot)=       0.01432004 Eh      8.99 kcal/mol|
|  sn= 5 | S(rot)=       0.01410935 Eh      8.85 kcal/mol|
|  sn= 6 | S(rot)=       0.01393720 Eh      8.75 kcal/mol|
|  sn= 7 | S(rot)=       0.01379166 Eh      8.65 kcal/mol|
|  sn= 8 | S(rot)=       0.01366558 Eh      8.58 kcal/mol|
|  sn= 9 | S(rot)=       0.01355437 Eh      8.51 kcal/mol|
|  sn=10 | S(rot)=       0.01345489 Eh      8.44 kcal/mol|
|  sn=11 | S(rot)=       0.01336490 Eh      8.39 kcal/mol|
|  sn=12 | S(rot)=       0.01328275 Eh      8.34 kcal/mol|
 --------------------------------------------------------


-------------------
GIBBS FREE ENERGY
-------------------

The Gibbs free energy is G = H - T*S

Total enthalpy                    ...   -688.57951745 Eh 
Total entropy correction          ...     -0.05188661 Eh    -32.56 kcal/mol
-----------------------------------------------------------------------
Final Gibbs free energy         ...   -688.63140406 Eh

For completeness - the Gibbs free energy minus the electronic energy
G-E(el)                           ...      0.21049798 Eh    132.09 kcal/mol


Timings for individual modules:

Sum of individual times         ...     5315.043 sec (=  88.584 min)
GTO integral calculation        ...        4.803 sec (=   0.080 min)   0.1 %
SCF iterations                  ...     1337.970 sec (=  22.300 min)  25.2 %
SCF Gradient evaluation         ...      291.867 sec (=   4.864 min)   5.5 %
Geometry relaxation             ...        0.249 sec (=   0.004 min)   0.0 %
Analytical frequency calculation...     3680.154 sec (=  61.336 min)  69.2 %
                             ****ORCA TERMINATED NORMALLY****
TOTAL RUN TIME: 0 days 1 hours 28 minutes 38 seconds 251 msec
