
                                 *****************
                                 * O   R   C   A *
                                 *****************

                                            #,                                       
                                            ###                                      
                                            ####                                     
                                            #####                                    
                                            ######                                   
                                           ########,                                 
                                     ,,################,,,,,                         
                               ,,#################################,,                 
                          ,,##########################################,,             
                       ,#########################################, ''#####,          
                    ,#############################################,,   '####,        
                  ,##################################################,,,,####,       
                ,###########''''           ''''###############################       
              ,#####''   ,,,,##########,,,,          '''####'''          '####       
            ,##' ,,,,###########################,,,                        '##       
           ' ,,###''''                  '''############,,,                           
         ,,##''                                '''############,,,,        ,,,,,,###''
      ,#''                                            '''#######################'''  
     '                                                          ''''####''''         
             ,#######,   #######,   ,#######,      ##                                
            ,#'     '#,  ##    ##  ,#'     '#,    #''#        ######   ,####,        
            ##       ##  ##   ,#'  ##            #'  '#       #        #'  '#        
            ##       ##  #######   ##           ,######,      #####,   #    #        
            '#,     ,#'  ##    ##  '#,     ,#' ,#      #,         ##   #,  ,#        
             '#######'   ##     ##  '#######'  #'      '#     #####' # '####'        



                  #######################################################
                  #                        -***-                        #
                  #          Department of theory and spectroscopy      #
                  #    Directorship and core code : Frank Neese         #
                  #        Max Planck Institute fuer Kohlenforschung    #
                  #                Kaiser Wilhelm Platz 1               #
                  #                 D-45470 Muelheim/Ruhr               #
                  #                      Germany                        #
                  #                                                     #
                  #                  All rights reserved                #
                  #                        -***-                        #
                  #######################################################


                         Program Version 5.0.4 -  RELEASE  -


 With contributions from (in alphabetic order):
   Daniel Aravena         : Magnetic Suceptibility
   Michael Atanasov       : Ab Initio Ligand Field Theory (pilot matlab implementation)
   Alexander A. Auer      : GIAO ZORA, VPT2 properties, NMR spectrum
   Ute Becker             : Parallelization
   Giovanni Bistoni       : ED, misc. LED, open-shell LED, HFLD
   Martin Brehm           : Molecular dynamics
   Dmytro Bykov           : SCF Hessian
   Vijay G. Chilkuri      : MRCI spin determinant printing, contributions to CSF-ICE
   Dipayan Datta          : RHF DLPNO-CCSD density
   Achintya Kumar Dutta   : EOM-CC, STEOM-CC
   Dmitry Ganyushin       : Spin-Orbit,Spin-Spin,Magnetic field MRCI
   Miquel Garcia          : C-PCM and meta-GGA Hessian, CC/C-PCM, Gaussian charge scheme
   Yang Guo               : DLPNO-NEVPT2, F12-NEVPT2, CIM, IAO-localization
   Andreas Hansen         : Spin unrestricted coupled pair/coupled cluster methods
   Benjamin Helmich-Paris : MC-RPA, TRAH-SCF, COSX integrals
   Lee Huntington         : MR-EOM, pCC
   Robert Izsak           : Overlap fitted RIJCOSX, COSX-SCS-MP3, EOM
   Marcus Kettner         : VPT2
   Christian Kollmar      : KDIIS, OOCD, Brueckner-CCSD(T), CCSD density, CASPT2, CASPT2-K
   Simone Kossmann        : Meta GGA functionals, TD-DFT gradient, OOMP2, MP2 Hessian
   Martin Krupicka        : Initial AUTO-CI
   Lucas Lang             : DCDCAS
   Marvin Lechner         : AUTO-CI (C++ implementation), FIC-MRCC
   Dagmar Lenk            : GEPOL surface, SMD
   Dimitrios Liakos       : Extrapolation schemes; Compound Job, initial MDCI parallelization
   Dimitrios Manganas     : Further ROCIS development; embedding schemes
   Dimitrios Pantazis     : SARC Basis sets
   Anastasios Papadopoulos: AUTO-CI, single reference methods and gradients
   Taras Petrenko         : DFT Hessian,TD-DFT gradient, ASA, ECA, R-Raman, ABS, FL, XAS/XES, NRVS
   Peter Pinski           : DLPNO-MP2, DLPNO-MP2 Gradient
   Christoph Reimann      : Effective Core Potentials
   Marius Retegan         : Local ZFS, SOC
   Christoph Riplinger    : Optimizer, TS searches, QM/MM, DLPNO-CCSD(T), (RO)-DLPNO pert. Triples
   Tobias Risthaus        : Range-separated hybrids, TD-DFT gradient, RPA, STAB
   Michael Roemelt        : Original ROCIS implementation
   Masaaki Saitow         : Open-shell DLPNO-CCSD energy and density
   Barbara Sandhoefer     : DKH picture change effects
   Avijit Sen             : IP-ROCIS
   Kantharuban Sivalingam : CASSCF convergence, NEVPT2, FIC-MRCI
   Bernardo de Souza      : ESD, SOC TD-DFT
   Georgi Stoychev        : AutoAux, RI-MP2 NMR, DLPNO-MP2 response
   Willem Van den Heuvel  : Paramagnetic NMR
   Boris Wezisla          : Elementary symmetry handling
   Frank Wennmohs         : Technical directorship


 We gratefully acknowledge several colleagues who have allowed us to
 interface, adapt or use parts of their codes:
   Stefan Grimme, W. Hujo, H. Kruse, P. Pracht,  : VdW corrections, initial TS optimization,
                  C. Bannwarth, S. Ehlert          DFT functionals, gCP, sTDA/sTD-DF
   Ed Valeev, F. Pavosevic, A. Kumar             : LibInt (2-el integral package), F12 methods
   Garnet Chan, S. Sharma, J. Yang, R. Olivares  : DMRG
   Ulf Ekstrom                                   : XCFun DFT Library
   Mihaly Kallay                                 : mrcc  (arbitrary order and MRCC methods)
   Jiri Pittner, Ondrej Demel                    : Mk-CCSD
   Frank Weinhold                                : gennbo (NPA and NBO analysis)
   Christopher J. Cramer and Donald G. Truhlar   : smd solvation model
   Lars Goerigk                                  : TD-DFT with DH, B97 family of functionals
   V. Asgeirsson, H. Jonsson                     : NEB implementation
   FAccTs GmbH                                   : IRC, NEB, NEB-TS, DLPNO-Multilevel, CI-OPT
                                                   MM, QMMM, 2- and 3-layer-ONIOM, Crystal-QMMM,
                                                   LR-CPCM, SF, NACMEs, symmetry and pop. for TD-DFT,
                                                   nearIR, NL-DFT gradient (VV10), updates on ESD,
                                                   ML-optimized integration grids
   S Lehtola, MJT Oliveira, MAL Marques          : LibXC Library
   Liviu Ungur et al                             : ANISO software


 Your calculation uses the libint2 library for the computation of 2-el integrals
 For citations please refer to: http://libint.valeyev.net

 Your ORCA version has been built with support for libXC version: 5.1.0
 For citations please refer to: https://tddft.org/programs/libxc/

 This ORCA versions uses:
   CBLAS   interface :  Fast vector & matrix operations
   LAPACKE interface :  Fast linear algebra routines
   SCALAPACK package :  Parallel linear algebra routines
   Shared memory     :  Shared parallel matrices
   BLAS/LAPACK       :  OpenBLAS 0.3.15  USE64BITINT DYNAMIC_ARCH NO_AFFINITY SkylakeX SINGLE_THREADED
        Core in use  :  SkylakeX
   Copyright (c) 2011-2014, The OpenBLAS Project




***************************************
The coordinates will be read from file: 8_prot.xyz
***************************************


Your calculation utilizes the atom-pairwise dispersion correction
based on tight binding partial charges (D4)
Cite in your paper:
E.Caldeweyher, C.Bannwarth, S.Grimme, J.Chem.Phys., (2017), 147, 034112.
E.Caldeweyher, S.Ehlert, A.Hansen, H.Neugebauer, S.Grimme, J.Chem.Phys., (2018), in progress.
   

XCFun DFT library Copyright 2009-2010 Ulf Ekstrom and contributors.
See http://admol.org/xcfun for more information.
This is free software; see the source code for copying conditions.
There is ABSOLUTELY NO WARRANTY; not even for MERCHANTABILITY or FITNESS FOR A PARTICULAR PURPOSE.
For details see the documentation.
Scientific users of this library should cite U. Ekstrom, L. Visscher, R. Bast, A. J. Thorvaldsen and K. Ruud;
J.Chem.Theor.Comp. 2010, DOI: 10.1021/ct100117s
XCFun Version 0.99 

================================================================================

----- Orbital basis set information -----
Your calculation utilizes the basis: def2-TZVP
   F. Weigend and R. Ahlrichs, Phys. Chem. Chem. Phys. 7, 3297 (2005).

----- AuxJ basis set information -----
Your calculation utilizes the auxiliary basis: def2/J
   F. Weigend, Phys. Chem. Chem. Phys. 8, 1057 (2006).

================================================================================
                                        WARNINGS
                       Please study these warnings very carefully!
================================================================================


WARNING: Geometry Optimization
  ===> : Switching off AutoStart
         For restart on a previous wavefunction, please use MOREAD

INFO   : the flag for use of the SHARK integral package has been found!

================================================================================
                                       INPUT FILE
================================================================================
NAME = 8_prot.inp
|  1> # ORCA 5.0.4 - /users/bwb16179/postgrad/2024_06/pKa_Reviewer_Comments/Aq_Z=1/8_prot.inp # write input file
|  2> # Basic Mode
|  3> #
|  4> ! Opt Freq wB97X Def2-TZVP D4 SlowConv TightSCF Defgrid2 Def2/J RIJCOSX CPCM(Water)
|  5> 
|  6> %PAL NPROCS 4 END
|  7> 
|  8> %maxcore 4500
|  9> 
| 10> %geom
| 11> Maxiter 150
| 12> END
| 13> 
| 14> * xyzfile 1 1 8_prot.xyz
| 15> 
| 16>                          ****END OF INPUT****
================================================================================

                       *****************************
                       * Geometry Optimization Run *
                       *****************************

Geometry optimization settings:
Update method            Update   .... BFGS
Choice of coordinates    CoordSys .... Z-matrix Internals
Initial Hessian          InHess   .... Almoef's Model

Convergence Tolerances:
Energy Change            TolE     ....  5.0000e-06 Eh
Max. Gradient            TolMAXG  ....  3.0000e-04 Eh/bohr
RMS Gradient             TolRMSG  ....  1.0000e-04 Eh/bohr
Max. Displacement        TolMAXD  ....  4.0000e-03 bohr
RMS Displacement         TolRMSD  ....  2.0000e-03 bohr
Strict Convergence                ....  False
------------------------------------------------------------------------------
                        ORCA OPTIMIZATION COORDINATE SETUP
------------------------------------------------------------------------------

The optimization will be done in new redundant internal coordinates
Making redundant internal coordinates   ...  (new redundants) done
Evaluating the initial hessian          ...  (Almloef) done
Evaluating the coordinates              ...  done
Calculating the B-matrix                .... done
Calculating the G-matrix                .... done
Diagonalizing the G-matrix              .... done
Small eigenvalue found = 3.208e-03
Small eigenvalue found = 5.014e-03
Small eigenvalue found = 9.126e-03
Small eigenvalue found = 1.299e-02
Small eigenvalue found = 1.788e-02
Small eigenvalue found = 2.958e-02
The first mode is                       ....   99
The number of degrees of freedom        ....  120

    -----------------------------------------------------------------
                    Redundant Internal Coordinates


    -----------------------------------------------------------------
         Definition                    Initial Value    Approx d2E/dq
    -----------------------------------------------------------------
      1. B(N   1,C   0)                  1.3352         0.684324   
      2. B(C   2,N   1)                  1.3963         0.546744   
      3. B(C   3,C   2)                  1.3531         0.715432   
      4. B(N   4,C   0)                  1.3292         0.699597   
      5. B(N   4,C   3)                  1.4000         0.539364   
      6. B(C   5,N   1)                  1.4443         0.458411   
      7. B(C   6,C   5)                  1.4667         0.471372   
      8. B(C   7,C   6)                  1.3955         0.612311   
      9. B(C   8,C   7)                  1.4355         0.528699   
     10. B(C   9,C   8)                  1.4603         0.482550   
     11. B(C  10,C   9)                  1.3995         0.603448   
     12. B(C  10,C   5)                  1.4574         0.487791   
     13. B(C  11,C   6)                  1.5550         0.340778   
     14. B(H  12,C  11)                  1.1291         0.311976   
     15. B(H  13,C  11)                  1.1145         0.329075   
     16. B(H  14,C  11)                  1.0958         0.352523   
     17. B(C  15,C  10)                  1.6429         0.246780   
     18. B(H  16,C  15)                  1.5452         0.067632   
     19. B(H  17,C  15)                  1.2861         0.175194   
     20. B(H  18,C  15)                  1.5533         0.065642   
     21. B(C  19,N   4)                  1.4490         0.450562   
     22. B(C  20,C  19)                  1.4103         0.579919   
     23. B(C  21,C  20)                  1.3996         0.603115   
     24. B(C  22,C  21)                  1.4116         0.577208   
     25. B(C  23,C  22)                  1.4010         0.600037   
     26. B(C  24,C  23)                  1.3994         0.603533   
     27. B(C  24,C  19)                  1.4173         0.565079   
     28. B(C  25,C  20)                  1.5349         0.366861   
     29. B(H  26,C  25)                  1.0972         0.350764   
     30. B(H  27,C  25)                  1.1252         0.316460   
     31. B(H  28,C  25)                  1.1186         0.324223   
     32. B(C  29,C  24)                  1.5202         0.387290   
     33. B(H  30,C  29)                  1.1055         0.340122   
     34. B(H  31,C  29)                  1.0928         0.356409   
     35. B(H  32,C  29)                  1.1000         0.347068   
     36. B(H  33,C   7)                  1.1301         0.310802   
     37. B(H  34,C   8)                  1.0891         0.361317   
     38. B(H  35,C   9)                  1.1214         0.320875   
     39. B(H  36,C  22)                  1.0921         0.357279   
     40. B(H  37,C  23)                  1.1026         0.343860   
     41. B(H  38,C  21)                  1.0952         0.353345   
     42. B(H  39,C   2)                  1.0885         0.362103   
     43. B(H  40,C   3)                  1.0841         0.368015   
     44. B(H  41,C   0)                  1.0964         0.351719   
     45. A(N   4,C   0,H  41)          125.8140         0.356562   
     46. A(N   1,C   0,N   4)          107.9267         0.445699   
     47. A(N   1,C   0,H  41)          126.2567         0.355228   
     48. A(C   2,N   1,C   5)          127.6395         0.397095   
     49. A(C   0,N   1,C   5)          122.7455         0.413151   
     50. A(C   0,N   1,C   2)          109.5529         0.426341   
     51. A(N   1,C   2,H  39)          122.3228         0.343713   
     52. A(N   1,C   2,C   3)          106.3813         0.432579   
     53. A(C   3,C   2,H  39)          131.2954         0.361943   
     54. A(C   2,C   3,N   4)          106.9281         0.431524   
     55. A(N   4,C   3,H  40)          122.4009         0.343863   
     56. A(C   2,C   3,H  40)          130.6710         0.362945   
     57. A(C   3,N   4,C  19)          127.6609         0.394951   
     58. A(C   0,N   4,C   3)          109.2095         0.426989   
     59. A(C   0,N   4,C  19)          123.1198         0.413504   
     60. A(C   6,C   5,C  10)          126.3397         0.396176   
     61. A(N   1,C   5,C  10)          117.1149         0.391732   
     62. A(N   1,C   5,C   6)          116.5413         0.389395   
     63. A(C   5,C   6,C   7)          116.5079         0.412396   
     64. A(C   5,C   6,C  11)          124.3222         0.372225   
     65. A(C   7,C   6,C  11)          119.1642         0.389501   
     66. A(C   6,C   7,H  33)          118.6382         0.343540   
     67. A(C   6,C   7,C   8)          119.0528         0.420907   
     68. A(C   8,C   7,H  33)          122.3003         0.335220   
     69. A(C   9,C   8,H  34)          119.2395         0.338545   
     70. A(C   7,C   8,H  34)          117.7939         0.343758   
     71. A(C   7,C   8,C   9)          122.9628         0.403490   
     72. A(C   8,C   9,C  10)          120.6260         0.413045   
     73. A(C   8,C   9,H  35)          122.5882         0.331930   
     74. A(C  10,C   9,H  35)          116.7844         0.344539   
     75. A(C   5,C  10,C   9)          114.4520         0.413838   
     76. A(C   9,C  10,C  15)          119.6037         0.367413   
     77. A(C   5,C  10,C  15)          125.7835         0.354322   
     78. A(C   6,C  11,H  12)          111.7798         0.312112   
     79. A(H  13,C  11,H  14)          106.6607         0.285816   
     80. A(H  12,C  11,H  14)          107.6840         0.283453   
     81. A(C   6,C  11,H  14)          109.8630         0.318369   
     82. A(H  12,C  11,H  13)          107.9173         0.280447   
     83. A(C   6,C  11,H  13)          112.6840         0.314823   
     84. A(C  10,C  15,H  17)           93.2189         0.271003   
     85. A(H  16,C  15,H  18)          107.3303         0.183038   
     86. A(H  17,C  15,H  18)          111.5324         0.205645   
     87. A(C  10,C  15,H  18)          113.5427         0.234741   
     88. A(H  16,C  15,H  17)          116.3687         0.206436   
     89. A(C  10,C  15,H  16)          114.5857         0.235730   
     90. A(N   4,C  19,C  20)          117.5434         0.402593   
     91. A(C  20,C  19,C  24)          124.3647         0.421825   
     92. A(N   4,C  19,C  24)          118.0752         0.400758   
     93. A(C  19,C  20,C  21)          116.3556         0.426768   
     94. A(C  21,C  20,C  25)          121.1401         0.393514   
     95. A(C  19,C  20,C  25)          122.4972         0.390823   
     96. A(C  20,C  21,C  22)          120.8770         0.426410   
     97. A(C  20,C  21,H  38)          118.5968         0.350143   
     98. A(C  22,C  21,H  38)          120.5255         0.347561   
     99. A(C  23,C  22,H  36)          119.1422         0.350495   
    100. A(C  21,C  22,H  36)          119.7786         0.348210   
    101. A(C  21,C  22,C  23)          121.0788         0.426020   
    102. A(C  24,C  23,H  37)          119.3561         0.348580   
    103. A(C  22,C  23,H  37)          120.4749         0.348239   
    104. A(C  22,C  23,C  24)          120.1687         0.429439   
    105. A(C  23,C  24,C  29)          120.8284         0.397321   
    106. A(C  19,C  24,C  29)          122.0239         0.392761   
    107. A(C  19,C  24,C  23)          117.1456         0.424845   
    108. A(H  27,C  25,H  28)          107.0653         0.280422   
    109. A(H  26,C  25,H  28)          107.1384         0.284933   
    110. A(C  20,C  25,H  28)          113.8273         0.317854   
    111. A(H  26,C  25,H  27)          109.2415         0.283861   
    112. A(C  20,C  25,H  27)          110.4377         0.316602   
    113. A(C  20,C  25,H  26)          109.0008         0.321966   
    114. A(H  31,C  29,H  32)          107.3228         0.288696   
    115. A(H  30,C  29,H  32)          107.3424         0.286593   
    116. A(C  24,C  29,H  32)          111.5418         0.324276   
    117. A(H  30,C  29,H  31)          108.6818         0.287785   
    118. A(C  24,C  29,H  31)          110.3196         0.325695   
    119. A(C  24,C  29,H  30)          111.4730         0.323202   
    120. D(C   5,N   1,C   0,H  41)     -2.4970         0.038581   
    121. D(C   5,N   1,C   0,N   4)    176.9462         0.038581   
    122. D(C   2,N   1,C   0,N   4)     -0.3875         0.038581   
    123. D(C   2,N   1,C   0,H  41)   -179.8308         0.038581   
    124. D(H  39,C   2,N   1,C   0)   -179.8406         0.023811   
    125. D(H  39,C   2,N   1,C   5)      2.9915         0.023811   
    126. D(C   3,C   2,N   1,C   0)      0.3713         0.023811   
    127. D(C   3,C   2,N   1,C   5)   -176.7967         0.023811   
    128. D(H  40,C   3,C   2,H  39)      0.1094         0.036185   
    129. D(N   4,C   3,C   2,N   1)     -0.2071         0.036185   
    130. D(H  40,C   3,C   2,N   1)    179.8712         0.036185   
    131. D(N   4,C   3,C   2,H  39)   -179.9688         0.036185   
    132. D(C   3,N   4,C   0,H  41)    179.7003         0.040497   
    133. D(C  19,N   4,C   0,N   1)   -178.6853         0.040497   
    134. D(C   3,N   4,C   0,N   1)      0.2539         0.040497   
    135. D(C  19,N   4,C   3,H  40)     -1.2145         0.023140   
    136. D(C  19,N   4,C   3,C   2)    178.8558         0.023140   
    137. D(C   0,N   4,C   3,H  40)    179.9078         0.023140   
    138. D(C   0,N   4,C   3,C   2)     -0.0219         0.023140   
    139. D(C  19,N   4,C   0,H  41)      0.7611         0.040497   
    140. D(C  10,C   5,N   1,C   2)    -58.8390         0.016554   
    141. D(C  10,C   5,N   1,C   0)    124.3343         0.016554   
    142. D(C   6,C   5,N   1,C   2)    121.8549         0.016554   
    143. D(C   6,C   5,N   1,C   0)    -54.9718         0.016554   
    144. D(C  11,C   6,C   5,C  10)    177.5382         0.015129   
    145. D(C   7,C   6,C   5,C  10)     -1.5867         0.015129   
    146. D(C   7,C   6,C   5,N   1)    177.6466         0.015129   
    147. D(C  11,C   6,C   5,N   1)     -3.2285         0.015129   
    148. D(H  33,C   7,C   6,C   5)    178.2851         0.025905   
    149. D(C   8,C   7,C   6,C  11)   -179.8337         0.025905   
    150. D(C   8,C   7,C   6,C   5)     -0.6614         0.025905   
    151. D(H  33,C   7,C   6,C  11)     -0.8872         0.025905   
    152. D(H  34,C   8,C   7,H  33)      1.9330         0.019077   
    153. D(H  34,C   8,C   7,C   6)   -179.1609         0.019077   
    154. D(C   9,C   8,C   7,H  33)   -177.3508         0.019077   
    155. D(C   9,C   8,C   7,C   6)      1.5553         0.019077   
    156. D(H  35,C   9,C   8,H  34)      0.9507         0.015854   
    157. D(H  35,C   9,C   8,C   7)   -179.7754         0.015854   
    158. D(C  10,C   9,C   8,H  34)   -179.4955         0.015854   
    159. D(C  10,C   9,C   8,C   7)     -0.2215         0.015854   
    160. D(C  15,C  10,C   9,H  35)     -6.5599         0.025119   
    161. D(C   5,C  10,C   9,H  35)    177.7854         0.025119   
    162. D(C  15,C  10,C   9,C   8)    173.8612         0.025119   
    163. D(C   5,C  10,C   9,C   8)     -1.7935         0.025119   
    164. D(C  15,C  10,C   5,C   6)   -172.5327         0.016201   
    165. D(C  15,C  10,C   5,N   1)      8.2379         0.016201   
    166. D(C   9,C  10,C   5,C   6)      2.8095         0.016201   
    167. D(C   9,C  10,C   5,N   1)   -176.4199         0.016201   
    168. D(H  14,C  11,C   6,C   7)     22.0051         0.008820   
    169. D(H  14,C  11,C   6,C   5)   -157.0980         0.008820   
    170. D(H  13,C  11,C   6,C   7)    140.7818         0.008820   
    171. D(H  13,C  11,C   6,C   5)    -38.3213         0.008820   
    172. D(H  12,C  11,C   6,C   7)    -97.4774         0.008820   
    173. D(H  12,C  11,C   6,C   5)     83.4195         0.008820   
    174. D(H  18,C  15,C  10,C   9)    -64.4990         0.005161   
    175. D(H  18,C  15,C  10,C   5)    110.6239         0.005161   
    176. D(H  16,C  15,C  10,C   9)    171.6753         0.005161   
    177. D(H  16,C  15,C  10,C   5)    -13.2019         0.005161   
    178. D(H  17,C  15,C  10,C   9)     50.6826         0.005161   
    179. D(H  17,C  15,C  10,C   5)   -134.1946         0.005161   
    180. D(C  24,C  19,N   4,C   0)    -86.7474         0.015988   
    181. D(C  20,C  19,N   4,C   3)    -86.9006         0.015988   
    182. D(C  20,C  19,N   4,C   0)     91.8340         0.015988   
    183. D(C  24,C  19,N   4,C   3)     94.5180         0.015988   
    184. D(C  25,C  20,C  19,C  24)   -177.9854         0.023105   
    185. D(C  25,C  20,C  19,N   4)      3.5309         0.023105   
    186. D(C  21,C  20,C  19,C  24)      1.0506         0.023105   
    187. D(C  21,C  20,C  19,N   4)   -177.4330         0.023105   
    188. D(H  38,C  21,C  20,C  25)     -1.7962         0.025090   
    189. D(H  38,C  21,C  20,C  19)    179.1537         0.025090   
    190. D(C  22,C  21,C  20,C  25)    178.4945         0.025090   
    191. D(C  22,C  21,C  20,C  19)     -0.5556         0.025090   
    192. D(H  36,C  22,C  21,H  38)     -0.2629         0.022880   
    193. D(H  36,C  22,C  21,C  20)    179.4408         0.022880   
    194. D(C  23,C  22,C  21,H  38)    179.9712         0.022880   
    195. D(C  23,C  22,C  21,C  20)     -0.3251         0.022880   
    196. D(H  37,C  23,C  22,H  36)      1.2172         0.024821   
    197. D(H  37,C  23,C  22,C  21)   -179.0154         0.024821   
    198. D(C  24,C  23,C  22,H  36)   -178.9831         0.024821   
    199. D(C  24,C  23,C  22,C  21)      0.7843         0.024821   
    200. D(C  29,C  24,C  23,H  37)     -1.0423         0.025127   
    201. D(C  29,C  24,C  23,C  22)    179.1558         0.025127   
    202. D(C  19,C  24,C  23,H  37)    179.4798         0.025127   
    203. D(C  19,C  24,C  23,C  22)     -0.3221         0.025127   
    204. D(C  29,C  24,C  19,C  20)    179.9095         0.021888   
    205. D(C  29,C  24,C  19,N   4)     -1.6143         0.021888   
    206. D(C  23,C  24,C  19,C  20)     -0.6193         0.021888   
    207. D(C  23,C  24,C  19,N   4)    177.8570         0.021888   
    208. D(H  28,C  25,C  20,C  21)    133.3641         0.010091   
    209. D(H  28,C  25,C  20,C  19)    -47.6451         0.010091   
    210. D(H  27,C  25,C  20,C  21)   -106.1767         0.010091   
    211. D(H  27,C  25,C  20,C  19)     72.8141         0.010091   
    212. D(H  26,C  25,C  20,C  21)     13.8413         0.010091   
    213. D(H  26,C  25,C  20,C  19)   -167.1679         0.010091   
    214. D(H  32,C  29,C  24,C  23)   -102.7149         0.011168   
    215. D(H  32,C  29,C  24,C  19)     76.7371         0.011168   
    216. D(H  31,C  29,C  24,C  23)     16.4637         0.011168   
    217. D(H  31,C  29,C  24,C  19)   -164.0842         0.011168   
    218. D(H  30,C  29,C  24,C  23)    137.3081         0.011168   
    219. D(H  30,C  29,C  24,C  19)    -43.2398         0.011168   
    -----------------------------------------------------------------

Number of atoms                         .... 42
Number of degrees of freedom            .... 219

         *************************************************************
         *                GEOMETRY OPTIMIZATION CYCLE   1            *
         *************************************************************
---------------------------------
CARTESIAN COORDINATES (ANGSTROEM)
---------------------------------
  C      0.156500   -1.095440    0.058800
  N     -0.919720   -0.337790    0.283630
  C     -0.523010    0.981160    0.513230
  C      0.826200    0.997050    0.411590
  N      1.228990   -0.313140    0.126580
  C     -2.266570   -0.855490    0.220680
  C     -2.653180   -1.526650   -1.024830
  C     -3.937400   -2.071140   -1.066250
  C     -4.780070   -1.958200    0.090340
  C     -4.368420   -1.266610    1.308860
  C     -3.102990   -0.676040    1.400580
  C     -1.739540   -1.644090   -2.277640
  H     -1.022800   -2.512400   -2.193520
  H     -1.141020   -0.721980   -2.461090
  H     -2.352490   -1.803850   -3.171800
  C     -2.721160    0.223910    2.720920
  H     -1.238470    0.651690    2.800500
  H     -3.096600   -0.691120    3.543040
  H     -3.581890    1.508810    2.866060
  C      2.576860   -0.796570   -0.095060
  C      3.088810   -0.722360   -1.407050
  C      4.371410   -1.246780   -1.604130
  C      5.099160   -1.803730   -0.530490
  C      4.563480   -1.842240    0.763490
  C      3.280900   -1.339120    1.008950
  C      2.305830   -0.084480   -2.562940
  H      2.792830   -0.344990   -3.510940
  H      2.284490    1.035040   -2.452410
  H      1.243530   -0.427740   -2.632850
  C      2.677520   -1.390650    2.403310
  H      2.161650   -0.446120    2.656200
  H      3.456580   -1.574080    3.147380
  H      1.939980   -2.201690    2.494540
  H     -4.283360   -2.570830   -2.018980
  H     -5.773120   -2.402570    0.040490
  H     -5.030560   -1.185310    2.210240
  H      6.095000   -2.216220   -0.706350
  H      5.147120   -2.264950    1.597950
  H      4.799120   -1.220950   -2.611980
  H     -1.237060    1.775720    0.722080
  H      1.533010    1.812400    0.515790
  H      0.159310   -2.170930   -0.154340

----------------------------
CARTESIAN COORDINATES (A.U.)
----------------------------
  NO LB      ZA    FRAG     MASS         X           Y           Z
   0 C     6.0000    0    12.011    0.295742   -2.070082    0.111116
   1 N     7.0000    0    14.007   -1.738019   -0.638331    0.535983
   2 C     6.0000    0    12.011   -0.988346    1.854124    0.969864
   3 C     6.0000    0    12.011    1.561292    1.884151    0.777792
   4 N     7.0000    0    14.007    2.322455   -0.591749    0.239202
   5 C     6.0000    0    12.011   -4.283197   -1.616642    0.417025
   6 C     6.0000    0    12.011   -5.013784   -2.884950   -1.936648
   7 C     6.0000    0    12.011   -7.440608   -3.913887   -2.014920
   8 C     6.0000    0    12.011   -9.033023   -3.700462    0.170718
   9 C     6.0000    0    12.011   -8.255117   -2.393546    2.473387
  10 C     6.0000    0    12.011   -5.863801   -1.277530    2.646713
  11 C     6.0000    0    12.011   -3.287254   -3.106880   -4.304116
  12 H     1.0000    0     1.008   -1.932812   -4.747748   -4.145152
  13 H     1.0000    0     1.008   -2.156215   -1.364344   -4.650786
  14 H     1.0000    0     1.008   -4.445562   -3.408782   -5.993833
  15 C     6.0000    0    12.011   -5.142247    0.423129    5.141794
  16 H     1.0000    0     1.008   -2.340369    1.231516    5.292178
  17 H     1.0000    0     1.008   -5.851726   -1.306028    6.695375
  18 H     1.0000    0     1.008   -6.768791    2.851238    5.416068
  19 C     6.0000    0    12.011    4.869560   -1.505299   -0.179637
  20 C     6.0000    0    12.011    5.837005   -1.365063   -2.658939
  21 C     6.0000    0    12.011    8.260768   -2.356073   -3.031366
  22 C     6.0000    0    12.011    9.636016   -3.408556   -1.002481
  23 C     6.0000    0    12.011    8.623727   -3.481329    1.442787
  24 C     6.0000    0    12.011    6.200002   -2.530570    1.906639
  25 C     6.0000    0    12.011    4.357387   -0.159644   -4.843255
  26 H     1.0000    0     1.008    5.277684   -0.651937   -6.634715
  27 H     1.0000    0     1.008    4.317060    1.955942   -4.634383
  28 H     1.0000    0     1.008    2.349931   -0.808311   -4.975365
  29 C     6.0000    0    12.011    5.059780   -2.627948    4.541598
  30 H     1.0000    0     1.008    4.084926   -0.843045    5.019491
  31 H     1.0000    0     1.008    6.531990   -2.974580    5.947686
  32 H     1.0000    0     1.008    3.666031   -4.160591    4.713997
  33 H     1.0000    0     1.008   -8.094377   -4.858165   -3.815319
  34 H     1.0000    0     1.008  -10.909616   -4.540199    0.076515
  35 H     1.0000    0     1.008   -9.506381   -2.239911    4.176748
  36 H     1.0000    0     1.008   11.517881   -4.188049   -1.334808
  37 H     1.0000    0     1.008    9.726647   -4.280135    3.019688
  38 H     1.0000    0     1.008    9.069022   -2.307261   -4.935927
  39 H     1.0000    0     1.008   -2.337705    3.355624    1.364533
  40 H     1.0000    0     1.008    2.896969    3.424940    0.974702
  41 H     1.0000    0     1.008    0.301052   -4.102463   -0.291660

--------------------------------
INTERNAL COORDINATES (ANGSTROEM)
--------------------------------
 C      0   0   0     0.000000000000     0.00000000     0.00000000
 N      1   0   0     1.335227149140     0.00000000     0.00000000
 C      2   1   0     1.396325208037   109.55291757     0.00000000
 C      3   2   1     1.353126308147   106.38133425     0.37126511
 N      1   2   3     1.329218649621   107.92671373   359.61248686
 C      2   1   3     1.444292530965   122.74546362   177.33375972
 C      6   2   1     1.466703173038   116.54134082   305.02818489
 C      7   6   2     1.395494888884   116.50794225   177.64659358
 C      8   7   6     1.435461110793   119.05275416   359.33860891
 C      9   8   7     1.460323060490   122.96281034     1.55532318
 C     10   9   8     1.399463671626   120.62596377   359.77847455
 C      7   6   2     1.555012250531   124.32216755   356.77145168
 H     12   7   6     1.129050334618   111.77977602    83.41948181
 H     12   7   6     1.114525434882   112.68398870   321.67865361
 H     12   7   6     1.095788786993   109.86296847   202.90197314
 C     11  10   9     1.642863922241   119.60368105   173.86121507
 H     16  11  10     1.545217894311   114.58574149   171.67527237
 H     16  11  10     1.286124561969    93.21889250    50.68255115
 H     16  11  10     1.553347920622   113.54270339   295.50100824
 C      5   1   2     1.448993578799   123.11984135   181.31470053
 C     20   5   1     1.410289930014   117.54338932    91.83399509
 C     21  20   5     1.399614097814   116.35556294   182.56695837
 C     22  21  20     1.411565164844   120.87698344   359.44436031
 C     23  22  21     1.401006896093   121.07878510   359.67492003
 C     24  23  22     1.399425525850   120.16870470     0.78425809
 C     21  20   5     1.534936567712   122.49721079     3.53092617
 H     26  21  20     1.097150153853   109.00084102   192.83210914
 H     26  21  20     1.125165457566   110.43765400    72.81411026
 H     26  21  20     1.118568784519   113.82733365   312.35494897
 C     25  24  23     1.520185046269   120.82835686   179.15583574
 H     30  25  24     1.105537032351   111.47303797   137.30811554
 H     30  25  24     1.092804288699   110.31957955    16.46370477
 H     30  25  24     1.100033656803   111.54175941   257.28507654
 H      8   7   6     1.130076488827   118.63817399   178.28512549
 H      9   8   7     1.089081274240   117.79387980   180.83913571
 H     10   9   8     1.121394209901   122.58820720   180.22460572
 H     23  22  21     1.092141037275   119.77856370   179.44084201
 H     24  23  22     1.102561964381   120.47485830   180.98461948
 H     22  21  20     1.095155082854   118.59684575   179.15370563
 H      3   2   1     1.088490385167   122.32279896   180.15943866
 H      4   3   2     1.084081933527   130.67100752   179.87119602
 H      1   2   3     1.096410185925   126.25668558   180.16921185

---------------------------
INTERNAL COORDINATES (A.U.)
---------------------------
 C      0   0   0     0.000000000000     0.00000000     0.00000000
 N      1   0   0     2.523213638451     0.00000000     0.00000000
 C      2   1   0     2.638672237081   109.55291757     0.00000000
 C      3   2   1     2.557038147002   106.38133425     0.37126511
 N      1   2   3     2.511859219884   107.92671373   359.61248686
 C      2   1   3     2.729317340791   122.74546362   177.33375972
 C      6   2   1     2.771667316795   116.54134082   305.02818489
 C      7   6   2     2.637103161277   116.50794225   177.64659358
 C      8   7   6     2.712628375294   119.05275416   359.33860891
 C      9   8   7     2.759610651377   122.96281034     1.55532318
 C     10   9   8     2.644603073744   120.62596377   359.77847455
 C      7   6   2     2.938547288395   124.32216755   356.77145168
 H     12   7   6     2.133595923839   111.77977602    83.41948181
 H     12   7   6     2.106147841217   112.68398870   321.67865361
 H     12   7   6     2.070740708039   109.86296847   202.90197314
 C     11  10   9     3.104562888335   119.60368105   173.86121507
 H     16  11  10     2.920038637483   114.58574149   171.67527237
 H     16  11  10     2.430423196231    93.21889250    50.68255115
 H     16  11  10     2.935402160671   113.54270339   295.50100824
 C      5   1   2     2.738201033740   123.11984135   181.31470053
 C     20   5   1     2.665061737154   117.54338932    91.83399509
 C     21  20   5     2.644887338044   116.35556294   182.56695837
 C     22  21  20     2.667471581738   120.87698344   359.44436031
 C     23  22  21     2.647519345351   121.07878510   359.67492003
 C     24  23  22     2.644530988675   120.16870470     0.78425809
 C     21  20   5     2.900609745917   122.49721079     3.53092617
 H     26  21  20     2.073313318572   109.00084102   192.83210914
 H     26  21  20     2.126254570148   110.43765400    72.81411026
 H     26  21  20     2.113788664694   113.82733365   312.35494897
 C     25  24  23     2.872733410331   120.82835686   179.15583574
 H     30  25  24     2.089162222052   111.47303797   137.30811554
 H     30  25  24     2.065100823617   110.31957955    16.46370477
 H     30  25  24     2.078762349454   111.54175941   257.28507654
 H      8   7   6     2.135535074267   118.63817399   178.28512549
 H      9   8   7     2.058065345895   117.79387980   180.83913571
 H     10   9   8     2.119127944878   122.58820720   180.22460572
 H     23  22  21     2.063847460066   119.77856370   179.44084201
 H     24  23  22     2.083540158359   120.47485830   180.98461948
 H     22  21  20     2.069543180765   118.59684575   179.15370563
 H      3   2   1     2.056948727371   122.32279896   180.15943866
 H      4   3   2     2.048617961098   130.67100752   179.87119602
 H      1   2   3     2.071914981840   126.25668558   180.16921185

---------------------
BASIS SET INFORMATION
---------------------
There are 3 groups of distinct atoms

 Group   1 Type C   : 11s6p2d1f contracted to 5s3p2d1f pattern {62111/411/11/1}
 Group   2 Type N   : 11s6p2d1f contracted to 5s3p2d1f pattern {62111/411/11/1}
 Group   3 Type H   : 5s1p contracted to 3s1p pattern {311/1}

Atom   0C    basis set group =>   1
Atom   1N    basis set group =>   2
Atom   2C    basis set group =>   1
Atom   3C    basis set group =>   1
Atom   4N    basis set group =>   2
Atom   5C    basis set group =>   1
Atom   6C    basis set group =>   1
Atom   7C    basis set group =>   1
Atom   8C    basis set group =>   1
Atom   9C    basis set group =>   1
Atom  10C    basis set group =>   1
Atom  11C    basis set group =>   1
Atom  12H    basis set group =>   3
Atom  13H    basis set group =>   3
Atom  14H    basis set group =>   3
Atom  15C    basis set group =>   1
Atom  16H    basis set group =>   3
Atom  17H    basis set group =>   3
Atom  18H    basis set group =>   3
Atom  19C    basis set group =>   1
Atom  20C    basis set group =>   1
Atom  21C    basis set group =>   1
Atom  22C    basis set group =>   1
Atom  23C    basis set group =>   1
Atom  24C    basis set group =>   1
Atom  25C    basis set group =>   1
Atom  26H    basis set group =>   3
Atom  27H    basis set group =>   3
Atom  28H    basis set group =>   3
Atom  29C    basis set group =>   1
Atom  30H    basis set group =>   3
Atom  31H    basis set group =>   3
Atom  32H    basis set group =>   3
Atom  33H    basis set group =>   3
Atom  34H    basis set group =>   3
Atom  35H    basis set group =>   3
Atom  36H    basis set group =>   3
Atom  37H    basis set group =>   3
Atom  38H    basis set group =>   3
Atom  39H    basis set group =>   3
Atom  40H    basis set group =>   3
Atom  41H    basis set group =>   3
---------------------------------
AUXILIARY/J BASIS SET INFORMATION
---------------------------------
There are 3 groups of distinct atoms

 Group   1 Type C   : 12s5p4d2f1g contracted to 6s4p3d1f1g pattern {711111/2111/211/2/1}
 Group   2 Type N   : 12s5p4d2f1g contracted to 6s4p3d1f1g pattern {711111/2111/211/2/1}
 Group   3 Type H   : 5s2p1d contracted to 3s1p1d pattern {311/2/1}

Atom   0C    basis set group =>   1
Atom   1N    basis set group =>   2
Atom   2C    basis set group =>   1
Atom   3C    basis set group =>   1
Atom   4N    basis set group =>   2
Atom   5C    basis set group =>   1
Atom   6C    basis set group =>   1
Atom   7C    basis set group =>   1
Atom   8C    basis set group =>   1
Atom   9C    basis set group =>   1
Atom  10C    basis set group =>   1
Atom  11C    basis set group =>   1
Atom  12H    basis set group =>   3
Atom  13H    basis set group =>   3
Atom  14H    basis set group =>   3
Atom  15C    basis set group =>   1
Atom  16H    basis set group =>   3
Atom  17H    basis set group =>   3
Atom  18H    basis set group =>   3
Atom  19C    basis set group =>   1
Atom  20C    basis set group =>   1
Atom  21C    basis set group =>   1
Atom  22C    basis set group =>   1
Atom  23C    basis set group =>   1
Atom  24C    basis set group =>   1
Atom  25C    basis set group =>   1
Atom  26H    basis set group =>   3
Atom  27H    basis set group =>   3
Atom  28H    basis set group =>   3
Atom  29C    basis set group =>   1
Atom  30H    basis set group =>   3
Atom  31H    basis set group =>   3
Atom  32H    basis set group =>   3
Atom  33H    basis set group =>   3
Atom  34H    basis set group =>   3
Atom  35H    basis set group =>   3
Atom  36H    basis set group =>   3
Atom  37H    basis set group =>   3
Atom  38H    basis set group =>   3
Atom  39H    basis set group =>   3
Atom  40H    basis set group =>   3
Atom  41H    basis set group =>   3


           ************************************************************
           *        Program running with 4 parallel MPI-processes     *
           *              working on a common directory               *
           ************************************************************
------------------------------------------------------------------------------
                           ORCA GTO INTEGRAL CALCULATION
                           -- RI-GTO INTEGRALS CHOSEN --
------------------------------------------------------------------------------
------------------------------------------------------------------------------
                   ___                                                        
                  /   \      - P O W E R E D   B Y -                         
                 /     \                                                     
                 |  |  |   _    _      __       _____    __    __             
                 |  |  |  | |  | |    /  \     |  _  \  |  |  /  |          
                  \  \/   | |  | |   /    \    | | | |  |  | /  /          
                 / \  \   | |__| |  /  /\  \   | |_| |  |  |/  /          
                |  |  |   |  __  | /  /__\  \  |    /   |      \           
                |  |  |   | |  | | |   __   |  |    \   |  |\   \          
                \     /   | |  | | |  |  |  |  | |\  \  |  | \   \       
                 \___/    |_|  |_| |__|  |__|  |_| \__\ |__|  \__/        
                                                                              
                      - O R C A' S   B I G   F R I E N D -                    
                                      &                                       
                       - I N T E G R A L  F E E D E R -                       
                                                                              
 v1 FN, 2020, v2 2021                                                         
------------------------------------------------------------------------------


Reading SHARK input file 8_prot.SHARKINP.tmp ... ok
----------------------
SHARK INTEGRAL PACKAGE
----------------------

Number of atoms                             ...     42
Number of basis functions                   ...    777
Number of shells                            ...    315
Maximum angular momentum                    ...      3
Integral batch strategy                     ... SHARK/LIBINT Hybrid
RI-J (if used) integral strategy            ... SPLIT-RIJ (Revised 2003 algorithm where possible)
Printlevel                                  ...      1
Contraction scheme used                     ... SEGMENTED contraction
Coulomb Range Separation                    ... NOT USED
Exchange Range Separation                   ... Long Range
   Mu parameter                             ...  0.300000
   Scaling (regular/separated)              ...  0.157706  0.842294
Finite Nucleus Model                        ... NOT USED
Auxiliary Coulomb fitting basis             ... AVAILABLE
   # of basis functions in Aux-J            ...   1260
   # of shells in Aux-J                     ...    420
   Maximum angular momentum in Aux-J        ...      4
Auxiliary J/K fitting basis                 ... NOT available
Auxiliary Correlation fitting basis         ... NOT available
Auxiliary 'external' fitting basis          ... NOT available
Integral threshold                          ...     2.500000e-11
Primitive cut-off                           ...     2.500000e-12
Primitive pair pre-selection threshold      ...     2.500000e-12

Calculating pre-screening integrals         ... done (  0.1 sec) Dimension = 315
Organizing shell pair data                  ... done (  0.4 sec)
Shell pair information
Total number of shell pairs                 ...     49770
Shell pairs after pre-screening             ...     35960
Total number of primitive shell pairs       ...    149856
Primitive shell pairs kept                  ...     72598
          la=0 lb=0:   9906 shell pairs
          la=1 lb=0:  10509 shell pairs
          la=1 lb=1:   2802 shell pairs
          la=2 lb=0:   5030 shell pairs
          la=2 lb=1:   2654 shell pairs
          la=2 lb=2:    658 shell pairs
          la=3 lb=0:   2345 shell pairs
          la=3 lb=1:   1290 shell pairs
          la=3 lb=2:    611 shell pairs
          la=3 lb=3:    155 shell pairs

Calculating one electron integrals          ... done (  0.1 sec)
Calculating RI/J V-Matrix + Cholesky decomp.... done (  0.2 sec)
Calculating Nuclear repulsion               ... done (  0.0 sec) ENN=   1593.631292879979 Eh

SHARK setup successfully completed in   1.5 seconds

Maximum memory used throughout the entire GTOINT-calculation: 54.3 MB


           ************************************************************
           *        Program running with 4 parallel MPI-processes     *
           *              working on a common directory               *
           ************************************************************
-------------------------------------------------------------------------------
                                 ORCA SCF
-------------------------------------------------------------------------------

------------
SCF SETTINGS
------------
Hamiltonian:
 Density Functional     Method          .... DFT(GTOs)
 Exchange Functional    Exchange        .... WB97X
 Correlation Functional Correlation     .... WB97X
 Gradients option       PostSCFGGA      .... off
 Hybrid DFT is turned on
   Fraction HF Exchange ScalHFX         ....  0.157706
   Scaling of DF-GGA-X  ScalDFX         ....  0.000000
   Scaling of DF-GGA-C  ScalDFC         ....  1.000000
   Scaling of DF-LDA-C  ScalLDAC        ....  1.000000
   Perturbative correction              ....  0.000000
   Density functional embedding theory  .... OFF
 Long-range corrected/Screened/Range-Separated Hybrid DFT is turned on
   Amount of maximum screened exact exchange              ....  0.842294
   Range separation parameter mu (erf(mu*r12)/r12)        ....  0.300000
 RI-approximation to the Coulomb term is turned on
   Number of AuxJ basis functions       .... 1260
   RIJ-COSX (HFX calculated with COS-X)).... on


General Settings:
 Integral files         IntName         .... 8_prot
 Hartree-Fock type      HFTyp           .... RHF
 Total Charge           Charge          ....    1
 Multiplicity           Mult            ....    1
 Number of Electrons    NEL             ....  148
 Basis Dimension        Dim             ....  777
 Nuclear Repulsion      ENuc            ....   1593.6312928800 Eh

Convergence Acceleration:
 DIIS                   CNVDIIS         .... on
   Start iteration      DIISMaxIt       ....     0
   Startup error        DIISStart       ....  0.200000
   # of expansion vecs  DIISMaxEq       ....     5
   Bias factor          DIISBfac        ....   1.050
   Max. coefficient     DIISMaxC        ....  10.000
 Trust-Rad. Augm. Hess. CNVTRAH         .... auto
   Auto Start mean grad. ratio tolernc. ....  1.125000
   Auto Start start iteration           ....    20
   Auto Start num. interpolation iter.  ....    10
   Max. Number of Micro iterations      ....    16
   Max. Number of Macro iterations      .... Maxiter - #DIIS iter
   Number of Davidson start vectors     ....     2
   Converg. threshold I  (grad. norm)   ....   1.000e-05
   Converg. threshold II (energy diff.) ....   1.000e-08
   Grad. Scal. Fac. for Micro threshold ....   0.100
   Minimum threshold for Micro iter.    ....   0.010
   NR start threshold (gradient norm)   ....   0.001
   Initial trust radius                 ....   0.400
   Minimum AH scaling param. (alpha)    ....   1.000
   Maximum AH scaling param. (alpha)    .... 1000.000
   Orbital update algorithm             .... Taylor
   White noise on init. David. guess    .... on
   Maximum white noise                  ....   0.010
   Quad. conv. algorithm                .... NR
 SOSCF                  CNVSOSCF        .... on
   Start iteration      SOSCFMaxIt      ....   150
   Startup grad/error   SOSCFStart      ....  0.001000
 Level Shifting         CNVShift        .... on
   Level shift para.    LevelShift      ....    0.2500
   Turn off err/grad.   ShiftErr        ....    0.0000
 Zerner damping         CNVZerner       .... off
 Static damping         CNVDamp         .... on
   Fraction old density DampFac         ....    0.8500
   Max. Damping (<1)    DampMax         ....    0.9800
   Min. Damping (>=0)   DampMin         ....    0.0000
   Turn off err/grad.   DampErr         ....    0.0300
 Fernandez-Rico         CNVRico         .... off

SCF Procedure:
 Maximum # iterations   MaxIter         ....   125
 SCF integral mode      SCFMode         .... Direct
   Integral package                     .... SHARK and LIBINT hybrid scheme
 Reset frequency        DirectResetFreq ....    20
 Integral Threshold     Thresh          ....  2.500e-11 Eh
 Primitive CutOff       TCut            ....  2.500e-12 Eh

Convergence Tolerance:
 Convergence Check Mode ConvCheckMode   .... Total+1el-Energy
 Convergence forced     ConvForced      .... 0
 Energy Change          TolE            ....  1.000e-08 Eh
 1-El. energy change                    ....  1.000e-05 Eh
 Orbital Gradient       TolG            ....  1.000e-05
 Orbital Rotation angle TolX            ....  1.000e-05
 DIIS Error             TolErr          ....  5.000e-07


Diagonalization of the overlap matrix:
Smallest eigenvalue                        ... 4.730e-06
Time for diagonalization                   ...    0.170 sec
Threshold for overlap eigenvalues          ... 1.000e-08
Number of eigenvalues below threshold      ... 0
Time for construction of square roots      ...    0.070 sec
Total time needed                          ...    0.244 sec

Time for model grid setup =    0.653 sec

------------------------------
INITIAL GUESS: MODEL POTENTIAL
------------------------------
Loading Hartree-Fock densities                     ... done
Calculating cut-offs                               ... done
Initializing the effective Hamiltonian             ... done
Setting up the integral package (SHARK)            ... done
Starting the Coulomb interaction                   ... done (   1.5 sec)
Reading the grid                                   ... done
Mapping shells                                     ... done
Starting the XC term evaluation                    ... done (   1.0 sec)
  promolecular density results
     # of electrons  =    148.986968676
     EX              =   -116.229127093
     EC              =     -4.924521865
     EX+EC           =   -121.153648958
Transforming the Hamiltonian                       ... done (   0.1 sec)
Diagonalizing the Hamiltonian                      ... done (   0.2 sec)
Back transforming the eigenvectors                 ... done (   0.0 sec)
Now organizing SCF variables                       ... done
                      ------------------
                      INITIAL GUESS DONE (   3.5 sec)
                      ------------------
-------------------
DFT GRID GENERATION
-------------------

General Integration Accuracy     IntAcc      ... 4.388
Radial Grid Type                 RadialGrid  ... OptM3 with GC (2021)
Angular Grid (max. ang.)         AngularGrid ... 4 (Lebedev-302)
Angular grid pruning method      GridPruning ... 4 (adaptive)
Weight generation scheme         WeightScheme... Becke
Basis function cutoff            BFCut       ... 1.0000e-11
Integration weight cutoff        WCut        ... 1.0000e-14
Angular grids for H and He will be reduced by one unit
Partially contracted basis set               ... off
Rotationally invariant grid construction     ... off

Total number of grid points                  ...   192195
Total number of batches                      ...     3027
Average number of points per batch           ...       63
Average number of grid points per atom       ...     4576
Time for grid setup =    2.353 sec

--------------------
COSX GRID GENERATION
--------------------

GRIDX 1
-------
General Integration Accuracy     IntAcc      ... 3.816
Radial Grid Type                 RadialGrid  ... OptM3 with GC (2021)
Angular Grid (max. ang.)         AngularGrid ... 1 (Lebedev-50)
Angular grid pruning method      GridPruning ... 4 (adaptive)
Weight generation scheme         WeightScheme... Becke
Basis function cutoff            BFCut       ... 1.0000e-11
Integration weight cutoff        WCut        ... 1.0000e-14
Angular grids for H and He will be reduced by one unit
Partially contracted basis set               ... on
Rotationally invariant grid construction     ... off

Total number of grid points                  ...    24448
Total number of batches                      ...      402
Average number of points per batch           ...       60
Average number of grid points per atom       ...      582
UseSFitting                                  ... on

GRIDX 2
-------
General Integration Accuracy     IntAcc      ... 4.020
Radial Grid Type                 RadialGrid  ... OptM3 with GC (2021)
Angular Grid (max. ang.)         AngularGrid ... 2 (Lebedev-110)
Angular grid pruning method      GridPruning ... 4 (adaptive)
Weight generation scheme         WeightScheme... Becke
Basis function cutoff            BFCut       ... 1.0000e-11
Integration weight cutoff        WCut        ... 1.0000e-14
Angular grids for H and He will be reduced by one unit
Partially contracted basis set               ... on
Rotationally invariant grid construction     ... off

Total number of grid points                  ...    52195
Total number of batches                      ...      837
Average number of points per batch           ...       62
Average number of grid points per atom       ...     1243
UseSFitting                                  ... on

GRIDX 3
-------
General Integration Accuracy     IntAcc      ... 4.338
Radial Grid Type                 RadialGrid  ... OptM3 with GC (2021)
Angular Grid (max. ang.)         AngularGrid ... 3 (Lebedev-194)
Angular grid pruning method      GridPruning ... 4 (adaptive)
Weight generation scheme         WeightScheme... Becke
Basis function cutoff            BFCut       ... 1.0000e-11
Integration weight cutoff        WCut        ... 1.0000e-14
Angular grids for H and He will be reduced by one unit
Partially contracted basis set               ... on
Rotationally invariant grid construction     ... off

Total number of grid points                  ...   113740
Total number of batches                      ...     1798
Average number of points per batch           ...       63
Average number of grid points per atom       ...     2708
UseSFitting                                  ... on

Time for X-Grid setup             =    3.938 sec


--------------------
CPCM SOLVATION MODEL
--------------------
CPCM parameters:
  Epsilon                                         ...      80.4000
  Refrac                                          ...       1.3300
  Rsolv                                           ...       1.3000
  Surface type                                    ... GAUSSIAN VDW
  Epsilon function type                           ...         CPCM
Radii:
 Radius for C  used is    3.8550 Bohr (=   2.0400 Ang.)
 Radius for N  used is    3.5149 Bohr (=   1.8600 Ang.)
 Radius for H  used is    2.4944 Bohr (=   1.3200 Ang.)
Calculating surface                               ...        done! (  0.0s)
GEPOL surface points                              ...         2270
GEPOL Volume                                      ...    2492.7280
GEPOL Surface-area                                ...    1263.0591
Calculating surface distance matrix               ...        done! (  0.0s)
Performing Cholesky decomposition & store         ...        done! (  0.3s)
Overall time for CPCM initialization              ...                 0.3s
--------------
SCF ITERATIONS
--------------
ITER       Energy         Delta-E        Max-DP      RMS-DP      [F,P]     Damp
               ***  Starting incremental Fock matrix formation  ***
  0   -845.5715228945   0.000000000000 0.01440640  0.00027402  0.1641248 0.8500
  1   -845.6431669107  -0.071644016244 0.01419349  0.00026857  0.1324764 0.8500
                               ***Turning on DIIS***
  2   -845.6981628261  -0.054995915412 0.01109367  0.00022051  0.1021269 0.8500
  3   -845.7392055170  -0.041042690907 0.00790098  0.00017031  0.0777994 0.8500
  4   -845.7709741874  -0.031768670379 0.00687115  0.00014044  0.0620878 0.8500
  5   -845.7960618263  -0.025087638847 0.00604403  0.00012025  0.0514011 0.8500
  6   -845.8164873905  -0.020425564226 0.00531172  0.00010397  0.0432907 0.8500
  7   -845.8334168968  -0.016929506295 0.00467970  0.00009031  0.0367217 0.8500
  8   -845.8475995785  -0.014182681743 0.00409478  0.00007803  0.0311078 0.8500
  9   -845.8595037609  -0.011904182387 0.02365834  0.00044628  0.0262918 0.0000
 10   -845.9243145971  -0.064810836206 0.00105036  0.00001665  0.0011618 0.0000
                      *** Initiating the SOSCF procedure ***
                           *** Shutting down DIIS ***
                      *** Re-Reading the Fockian *** 
                      *** Removing any level shift *** 
ITER      Energy       Delta-E        Grad      Rot      Max-DP    RMS-DP
 11   -845.92434336  -0.0000287590  0.000482  0.000482  0.000652  0.000009
               *** Restarting incremental Fock matrix formation ***
 12   -845.92433849   0.0000048701  0.000207  0.000515  0.007837  0.000105
 13   -845.92434117  -0.0000026808  0.000152  0.000704  0.002968  0.000041
 14   -845.92434176  -0.0000005927  0.000050  0.000092  0.002549  0.000034
 15   -845.92434192  -0.0000001632  0.000008  0.000014  0.000141  0.000002
 16   -845.92434190   0.0000000187  0.000003  0.000011  0.000110  0.000001
                  ***Gradient check signals convergence***
              ***Rediagonalizing the Fockian in SOSCF/NRSCF***

               *****************************************************
               *                     SUCCESS                       *
               *           SCF CONVERGED AFTER  17 CYCLES          *
               *****************************************************

Old exchange energy                            =    -38.072201258 Eh
New exchange energy                            =    -38.072194221 Eh
Exchange energy change after final integration =      0.000007037 Eh
Total energy after final integration           =   -845.924334889 Eh
Final COS-X integration done in                =   147.552 sec

----------------
TOTAL SCF ENERGY
----------------

Total Energy       :         -845.92433489 Eh          -23018.77140 eV

Components:
Nuclear Repulsion  :         1593.63129288 Eh           43364.91211 eV
Electronic Energy  :        -2439.55562777 Eh          -66383.68351 eV
One Electron Energy:        -4287.25329537 Eh         -116662.09315 eV
Two Electron Energy:         1847.69766760 Eh           50278.40964 eV
Max COSX asymmetry :            0.00000088 Eh               0.00002 eV
CPCM Dielectric    :           -0.07778359 Eh              -2.11660 eV

Virial components:
Potential Energy   :        -1685.64561459 Eh          -45868.74910 eV
Kinetic Energy     :          839.72127970 Eh           22849.97769 eV
Virial Ratio       :            2.00738704


DFT components:
N(Alpha)           :       74.000045383933 electrons
N(Beta)            :       74.000045383933 electrons
N(Total)           :      148.000090767866 electrons
E(XC)              :      -85.768645633058 Eh       
DFET-embed. en.    :        0.000000000000 Eh       
CPCM Solvation Model Properties:
Surface-charge          :           -1.03682080
Charge-correction       :            0.00413654 Eh               0.11256 eV
Free-energy (cav+disp)  :  This term is not implemented in the current solvation scheme

---------------
SCF CONVERGENCE
---------------

  Last Energy change         ...   -2.1539e-08  Tolerance :   1.0000e-08
  Last MAX-Density change    ...    2.6645e-15  Tolerance :   1.0000e-07
  Last RMS-Density change    ...    1.4477e-17  Tolerance :   5.0000e-09
  Last Orbital Gradient      ...    1.7617e-06  Tolerance :   1.0000e-05
  Last Orbital Rotation      ...    7.3309e-06  Tolerance :   1.0000e-05

             **** THE GBW FILE WAS UPDATED (8_prot.gbw) ****
             **** DENSITY 8_prot.scfp WAS UPDATED ****
             **** ENERGY FILE WAS UPDATED (8_prot.en.tmp) ****
             **** THE GBW FILE WAS UPDATED (8_prot.gbw) ****
             **** DENSITY 8_prot.scfp WAS UPDATED ****
----------------
ORBITAL ENERGIES
----------------

  NO   OCC          E(Eh)            E(eV) 
   0   2.0000     -14.508978      -394.8094 
   1   2.0000     -14.508019      -394.7833 
   2   2.0000     -10.379223      -282.4330 
   3   2.0000     -10.363522      -282.0058 
   4   2.0000     -10.340267      -281.3730 
   5   2.0000     -10.329327      -281.0753 
   6   2.0000     -10.328064      -281.0409 
   7   2.0000     -10.324187      -280.9354 
   8   2.0000     -10.316911      -280.7374 
   9   2.0000     -10.308343      -280.5043 
  10   2.0000     -10.296985      -280.1952 
  11   2.0000     -10.296445      -280.1805 
  12   2.0000     -10.290475      -280.0181 
  13   2.0000     -10.287521      -279.9377 
  14   2.0000     -10.283629      -279.8318 
  15   2.0000     -10.277406      -279.6624 
  16   2.0000     -10.272301      -279.5235 
  17   2.0000     -10.272260      -279.5224 
  18   2.0000     -10.271893      -279.5124 
  19   2.0000     -10.267905      -279.4039 
  20   2.0000     -10.261328      -279.2249 
  21   2.0000      -1.226602       -33.3775 
  22   2.0000      -1.111108       -30.2348 
  23   2.0000      -1.012338       -27.5471 
  24   2.0000      -0.991850       -26.9896 
  25   2.0000      -0.945213       -25.7205 
  26   2.0000      -0.927767       -25.2458 
  27   2.0000      -0.921222       -25.0677 
  28   2.0000      -0.908246       -24.7146 
  29   2.0000      -0.882077       -24.0025 
  30   2.0000      -0.847517       -23.0621 
  31   2.0000      -0.827096       -22.5064 
  32   2.0000      -0.815133       -22.1809 
  33   2.0000      -0.795651       -21.6508 
  34   2.0000      -0.783779       -21.3277 
  35   2.0000      -0.768163       -20.9028 
  36   2.0000      -0.739339       -20.1184 
  37   2.0000      -0.728272       -19.8173 
  38   2.0000      -0.714955       -19.4549 
  39   2.0000      -0.697802       -18.9882 
  40   2.0000      -0.681074       -18.5330 
  41   2.0000      -0.640902       -17.4398 
  42   2.0000      -0.636998       -17.3336 
  43   2.0000      -0.607715       -16.5368 
  44   2.0000      -0.600182       -16.3318 
  45   2.0000      -0.591600       -16.0983 
  46   2.0000      -0.589272       -16.0349 
  47   2.0000      -0.577412       -15.7122 
  48   2.0000      -0.571914       -15.5626 
  49   2.0000      -0.564165       -15.3517 
  50   2.0000      -0.542527       -14.7629 
  51   2.0000      -0.538662       -14.6578 
  52   2.0000      -0.534732       -14.5508 
  53   2.0000      -0.528804       -14.3895 
  54   2.0000      -0.526364       -14.3231 
  55   2.0000      -0.522300       -14.2125 
  56   2.0000      -0.516069       -14.0430 
  57   2.0000      -0.513929       -13.9847 
  58   2.0000      -0.504320       -13.7232 
  59   2.0000      -0.498909       -13.5760 
  60   2.0000      -0.486516       -13.2388 
  61   2.0000      -0.474672       -12.9165 
  62   2.0000      -0.469303       -12.7704 
  63   2.0000      -0.462639       -12.5890 
  64   2.0000      -0.457798       -12.4573 
  65   2.0000      -0.455532       -12.3957 
  66   2.0000      -0.447987       -12.1903 
  67   2.0000      -0.435928       -11.8622 
  68   2.0000      -0.428712       -11.6659 
  69   2.0000      -0.381579       -10.3833 
  70   2.0000      -0.359631        -9.7861 
  71   2.0000      -0.350945        -9.5497 
  72   2.0000      -0.348202        -9.4751 
  73   2.0000      -0.344957        -9.3868 
  74   0.0000       0.018625         0.5068 
  75   0.0000       0.038177         1.0389 
  76   0.0000       0.042301         1.1511 
  77   0.0000       0.052083         1.4172 
  78   0.0000       0.057910         1.5758 
  79   0.0000       0.061128         1.6634 
  80   0.0000       0.084099         2.2884 
  81   0.0000       0.105587         2.8732 
  82   0.0000       0.114615         3.1188 
  83   0.0000       0.135649         3.6912 
  84   0.0000       0.136420         3.7122 
  85   0.0000       0.140407         3.8207 
  86   0.0000       0.145826         3.9681 
  87   0.0000       0.148125         4.0307 
  88   0.0000       0.156758         4.2656 
  89   0.0000       0.166302         4.5253 
  90   0.0000       0.174476         4.7477 
  91   0.0000       0.177586         4.8324 
  92   0.0000       0.178817         4.8659 
  93   0.0000       0.184522         5.0211 
  94   0.0000       0.191598         5.2136 
  95   0.0000       0.195202         5.3117 
  96   0.0000       0.198196         5.3932 
  97   0.0000       0.201865         5.4930 
  98   0.0000       0.204889         5.5753 
  99   0.0000       0.208293         5.6679 
 100   0.0000       0.209118         5.6904 
 101   0.0000       0.216386         5.8882 
 102   0.0000       0.219633         5.9765 
 103   0.0000       0.221475         6.0266 
 104   0.0000       0.230362         6.2685 
 105   0.0000       0.234098         6.3701 
 106   0.0000       0.235555         6.4098 
 107   0.0000       0.240874         6.5545 
 108   0.0000       0.245285         6.6746 
 109   0.0000       0.251663         6.8481 
 110   0.0000       0.255234         6.9453 
 111   0.0000       0.260540         7.0897 
 112   0.0000       0.267498         7.2790 
 113   0.0000       0.269557         7.3350 
 114   0.0000       0.275210         7.4888 
 115   0.0000       0.283112         7.7039 
 116   0.0000       0.288889         7.8611 
 117   0.0000       0.290520         7.9054 
 118   0.0000       0.297097         8.0844 
 119   0.0000       0.301543         8.2054 
 120   0.0000       0.305599         8.3158 
 121   0.0000       0.309939         8.4339 
 122   0.0000       0.311578         8.4785 
 123   0.0000       0.316827         8.6213 
 124   0.0000       0.322077         8.7642 
 125   0.0000       0.325199         8.8491 
 126   0.0000       0.329919         8.9776 
 127   0.0000       0.337006         9.1704 
 128   0.0000       0.340436         9.2637 
 129   0.0000       0.348381         9.4799 
 130   0.0000       0.350960         9.5501 
 131   0.0000       0.358662         9.7597 
 132   0.0000       0.360734         9.8161 
 133   0.0000       0.364583         9.9208 
 134   0.0000       0.368580        10.0296 
 135   0.0000       0.374791        10.1986 
 136   0.0000       0.376822        10.2539 
 137   0.0000       0.378925        10.3111 
 138   0.0000       0.387307        10.5392 
 139   0.0000       0.392427        10.6785 
 140   0.0000       0.397945        10.8286 
 141   0.0000       0.399470        10.8701 
 142   0.0000       0.402979        10.9656 
 143   0.0000       0.412481        11.2242 
 144   0.0000       0.413545        11.2531 
 145   0.0000       0.415514        11.3067 
 146   0.0000       0.417779        11.3684 
 147   0.0000       0.427904        11.6438 
 148   0.0000       0.429691        11.6925 
 149   0.0000       0.432197        11.7607 
 150   0.0000       0.437486        11.9046 
 151   0.0000       0.444408        12.0930 
 152   0.0000       0.450739        12.2652 
 153   0.0000       0.453833        12.3494 
 154   0.0000       0.459162        12.4944 
 155   0.0000       0.464404        12.6371 
 156   0.0000       0.465662        12.6713 
 157   0.0000       0.469342        12.7714 
 158   0.0000       0.475162        12.9298 
 159   0.0000       0.477801        13.0016 
 160   0.0000       0.485630        13.2147 
 161   0.0000       0.486086        13.2271 
 162   0.0000       0.489469        13.3191 
 163   0.0000       0.492979        13.4146 
 164   0.0000       0.497081        13.5263 
 165   0.0000       0.499491        13.5918 
 166   0.0000       0.503377        13.6976 
 167   0.0000       0.505953        13.7677 
 168   0.0000       0.511822        13.9274 
 169   0.0000       0.512886        13.9563 
 170   0.0000       0.516777        14.0622 
 171   0.0000       0.522370        14.2144 
 172   0.0000       0.527039        14.3415 
 173   0.0000       0.529517        14.4089 
 174   0.0000       0.531261        14.4563 
 175   0.0000       0.541871        14.7451 
 176   0.0000       0.545173        14.8349 
 177   0.0000       0.547750        14.9050 
 178   0.0000       0.553970        15.0743 
 179   0.0000       0.560469        15.2511 
 180   0.0000       0.565357        15.3841 
 181   0.0000       0.569108        15.4862 
 182   0.0000       0.573345        15.6015 
 183   0.0000       0.578374        15.7384 
 184   0.0000       0.580981        15.8093 
 185   0.0000       0.585901        15.9432 
 186   0.0000       0.590842        16.0776 
 187   0.0000       0.593951        16.1622 
 188   0.0000       0.600187        16.3319 
 189   0.0000       0.604132        16.4393 
 190   0.0000       0.607068        16.5192 
 191   0.0000       0.609261        16.5788 
 192   0.0000       0.613953        16.7065 
 193   0.0000       0.622756        16.9460 
 194   0.0000       0.627369        17.0716 
 195   0.0000       0.631358        17.1801 
 196   0.0000       0.637876        17.3575 
 197   0.0000       0.644956        17.5501 
 198   0.0000       0.652451        17.7541 
 199   0.0000       0.659244        17.9389 
 200   0.0000       0.671986        18.2857 
 201   0.0000       0.675955        18.3937 
 202   0.0000       0.683143        18.5893 
 203   0.0000       0.687559        18.7094 
 204   0.0000       0.695432        18.9237 
 205   0.0000       0.706470        19.2240 
 206   0.0000       0.711503        19.3610 
 207   0.0000       0.724581        19.7168 
 208   0.0000       0.727899        19.8071 
 209   0.0000       0.736586        20.0435 
 210   0.0000       0.740086        20.1388 
 211   0.0000       0.750539        20.4232 
 212   0.0000       0.757347        20.6085 
 213   0.0000       0.758854        20.6495 
 214   0.0000       0.767516        20.8852 
 215   0.0000       0.772265        21.0144 
 216   0.0000       0.775950        21.1147 
 217   0.0000       0.782408        21.2904 
 218   0.0000       0.783746        21.3268 
 219   0.0000       0.789990        21.4967 
 220   0.0000       0.790229        21.5032 
 221   0.0000       0.795061        21.6347 
 222   0.0000       0.810206        22.0468 
 223   0.0000       0.811271        22.0758 
 224   0.0000       0.821738        22.3606 
 225   0.0000       0.828486        22.5443 
 226   0.0000       0.841345        22.8942 
 227   0.0000       0.842778        22.9331 
 228   0.0000       0.848018        23.0757 
 229   0.0000       0.854741        23.2587 
 230   0.0000       0.867000        23.5923 
 231   0.0000       0.868944        23.6452 
 232   0.0000       0.879087        23.9212 
 233   0.0000       0.889312        24.1994 
 234   0.0000       0.893358        24.3095 
 235   0.0000       0.896887        24.4055 
 236   0.0000       0.905586        24.6422 
 237   0.0000       0.908208        24.7136 
 238   0.0000       0.917943        24.9785 
 239   0.0000       0.919490        25.0206 
 240   0.0000       0.923793        25.1377 
 241   0.0000       0.934418        25.4268 
 242   0.0000       0.940277        25.5862 
 243   0.0000       0.945932        25.7401 
 244   0.0000       0.955262        25.9940 
 245   0.0000       0.966605        26.3027 
 246   0.0000       0.981102        26.6972 
 247   0.0000       0.983388        26.7593 
 248   0.0000       0.988128        26.8883 
 249   0.0000       0.992922        27.0188 
 250   0.0000       1.008797        27.4508 
 251   0.0000       1.016309        27.6552 
 252   0.0000       1.022160        27.8144 
 253   0.0000       1.025151        27.8958 
 254   0.0000       1.033396        28.1201 
 255   0.0000       1.038268        28.2527 
 256   0.0000       1.048684        28.5362 
 257   0.0000       1.057231        28.7687 
 258   0.0000       1.062686        28.9171 
 259   0.0000       1.073396        29.2086 
 260   0.0000       1.075156        29.2565 
 261   0.0000       1.081588        29.4315 
 262   0.0000       1.091610        29.7042 
 263   0.0000       1.096053        29.8251 
 264   0.0000       1.101030        29.9605 
 265   0.0000       1.104072        30.0433 
 266   0.0000       1.110713        30.2240 
 267   0.0000       1.129761        30.7424 
 268   0.0000       1.135290        30.8928 
 269   0.0000       1.141562        31.0635 
 270   0.0000       1.152128        31.3510 
 271   0.0000       1.160642        31.5827 
 272   0.0000       1.164957        31.7001 
 273   0.0000       1.175588        31.9894 
 274   0.0000       1.188436        32.3390 
 275   0.0000       1.189557        32.3695 
 276   0.0000       1.200380        32.6640 
 277   0.0000       1.207088        32.8465 
 278   0.0000       1.211295        32.9610 
 279   0.0000       1.218101        33.1462 
 280   0.0000       1.222294        33.2603 
 281   0.0000       1.231179        33.5021 
 282   0.0000       1.241704        33.7885 
 283   0.0000       1.247917        33.9576 
 284   0.0000       1.254912        34.1479 
 285   0.0000       1.264958        34.4212 
 286   0.0000       1.272416        34.6242 
 287   0.0000       1.290902        35.1272 
 288   0.0000       1.292205        35.1627 
 289   0.0000       1.304265        35.4908 
 290   0.0000       1.312218        35.7073 
 291   0.0000       1.315268        35.7903 
 292   0.0000       1.324211        36.0336 
 293   0.0000       1.328880        36.1607 
 294   0.0000       1.336169        36.3590 
 295   0.0000       1.345226        36.6055 
 296   0.0000       1.351883        36.7866 
 297   0.0000       1.357365        36.9358 
 298   0.0000       1.359379        36.9906 
 299   0.0000       1.369566        37.2678 
 300   0.0000       1.372317        37.3426 
 301   0.0000       1.381396        37.5897 
 302   0.0000       1.391377        37.8613 
 303   0.0000       1.400882        38.1199 
 304   0.0000       1.407237        38.2929 
 305   0.0000       1.414684        38.4955 
 306   0.0000       1.423662        38.7398 
 307   0.0000       1.427160        38.8350 
 308   0.0000       1.435327        39.0572 
 309   0.0000       1.447568        39.3903 
 310   0.0000       1.462048        39.7843 
 311   0.0000       1.472493        40.0686 
 312   0.0000       1.484476        40.3946 
 313   0.0000       1.501102        40.8471 
 314   0.0000       1.503521        40.9129 
 315   0.0000       1.514705        41.2172 
 316   0.0000       1.523420        41.4544 
 317   0.0000       1.537676        41.8423 
 318   0.0000       1.542387        41.9705 
 319   0.0000       1.548211        42.1290 
 320   0.0000       1.553807        42.2812 
 321   0.0000       1.561324        42.4858 
 322   0.0000       1.573735        42.8235 
 323   0.0000       1.578253        42.9465 
 324   0.0000       1.583489        43.0889 
 325   0.0000       1.599378        43.5213 
 326   0.0000       1.604480        43.6601 
 327   0.0000       1.606375        43.7117 
 328   0.0000       1.618559        44.0432 
 329   0.0000       1.630283        44.3623 
 330   0.0000       1.632927        44.4342 
 331   0.0000       1.634259        44.4705 
 332   0.0000       1.637371        44.5551 
 333   0.0000       1.644909        44.7602 
 334   0.0000       1.653499        44.9940 
 335   0.0000       1.655553        45.0499 
 336   0.0000       1.664168        45.2843 
 337   0.0000       1.665703        45.3261 
 338   0.0000       1.667336        45.3705 
 339   0.0000       1.672108        45.5004 
 340   0.0000       1.678153        45.6649 
 341   0.0000       1.682582        45.7854 
 342   0.0000       1.690626        46.0043 
 343   0.0000       1.691535        46.0290 
 344   0.0000       1.697442        46.1898 
 345   0.0000       1.700921        46.2844 
 346   0.0000       1.711630        46.5758 
 347   0.0000       1.717342        46.7313 
 348   0.0000       1.721412        46.8420 
 349   0.0000       1.727361        47.0039 
 350   0.0000       1.736702        47.2581 
 351   0.0000       1.739989        47.3475 
 352   0.0000       1.747793        47.5599 
 353   0.0000       1.750672        47.6382 
 354   0.0000       1.761212        47.9250 
 355   0.0000       1.764261        48.0080 
 356   0.0000       1.770143        48.1680 
 357   0.0000       1.777088        48.3570 
 358   0.0000       1.780351        48.4458 
 359   0.0000       1.784026        48.5458 
 360   0.0000       1.794790        48.8387 
 361   0.0000       1.803791        49.0836 
 362   0.0000       1.807493        49.1844 
 363   0.0000       1.813968        49.3606 
 364   0.0000       1.824143        49.6374 
 365   0.0000       1.834581        49.9215 
 366   0.0000       1.841453        50.1085 
 367   0.0000       1.856075        50.5064 
 368   0.0000       1.866739        50.7966 
 369   0.0000       1.870457        50.8977 
 370   0.0000       1.877335        51.0849 
 371   0.0000       1.881774        51.2057 
 372   0.0000       1.890662        51.4475 
[...]
 14:    121.51   0.000089    0.45  0.000229  (-0.004835  0.013530  0.004798)
 15:    146.26   0.000060    0.30  0.000128  (-0.011117 -0.001966 -0.000251)
 16:    160.59   0.000079    0.40  0.000153  (-0.004912 -0.011335 -0.000099)
 17:    197.03   0.000109    0.55  0.000172  (-0.012995  0.000622 -0.001759)
 18:    212.16   0.000127    0.64  0.000187  (-0.000354  0.013664 -0.000173)
 19:    237.36   0.000004    0.02  0.000005  ( 0.000368  0.002295  0.000150)
 20:    238.05   0.000003    0.01  0.000004  ( 0.000131 -0.001162  0.001488)
 21:    284.78   0.000013    0.07  0.000015  ( 0.003711  0.000838  0.000415)
 22:    302.96   0.000009    0.05  0.000009  (-0.000714 -0.000212  0.002957)
 23:    334.48   0.004535   22.92  0.004231  (-0.000535  0.065041 -0.000447)
 24:    357.15   0.001970    9.95  0.001721  (-0.000839  0.041476 -0.000092)
 25:    359.10   0.000035    0.18  0.000031  (-0.000855  0.005484 -0.000207)
 26:    393.83   0.000077    0.39  0.000061  (-0.007032 -0.000295 -0.003420)
 27:    428.30   0.001754    8.87  0.001278  ( 0.035747  0.000638  0.000123)
 28:    484.36   0.000170    0.86  0.000110  ( 0.000626  0.000026 -0.010455)
 29:    495.18   0.000001    0.00  0.000001  (-0.000103 -0.000724 -0.000240)
 30:    538.76   0.000005    0.03  0.000003  (-0.000112  0.000164 -0.001757)
 31:    538.81   0.000001    0.01  0.000001  ( 0.000023  0.000420 -0.000683)
 32:    543.19   0.001005    5.08  0.000577  ( 0.000235 -0.000330  0.024028)
 33:    548.56   0.000002    0.01  0.000001  (-0.000083  0.001115  0.000219)
 34:    571.58   0.000656    3.31  0.000358  ( 0.000566 -0.018915 -0.000085)
 35:    591.70   0.000014    0.07  0.000007  ( 0.000809  0.002588  0.000078)
 36:    597.22   0.000476    2.41  0.000249  ( 0.015765  0.000246  0.000562)
 37:    618.44   0.000092    0.46  0.000046  (-0.006797 -0.000234 -0.000052)
 38:    691.63   0.000025    0.13  0.000011  (-0.000074  0.002626  0.002118)
 39:    692.64   0.012411   62.72  0.005591  (-0.001310  0.001441 -0.074751)
 40:    770.31   0.000061    0.31  0.000025  (-0.000007 -0.004802 -0.001210)
 41:    775.62   0.011814   59.70  0.004753  ( 0.002205 -0.002440  0.068866)
 42:    778.67   0.000401    2.03  0.000161  ( 0.012491  0.000297 -0.002145)
 43:    782.58   0.000355    1.80  0.000142  ( 0.000489 -0.011724 -0.001992)
 44:    790.78   0.000133    0.67  0.000052  ( 0.007141 -0.001119 -0.000448)
 45:    812.56   0.018516   93.57  0.007111  (-0.024645  0.080491 -0.004975)
 46:    814.35   0.013053   65.96  0.005002  (-0.030029 -0.063914 -0.003884)
 47:    903.83   0.008047   40.67  0.002778  (-0.001657  0.001191 -0.052671)
 48:    916.77   0.000003    0.02  0.000001  ( 0.000658 -0.000818  0.000192)
 49:    944.96   0.000031    0.16  0.000010  ( 0.000418 -0.003081 -0.000736)
 50:    946.18   0.000850    4.29  0.000280  ( 0.002046  0.000589 -0.016604)
 51:    946.91   0.000264    1.33  0.000087  ( 0.000294  0.001337  0.009229)
 52:    948.43   0.000078    0.39  0.000026  ( 0.000661 -0.000056  0.005013)
 53:    977.37   0.003980   20.12  0.001271  (-0.035636 -0.000462  0.000866)
 54:    987.37   0.000134    0.68  0.000042  (-0.000055  0.006503  0.000080)
 55:   1023.15   0.000578    2.92  0.000176  (-0.012155 -0.005342 -0.000125)
 56:   1023.63   0.000716    3.62  0.000218  (-0.014196  0.004032  0.000616)
 57:   1037.32   0.000027    0.14  0.000008  (-0.001920  0.001707 -0.001286)
 58:   1038.39   0.000022    0.11  0.000007  (-0.002003 -0.001470 -0.000701)
 59:   1069.75   0.000337    1.70  0.000098  (-0.005760  0.001694  0.007897)
 60:   1069.92   0.003261   16.48  0.000951  ( 0.000257  0.030637  0.003548)
 61:   1071.36   0.000186    0.94  0.000054  (-0.001215 -0.003640  0.006292)
 62:   1072.17   0.001271    6.42  0.000370  ( 0.001656 -0.018582  0.004671)
 63:   1072.81   0.000113    0.57  0.000033  (-0.003580  0.001832  0.004083)
 64:   1073.45   0.000386    1.95  0.000112  (-0.000567  0.009198  0.005226)
 65:   1090.03   0.005786   29.24  0.001656  (-0.040673 -0.000050  0.001448)
 66:   1107.34   0.002199   11.11  0.000620  ( 0.000882  0.024865  0.000832)
 67:   1120.10   0.001971    9.96  0.000549  (-0.001404  0.023369  0.001044)
 68:   1130.58   0.010745   54.30  0.002966  ( 0.054429  0.001176 -0.001368)
 69:   1150.47   0.000111    0.56  0.000030  ( 0.001999 -0.005107 -0.000201)
 70:   1186.90   0.001429    7.22  0.000376  (-0.000392  0.000969  0.019355)
 71:   1189.63   0.001506    7.61  0.000395  (-0.000058 -0.000939  0.019856)
 72:   1250.32   0.022649  114.46  0.005653  ( 0.075138  0.000921 -0.002553)
 73:   1276.63   0.001047    5.29  0.000256  (-0.015973 -0.000113  0.000887)
 74:   1292.49   0.000872    4.41  0.000211  (-0.000567  0.000980  0.014469)
 75:   1293.47   0.001281    6.47  0.000309  ( 0.000116 -0.000544  0.017569)
 76:   1299.79   0.000003    0.02  0.000001  ( 0.000760 -0.000402  0.000122)
 77:   1306.99   0.001583    8.00  0.000378  (-0.001226 -0.001049 -0.019371)
 78:   1308.05   0.003489   17.63  0.000832  ( 0.009023 -0.000825  0.027392)
 79:   1309.81   0.002992   15.12  0.000713  ( 0.024573  0.000283 -0.010434)
 80:   1373.84   0.000861    4.35  0.000196  ( 0.000271 -0.013892 -0.001616)
 81:   1406.38   0.000008    0.04  0.000002  ( 0.000723  0.000160  0.001098)
 82:   1416.45   0.000128    0.65  0.000028  (-0.001548 -0.000109  0.005073)
 83:   1416.91   0.000119    0.60  0.000026  ( 0.002941  0.002712  0.003179)
 84:   1420.24   0.000248    1.26  0.000055  (-0.006112  0.003958 -0.001248)
 85:   1420.92   0.000978    4.94  0.000215  ( 0.014437  0.001137 -0.002266)
 86:   1448.10   0.000446    2.26  0.000096  ( 0.000030 -0.009770  0.000866)
 87:   1464.83   0.001507    7.62  0.000321  (-0.017530  0.001918 -0.003174)
 88:   1475.12   0.002719   13.74  0.000575  (-0.003390 -0.023512  0.003294)
 89:   1476.34   0.002777   14.03  0.000587  (-0.010689  0.005900  0.020928)
 90:   1479.72   0.000721    3.64  0.000152  (-0.007168 -0.010032  0.000279)
 91:   1480.45   0.003359   16.98  0.000708  ( 0.009556  0.021262  0.012834)
 92:   1481.64   0.004604   23.27  0.000970  ( 0.011618 -0.027606  0.008522)
 93:   1482.21   0.001962    9.92  0.000413  ( 0.009745  0.017818 -0.000843)
 94:   1483.59   0.003193   16.14  0.000672  (-0.006444  0.025088 -0.000890)
 95:   1526.65   0.016271   82.23  0.003326  ( 0.057641  0.001173 -0.001450)
 96:   1532.09   0.003046   15.39  0.000620  ( 0.000997 -0.001915 -0.024813)
 97:   1532.95   0.008885   44.90  0.001809  ( 0.000258 -0.001166  0.042513)
 98:   1540.48   0.003321   16.78  0.000673  (-0.001143  0.025888  0.001159)
 99:   1624.97   0.050043  252.90  0.009610  (-0.097941 -0.001574  0.003927)
100:   1628.09   0.000879    4.44  0.000168  ( 0.001627 -0.012841 -0.000970)
101:   1677.04   0.002201   11.12  0.000410  (-0.019997 -0.003064  0.000603)
102:   1677.42   0.000722    3.65  0.000134  ( 0.009819 -0.006096 -0.000832)
103:   1687.81   0.000023    0.12  0.000004  ( 0.000433 -0.001782  0.000976)
104:   1688.75   0.006950   35.12  0.001284  (-0.000944 -0.000209 -0.035824)
105:   3067.69   0.006920   34.97  0.000704  (-0.003021 -0.001393  0.026323)
106:   3068.33   0.002138   10.80  0.000217  ( 0.008340  0.006184  0.010471)
107:   3069.43   0.001535    7.76  0.000156  (-0.008074  0.002564 -0.009184)
108:   3070.02   0.005077   25.65  0.000516  ( 0.022375 -0.001477 -0.003632)
109:   3132.52   0.003028   15.30  0.000302  ( 0.005833 -0.016353 -0.000442)
110:   3132.91   0.004606   23.27  0.000459  (-0.001151 -0.021219  0.002681)
111:   3133.96   0.000659    3.33  0.000066  (-0.007613  0.000622 -0.002702)
112:   3134.87   0.001647    8.32  0.000164  ( 0.006097  0.011037  0.002223)
113:   3169.88   0.004491   22.70  0.000442  (-0.000151 -0.001012  0.021002)
114:   3170.04   0.003279   16.57  0.000323  ( 0.016199  0.007731  0.000751)
115:   3170.40   0.003146   15.90  0.000310  ( 0.014352 -0.003617  0.009521)
116:   3171.14   0.003644   18.41  0.000359  ( 0.014024 -0.004298 -0.011976)
117:   3206.76   0.000050    0.25  0.000005  (-0.002147 -0.000380  0.000391)
118:   3206.78   0.000020    0.10  0.000002  (-0.000910  0.001050 -0.000039)
119:   3214.67   0.002289   11.57  0.000222  ( 0.000210  0.000838  0.014882)
120:   3214.78   0.002327   11.76  0.000226  (-0.000453  0.000605 -0.015011)
121:   3227.79   0.003033   15.33  0.000293  ( 0.016690 -0.003701 -0.000977)
122:   3227.84   0.001612    8.15  0.000156  (-0.010957 -0.005966  0.000448)
123:   3293.79   0.013044   65.92  0.001236  ( 0.000468 -0.035137 -0.000982)
124:   3301.99   0.006352   32.10  0.000600  (-0.024479 -0.000245  0.001016)
125:   3319.54   0.002842   14.36  0.000267  (-0.000143  0.016339  0.000461)

* The epsilon (eps) is given for a Dirac delta lineshape.
** The dipole moment derivative (T) already includes vibrational overlap.

The first frequency considered to be a vibration is 7
The total number of vibrations considered is 119


--------------------------
THERMOCHEMISTRY AT 298.15K
--------------------------

Temperature         ... 298.15 K
Pressure            ... 1.00 atm
Total Mass          ... 277.39 AMU

Throughout the following assumptions are being made:
  (1) The electronic state is orbitally nondegenerate
  (2) There are no thermally accessible electronically excited states
  (3) Hindered rotations indicated by low frequency modes are not
      treated as such but are treated as vibrations and this may
      cause some error
  (4) All equations used are the standard statistical mechanics
      equations for an ideal gas
  (5) All vibrations are strictly harmonic

freq.      11.70  E(vib)   ...       0.58 
freq.      50.95  E(vib)   ...       0.52 
freq.      54.22  E(vib)   ...       0.52 
freq.      83.37  E(vib)   ...       0.48 
freq.      85.72  E(vib)   ...       0.48 
freq.     102.27  E(vib)   ...       0.46 
freq.     119.38  E(vib)   ...       0.44 
freq.     121.51  E(vib)   ...       0.44 
freq.     146.26  E(vib)   ...       0.41 
freq.     160.59  E(vib)   ...       0.39 
freq.     197.03  E(vib)   ...       0.35 
freq.     212.16  E(vib)   ...       0.34 
freq.     237.36  E(vib)   ...       0.32 
freq.     238.05  E(vib)   ...       0.32 
freq.     284.78  E(vib)   ...       0.28 
freq.     302.96  E(vib)   ...       0.26 
freq.     334.48  E(vib)   ...       0.24 
freq.     357.15  E(vib)   ...       0.22 
freq.     359.10  E(vib)   ...       0.22 
freq.     393.83  E(vib)   ...       0.20 
freq.     428.30  E(vib)   ...       0.18 
freq.     484.36  E(vib)   ...       0.15 
freq.     495.18  E(vib)   ...       0.14 
freq.     538.76  E(vib)   ...       0.12 
freq.     538.81  E(vib)   ...       0.12 
freq.     543.19  E(vib)   ...       0.12 
freq.     548.56  E(vib)   ...       0.12 
freq.     571.58  E(vib)   ...       0.11 
freq.     591.70  E(vib)   ...       0.10 
freq.     597.22  E(vib)   ...       0.10 
freq.     618.44  E(vib)   ...       0.09 
freq.     691.63  E(vib)   ...       0.07 
freq.     692.64  E(vib)   ...       0.07 
freq.     770.31  E(vib)   ...       0.05 
freq.     775.62  E(vib)   ...       0.05 
freq.     778.67  E(vib)   ...       0.05 
freq.     782.58  E(vib)   ...       0.05 
freq.     790.78  E(vib)   ...       0.05 
freq.     812.56  E(vib)   ...       0.05 
freq.     814.35  E(vib)   ...       0.05 
freq.     903.83  E(vib)   ...       0.03 
freq.     916.77  E(vib)   ...       0.03 
freq.     944.96  E(vib)   ...       0.03 
freq.     946.18  E(vib)   ...       0.03 
freq.     946.91  E(vib)   ...       0.03 
freq.     948.43  E(vib)   ...       0.03 
freq.     977.37  E(vib)   ...       0.03 
freq.     987.37  E(vib)   ...       0.02 
freq.    1023.15  E(vib)   ...       0.02 
freq.    1023.63  E(vib)   ...       0.02 
freq.    1037.32  E(vib)   ...       0.02 
freq.    1038.39  E(vib)   ...       0.02 
freq.    1069.75  E(vib)   ...       0.02 
freq.    1069.92  E(vib)   ...       0.02 
freq.    1071.36  E(vib)   ...       0.02 
freq.    1072.17  E(vib)   ...       0.02 
freq.    1072.81  E(vib)   ...       0.02 
freq.    1073.45  E(vib)   ...       0.02 
freq.    1090.03  E(vib)   ...       0.02 
freq.    1107.34  E(vib)   ...       0.02 
freq.    1120.10  E(vib)   ...       0.01 
freq.    1130.58  E(vib)   ...       0.01 
freq.    1150.47  E(vib)   ...       0.01 
freq.    1186.90  E(vib)   ...       0.01 
freq.    1189.63  E(vib)   ...       0.01 
freq.    1250.32  E(vib)   ...       0.01 
freq.    1276.63  E(vib)   ...       0.01 
freq.    1292.49  E(vib)   ...       0.01 
freq.    1293.47  E(vib)   ...       0.01 
freq.    1299.79  E(vib)   ...       0.01 
freq.    1306.99  E(vib)   ...       0.01 
freq.    1308.05  E(vib)   ...       0.01 
freq.    1309.81  E(vib)   ...       0.01 
freq.    1373.84  E(vib)   ...       0.01 
freq.    1406.38  E(vib)   ...       0.00 
freq.    1416.45  E(vib)   ...       0.00 
freq.    1416.91  E(vib)   ...       0.00 
freq.    1420.24  E(vib)   ...       0.00 
freq.    1420.92  E(vib)   ...       0.00 
freq.    1448.10  E(vib)   ...       0.00 
freq.    1464.83  E(vib)   ...       0.00 
freq.    1475.12  E(vib)   ...       0.00 
freq.    1476.34  E(vib)   ...       0.00 
freq.    1479.72  E(vib)   ...       0.00 
freq.    1480.45  E(vib)   ...       0.00 
freq.    1481.64  E(vib)   ...       0.00 
freq.    1482.21  E(vib)   ...       0.00 
freq.    1483.59  E(vib)   ...       0.00 
freq.    1526.65  E(vib)   ...       0.00 
freq.    1532.09  E(vib)   ...       0.00 
freq.    1532.95  E(vib)   ...       0.00 
freq.    1540.48  E(vib)   ...       0.00 
freq.    1624.97  E(vib)   ...       0.00 
freq.    1628.09  E(vib)   ...       0.00 
freq.    1677.04  E(vib)   ...       0.00 
freq.    1677.42  E(vib)   ...       0.00 
freq.    1687.81  E(vib)   ...       0.00 
freq.    1688.75  E(vib)   ...       0.00 
freq.    3067.69  E(vib)   ...       0.00 
freq.    3068.33  E(vib)   ...       0.00 
freq.    3069.43  E(vib)   ...       0.00 
freq.    3070.02  E(vib)   ...       0.00 
freq.    3132.52  E(vib)   ...       0.00 
freq.    3132.91  E(vib)   ...       0.00 
freq.    3133.96  E(vib)   ...       0.00 
freq.    3134.87  E(vib)   ...       0.00 
freq.    3169.88  E(vib)   ...       0.00 
freq.    3170.04  E(vib)   ...       0.00 
freq.    3170.40  E(vib)   ...       0.00 
freq.    3171.14  E(vib)   ...       0.00 
freq.    3206.76  E(vib)   ...       0.00 
freq.    3206.78  E(vib)   ...       0.00 
freq.    3214.67  E(vib)   ...       0.00 
freq.    3214.78  E(vib)   ...       0.00 
freq.    3227.79  E(vib)   ...       0.00 
freq.    3227.84  E(vib)   ...       0.00 
freq.    3293.79  E(vib)   ...       0.00 
freq.    3301.99  E(vib)   ...       0.00 
freq.    3319.54  E(vib)   ...       0.00 

------------
INNER ENERGY
------------

The inner energy is: U= E(el) + E(ZPE) + E(vib) + E(rot) + E(trans)
    E(el)   - is the total energy from the electronic structure calculation
              = E(kin-el) + E(nuc-el) + E(el-el) + E(nuc-nuc)
    E(ZPE)  - the the zero temperature vibrational energy from the frequency calculation
    E(vib)  - the the finite temperature correction to E(ZPE) due to population
              of excited vibrational states
    E(rot)  - is the rotational thermal energy
    E(trans)- is the translational thermal energy

Summary of contributions to the inner energy U:
Electronic energy                ...   -846.13154138 Eh
Zero point energy                ...      0.35927294 Eh     225.45 kcal/mol
Thermal vibrational correction   ...      0.01588560 Eh       9.97 kcal/mol
Thermal rotational correction    ...      0.00141627 Eh       0.89 kcal/mol
Thermal translational correction ...      0.00141627 Eh       0.89 kcal/mol
-----------------------------------------------------------------------
Total thermal energy                   -845.75355030 Eh


Summary of corrections to the electronic energy:
(perhaps to be used in another calculation)
Total thermal correction                  0.01871814 Eh      11.75 kcal/mol
Non-thermal (ZPE) correction              0.35927294 Eh     225.45 kcal/mol
-----------------------------------------------------------------------
Total correction                          0.37799108 Eh     237.19 kcal/mol


--------
ENTHALPY
--------

The enthalpy is H = U + kB*T
                kB is Boltzmann's constant
Total free energy                 ...   -845.75355030 Eh 
Thermal Enthalpy correction       ...      0.00094421 Eh       0.59 kcal/mol
-----------------------------------------------------------------------
Total Enthalpy                    ...   -845.75260610 Eh


Note: Only C1 symmetry has been detected, increase convergence thresholds 
      if your molecule has a higher symmetry. Symmetry factor of 1.0 is   
      used for the rotational entropy correction. 
 

Note: Rotational entropy computed according to Herzberg 
Infrared and Raman Spectra, Chapter V,1, Van Nostrand Reinhold, 1945 
Point Group:  C1, Symmetry Number:   1  
Rotational constants in cm-1:     0.023156     0.006009     0.005252 

Vibrational entropy computed according to the QRRHO of S. Grimme
Chem.Eur.J. 2012 18 9955


-------
ENTROPY
-------

The entropy contributions are T*S = T*(S(el)+S(vib)+S(rot)+S(trans))
     S(el)   - electronic entropy
     S(vib)  - vibrational entropy
     S(rot)  - rotational entropy
     S(trans)- translational entropy
The entropies will be listed as multiplied by the temperature to get
units of energy

Electronic entropy                ...      0.00000000 Eh      0.00 kcal/mol
Vibrational entropy               ...      0.02815838 Eh     17.67 kcal/mol
Rotational entropy                ...      0.01618097 Eh     10.15 kcal/mol
Translational entropy             ...      0.02031620 Eh     12.75 kcal/mol
-----------------------------------------------------------------------
Final entropy term                ...      0.06465556 Eh     40.57 kcal/mol

In case the symmetry of your molecule has not been determined correctly
or in case you have a reason to use a different symmetry number we print 
out the resulting rotational entropy values for sn=1,12 :
 --------------------------------------------------------
|  sn= 1 | S(rot)=       0.01618097 Eh     10.15 kcal/mol|
|  sn= 2 | S(rot)=       0.01552652 Eh      9.74 kcal/mol|
|  sn= 3 | S(rot)=       0.01514368 Eh      9.50 kcal/mol|
|  sn= 4 | S(rot)=       0.01487206 Eh      9.33 kcal/mol|
|  sn= 5 | S(rot)=       0.01466137 Eh      9.20 kcal/mol|
|  sn= 6 | S(rot)=       0.01448923 Eh      9.09 kcal/mol|
|  sn= 7 | S(rot)=       0.01434368 Eh      9.00 kcal/mol|
|  sn= 8 | S(rot)=       0.01421760 Eh      8.92 kcal/mol|
|  sn= 9 | S(rot)=       0.01410640 Eh      8.85 kcal/mol|
|  sn=10 | S(rot)=       0.01400692 Eh      8.79 kcal/mol|
|  sn=11 | S(rot)=       0.01391693 Eh      8.73 kcal/mol|
|  sn=12 | S(rot)=       0.01383477 Eh      8.68 kcal/mol|
 --------------------------------------------------------


-------------------
GIBBS FREE ENERGY
-------------------

The Gibbs free energy is G = H - T*S

Total enthalpy                    ...   -845.75260610 Eh 
Total entropy correction          ...     -0.06465556 Eh    -40.57 kcal/mol
-----------------------------------------------------------------------
Final Gibbs free energy         ...   -845.81726165 Eh

For completeness - the Gibbs free energy minus the electronic energy
G-E(el)                           ...      0.31427973 Eh    197.21 kcal/mol


Timings for individual modules:

Sum of individual times         ...    29219.406 sec (= 486.990 min)
GTO integral calculation        ...       35.389 sec (=   0.590 min)   0.1 %
SCF iterations                  ...    14687.467 sec (= 244.791 min)  50.3 %
SCF Gradient evaluation         ...     3885.774 sec (=  64.763 min)  13.3 %
Geometry relaxation             ...        2.673 sec (=   0.045 min)   0.0 %
Analytical frequency calculation...    10608.104 sec (= 176.802 min)  36.3 %
                             ****ORCA TERMINATED NORMALLY****
TOTAL RUN TIME: 0 days 8 hours 7 minutes 10 seconds 431 msec
