
                                 *****************
                                 * O   R   C   A *
                                 *****************

                                            #,                                       
                                            ###                                      
                                            ####                                     
                                            #####                                    
                                            ######                                   
                                           ########,                                 
                                     ,,################,,,,,                         
                               ,,#################################,,                 
                          ,,##########################################,,             
                       ,#########################################, ''#####,          
                    ,#############################################,,   '####,        
                  ,##################################################,,,,####,       
                ,###########''''           ''''###############################       
              ,#####''   ,,,,##########,,,,          '''####'''          '####       
            ,##' ,,,,###########################,,,                        '##       
           ' ,,###''''                  '''############,,,                           
         ,,##''                                '''############,,,,        ,,,,,,###''
      ,#''                                            '''#######################'''  
     '                                                          ''''####''''         
             ,#######,   #######,   ,#######,      ##                                
            ,#'     '#,  ##    ##  ,#'     '#,    #''#        ######   ,####,        
            ##       ##  ##   ,#'  ##            #'  '#       #        #'  '#        
            ##       ##  #######   ##           ,######,      #####,   #    #        
            '#,     ,#'  ##    ##  '#,     ,#' ,#      #,         ##   #,  ,#        
             '#######'   ##     ##  '#######'  #'      '#     #####' # '####'        



                  #######################################################
                  #                        -***-                        #
                  #          Department of theory and spectroscopy      #
                  #    Directorship and core code : Frank Neese         #
                  #        Max Planck Institute fuer Kohlenforschung    #
                  #                Kaiser Wilhelm Platz 1               #
                  #                 D-45470 Muelheim/Ruhr               #
                  #                      Germany                        #
                  #                                                     #
                  #                  All rights reserved                #
                  #                        -***-                        #
                  #######################################################


                         Program Version 5.0.4 -  RELEASE  -


 With contributions from (in alphabetic order):
   Daniel Aravena         : Magnetic Suceptibility
   Michael Atanasov       : Ab Initio Ligand Field Theory (pilot matlab implementation)
   Alexander A. Auer      : GIAO ZORA, VPT2 properties, NMR spectrum
   Ute Becker             : Parallelization
   Giovanni Bistoni       : ED, misc. LED, open-shell LED, HFLD
   Martin Brehm           : Molecular dynamics
   Dmytro Bykov           : SCF Hessian
   Vijay G. Chilkuri      : MRCI spin determinant printing, contributions to CSF-ICE
   Dipayan Datta          : RHF DLPNO-CCSD density
   Achintya Kumar Dutta   : EOM-CC, STEOM-CC
   Dmitry Ganyushin       : Spin-Orbit,Spin-Spin,Magnetic field MRCI
   Miquel Garcia          : C-PCM and meta-GGA Hessian, CC/C-PCM, Gaussian charge scheme
   Yang Guo               : DLPNO-NEVPT2, F12-NEVPT2, CIM, IAO-localization
   Andreas Hansen         : Spin unrestricted coupled pair/coupled cluster methods
   Benjamin Helmich-Paris : MC-RPA, TRAH-SCF, COSX integrals
   Lee Huntington         : MR-EOM, pCC
   Robert Izsak           : Overlap fitted RIJCOSX, COSX-SCS-MP3, EOM
   Marcus Kettner         : VPT2
   Christian Kollmar      : KDIIS, OOCD, Brueckner-CCSD(T), CCSD density, CASPT2, CASPT2-K
   Simone Kossmann        : Meta GGA functionals, TD-DFT gradient, OOMP2, MP2 Hessian
   Martin Krupicka        : Initial AUTO-CI
   Lucas Lang             : DCDCAS
   Marvin Lechner         : AUTO-CI (C++ implementation), FIC-MRCC
   Dagmar Lenk            : GEPOL surface, SMD
   Dimitrios Liakos       : Extrapolation schemes; Compound Job, initial MDCI parallelization
   Dimitrios Manganas     : Further ROCIS development; embedding schemes
   Dimitrios Pantazis     : SARC Basis sets
   Anastasios Papadopoulos: AUTO-CI, single reference methods and gradients
   Taras Petrenko         : DFT Hessian,TD-DFT gradient, ASA, ECA, R-Raman, ABS, FL, XAS/XES, NRVS
   Peter Pinski           : DLPNO-MP2, DLPNO-MP2 Gradient
   Christoph Reimann      : Effective Core Potentials
   Marius Retegan         : Local ZFS, SOC
   Christoph Riplinger    : Optimizer, TS searches, QM/MM, DLPNO-CCSD(T), (RO)-DLPNO pert. Triples
   Tobias Risthaus        : Range-separated hybrids, TD-DFT gradient, RPA, STAB
   Michael Roemelt        : Original ROCIS implementation
   Masaaki Saitow         : Open-shell DLPNO-CCSD energy and density
   Barbara Sandhoefer     : DKH picture change effects
   Avijit Sen             : IP-ROCIS
   Kantharuban Sivalingam : CASSCF convergence, NEVPT2, FIC-MRCI
   Bernardo de Souza      : ESD, SOC TD-DFT
   Georgi Stoychev        : AutoAux, RI-MP2 NMR, DLPNO-MP2 response
   Willem Van den Heuvel  : Paramagnetic NMR
   Boris Wezisla          : Elementary symmetry handling
   Frank Wennmohs         : Technical directorship


 We gratefully acknowledge several colleagues who have allowed us to
 interface, adapt or use parts of their codes:
   Stefan Grimme, W. Hujo, H. Kruse, P. Pracht,  : VdW corrections, initial TS optimization,
                  C. Bannwarth, S. Ehlert          DFT functionals, gCP, sTDA/sTD-DF
   Ed Valeev, F. Pavosevic, A. Kumar             : LibInt (2-el integral package), F12 methods
   Garnet Chan, S. Sharma, J. Yang, R. Olivares  : DMRG
   Ulf Ekstrom                                   : XCFun DFT Library
   Mihaly Kallay                                 : mrcc  (arbitrary order and MRCC methods)
   Jiri Pittner, Ondrej Demel                    : Mk-CCSD
   Frank Weinhold                                : gennbo (NPA and NBO analysis)
   Christopher J. Cramer and Donald G. Truhlar   : smd solvation model
   Lars Goerigk                                  : TD-DFT with DH, B97 family of functionals
   V. Asgeirsson, H. Jonsson                     : NEB implementation
   FAccTs GmbH                                   : IRC, NEB, NEB-TS, DLPNO-Multilevel, CI-OPT
                                                   MM, QMMM, 2- and 3-layer-ONIOM, Crystal-QMMM,
                                                   LR-CPCM, SF, NACMEs, symmetry and pop. for TD-DFT,
                                                   nearIR, NL-DFT gradient (VV10), updates on ESD,
                                                   ML-optimized integration grids
   S Lehtola, MJT Oliveira, MAL Marques          : LibXC Library
   Liviu Ungur et al                             : ANISO software


 Your calculation uses the libint2 library for the computation of 2-el integrals
 For citations please refer to: http://libint.valeyev.net

 Your ORCA version has been built with support for libXC version: 5.1.0
 For citations please refer to: https://tddft.org/programs/libxc/

 This ORCA versions uses:
   CBLAS   interface :  Fast vector & matrix operations
   LAPACKE interface :  Fast linear algebra routines
   SCALAPACK package :  Parallel linear algebra routines
   Shared memory     :  Shared parallel matrices
   BLAS/LAPACK       :  OpenBLAS 0.3.15  USE64BITINT DYNAMIC_ARCH NO_AFFINITY SkylakeX SINGLE_THREADED
        Core in use  :  SkylakeX
   Copyright (c) 2011-2014, The OpenBLAS Project




***************************************
The coordinates will be read from file: 9_prot.xyz
***************************************


Your calculation utilizes the atom-pairwise dispersion correction
based on tight binding partial charges (D4)
Cite in your paper:
E.Caldeweyher, C.Bannwarth, S.Grimme, J.Chem.Phys., (2017), 147, 034112.
E.Caldeweyher, S.Ehlert, A.Hansen, H.Neugebauer, S.Grimme, J.Chem.Phys., (2018), in progress.
   

XCFun DFT library Copyright 2009-2010 Ulf Ekstrom and contributors.
See http://admol.org/xcfun for more information.
This is free software; see the source code for copying conditions.
There is ABSOLUTELY NO WARRANTY; not even for MERCHANTABILITY or FITNESS FOR A PARTICULAR PURPOSE.
For details see the documentation.
Scientific users of this library should cite U. Ekstrom, L. Visscher, R. Bast, A. J. Thorvaldsen and K. Ruud;
J.Chem.Theor.Comp. 2010, DOI: 10.1021/ct100117s
XCFun Version 0.99 

================================================================================

----- Orbital basis set information -----
Your calculation utilizes the basis: def2-TZVP
   F. Weigend and R. Ahlrichs, Phys. Chem. Chem. Phys. 7, 3297 (2005).

----- AuxJ basis set information -----
Your calculation utilizes the auxiliary basis: def2/J
   F. Weigend, Phys. Chem. Chem. Phys. 8, 1057 (2006).

================================================================================
                                        WARNINGS
                       Please study these warnings very carefully!
================================================================================

WARNING: Old DensityContainer found on disk!
         Will remove this file - 
         If you want to keep old densities, please start your calculation with a different basename. 


WARNING: Geometry Optimization
  ===> : Switching off AutoStart
         For restart on a previous wavefunction, please use MOREAD

INFO   : the flag for use of the SHARK integral package has been found!

================================================================================
                                       INPUT FILE
================================================================================
NAME = 9_prot.inp
|  1> # ORCA 5.0.4 - /users/bwb16179/postgrad/2024_06/pKa_Reviewer_Comments/Aq_Z=1/9_prot.inp # write input file
|  2> # Basic Mode
|  3> #
|  4> ! Opt Freq wB97X Def2-TZVP D4 SlowConv TightSCF Defgrid2 Def2/J RIJCOSX CPCM(Water)
|  5> 
|  6> %PAL NPROCS 4 END
|  7> 
|  8> %maxcore 4500
|  9> 
| 10> %geom
| 11> Maxiter 150
| 12> END
| 13> 
| 14> * xyzfile 1 1 9_prot.xyz
| 15> 
| 16>                          ****END OF INPUT****
================================================================================

                       *****************************
                       * Geometry Optimization Run *
                       *****************************

Geometry optimization settings:
Update method            Update   .... BFGS
Choice of coordinates    CoordSys .... Z-matrix Internals
Initial Hessian          InHess   .... Almoef's Model

Convergence Tolerances:
Energy Change            TolE     ....  5.0000e-06 Eh
Max. Gradient            TolMAXG  ....  3.0000e-04 Eh/bohr
RMS Gradient             TolRMSG  ....  1.0000e-04 Eh/bohr
Max. Displacement        TolMAXD  ....  4.0000e-03 bohr
RMS Displacement         TolRMSD  ....  2.0000e-03 bohr
Strict Convergence                ....  False
------------------------------------------------------------------------------
                        ORCA OPTIMIZATION COORDINATE SETUP
------------------------------------------------------------------------------

The optimization will be done in new redundant internal coordinates
Making redundant internal coordinates   ...  (new redundants) done
Evaluating the initial hessian          ...  (Almloef) done
Evaluating the coordinates              ...  done
Calculating the B-matrix                .... done
Calculating the G-matrix                .... done
Diagonalizing the G-matrix              .... done
The first mode is                       ....   58
The number of degrees of freedom        ....   48

    -----------------------------------------------------------------
                    Redundant Internal Coordinates


    -----------------------------------------------------------------
         Definition                    Initial Value    Approx d2E/dq
    -----------------------------------------------------------------
      1. B(N   2,C   0)                  1.9152         0.081273   
      2. B(N   3,C   1)                  1.9152         0.081274   
      3. B(C   4,N   3)                  1.4173         0.506224   
      4. B(C   4,N   2)                  1.4173         0.506217   
      5. B(H   5,C   0)                  1.9942         0.012995   
      6. B(H   6,N   2)                  2.5667         0.001421   
      7. B(H   6,C   1)                  2.0169         0.011958   
      8. B(H   7,C   1)                  1.9942         0.012995   
      9. B(H   8,N   3)                  2.5668         0.001421   
     10. B(H   8,C   0)                  2.0169         0.011958   
     11. B(C   9,N   2)                  1.5009         0.372320   
     12. B(C  10,N   3)                  1.5009         0.372311   
     13. B(H  11,C   9)                  1.4339         0.101785   
     14. B(H  12,C  10)                  1.4484         0.096534   
     15. B(H  13,C  10)                  1.4339         0.101788   
     16. B(H  14,C   9)                  1.4484         0.096530   
     17. B(H  15,C   9)                  1.3508         0.138132   
     18. B(H  16,C  10)                  1.3508         0.138130   
     19. B(H  17,C   4)                  1.0838         0.368342   
     20. A(N   2,C   0,H   8)          113.6554         0.165460   
     21. A(H   5,C   0,H   8)          108.4491         0.133033   
     22. A(N   2,C   0,H   5)          120.6897         0.166913   
     23. A(N   3,C   1,H   7)          120.6893         0.166913   
     24. A(N   3,C   1,H   6)          113.6552         0.165461   
     25. A(H   6,C   1,H   7)          108.4490         0.133033   
     26. A(C   0,N   2,H   6)          101.0538         0.135660   
     27. A(H   6,N   2,C   9)          143.6571         0.154849   
     28. A(C   4,N   2,H   6)           91.8443         0.159591   
     29. A(C   0,N   2,C   9)          103.0222         0.279927   
     30. A(C   4,N   2,C   9)          115.2262         0.377846   
     31. A(C   0,N   2,C   4)           89.1355         0.293675   
     32. A(C   1,N   3,H   8)          101.0536         0.135660   
     33. A(C   1,N   3,C  10)          103.0228         0.279926   
     34. A(C   4,N   3,C  10)          115.2268         0.377846   
     35. A(C   4,N   3,H   8)           91.8440         0.159590   
     36. A(H   8,N   3,C  10)          143.6565         0.154848   
     37. A(C   1,N   3,C   4)           89.1357         0.293676   
     38. A(N   2,C   4,N   3)          119.1799         0.398647   
     39. A(N   3,C   4,H  17)          120.4101         0.340282   
     40. A(N   2,C   4,H  17)          120.4100         0.340281   
     41. A(C   1,H   6,N   2)           59.6421         0.115370   
     42. A(C   0,H   8,N   3)           59.6421         0.115370   
     43. A(H  11,C   9,H  15)          114.5471         0.211073   
     44. A(N   2,C   9,H  11)          108.4240         0.264201   
     45. A(H  11,C   9,H  14)          110.4403         0.201563   
     46. A(H  14,C   9,H  15)          115.2112         0.209617   
     47. A(N   2,C   9,H  14)          111.4372         0.262112   
     48. A(N   2,C   9,H  15)           95.7622         0.276738   
     49. A(H  13,C  10,H  16)          114.5471         0.211074   
     50. A(N   3,C  10,H  13)          108.4239         0.264201   
     51. A(H  12,C  10,H  13)          110.4410         0.201565   
     52. A(N   3,C  10,H  16)           95.7623         0.276736   
     53. A(H  12,C  10,H  16)          115.2109         0.209618   
     54. A(N   3,C  10,H  12)          111.4366         0.262112   
     55. D(H   6,N   2,C   0,H   8)   -133.6202         0.001921   
     56. D(C   9,N   2,C   0,H   8)     73.8121         0.001921   
     57. D(C   4,N   2,C   0,H   8)    -41.9098         0.001921   
     58. D(C   9,N   2,C   0,H   5)    -57.6210         0.001921   
     59. D(C   4,N   2,C   0,H   5)   -173.3429         0.001921   
     60. D(H   6,N   2,C   0,H   5)     94.9467         0.001921   
     61. D(C   4,N   3,C   1,H   7)   -173.3426         0.001921   
     62. D(H   8,N   3,C   1,H   6)   -133.6207         0.001921   
     63. D(C  10,N   3,C   1,H   7)    -57.6200         0.001921   
     64. D(C   4,N   3,C   1,H   6)    -41.9105         0.001921   
     65. D(C  10,N   3,C   1,H   6)     73.8121         0.001921   
     66. D(H   8,N   3,C   1,H   7)     94.9472         0.001921   
     67. D(N   3,C   4,N   2,H   6)     70.9031         0.022000   
     68. D(N   3,C   4,N   2,C   9)   -134.1342         0.022000   
     69. D(H  17,C   4,N   3,H   8)   -109.0966         0.022000   
     70. D(N   3,C   4,N   2,C   0)    -30.1295         0.022000   
     71. D(N   2,C   4,N   3,C  10)   -134.1341         0.022000   
     72. D(N   2,C   4,N   3,C   1)    -30.1285         0.022000   
     73. D(N   2,C   4,N   3,H   8)     70.9038         0.022000   
     74. D(H  17,C   4,N   2,H   6)   -109.0965         0.022000   
     75. D(H  17,C   4,N   3,C   1)    149.8711         0.022000   
     76. D(H  17,C   4,N   3,C  10)     45.8655         0.022000   
     77. D(H  17,C   4,N   2,C   9)     45.8662         0.022000   
     78. D(H  17,C   4,N   2,C   0)    149.8710         0.022000   
     79. D(C   1,H   6,N   2,C   9)    153.8987         0.001501   
     80. D(C   1,H   6,N   2,C   4)    -66.3443         0.001501   
     81. D(C   1,H   6,N   2,C   0)     23.1349         0.001501   
     82. D(N   2,H   6,C   1,H   7)   -165.7198         0.001563   
     83. D(N   2,H   6,C   1,N   3)     57.0979         0.001563   
     84. D(N   3,H   8,C   0,H   5)   -165.7192         0.001563   
     85. D(N   3,H   8,C   0,N   2)     57.0975         0.001563   
     86. D(C   0,H   8,N   3,C  10)    153.8988         0.001501   
     87. D(C   0,H   8,N   3,C   4)    -66.3443         0.001501   
     88. D(C   0,H   8,N   3,C   1)     23.1350         0.001501   
     89. D(H  14,C   9,N   2,C   4)     44.9761         0.012710   
     90. D(H  14,C   9,N   2,C   0)    -50.2935         0.012710   
     91. D(H  11,C   9,N   2,H   6)    -58.8133         0.012710   
     92. D(H  11,C   9,N   2,C   4)    166.7289         0.012710   
     93. D(H  11,C   9,N   2,C   0)     71.4593         0.012710   
     94. D(H  15,C   9,N   2,H   6)     59.4631         0.012710   
     95. D(H  15,C   9,N   2,C   4)    -74.9948         0.012710   
     96. D(H  14,C   9,N   2,H   6)    179.4340         0.012710   
     97. D(H  15,C   9,N   2,C   0)   -170.2643         0.012710   
     98. D(H  12,C  10,N   3,H   8)    179.4343         0.012710   
     99. D(H  12,C  10,N   3,C   4)     44.9769         0.012710   
    100. D(H  12,C  10,N   3,C   1)    -50.2933         0.012710   
    101. D(H  13,C  10,N   3,H   8)    -58.8125         0.012710   
    102. D(H  13,C  10,N   3,C   4)    166.7301         0.012710   
    103. D(H  13,C  10,N   3,C   1)     71.4599         0.012710   
    104. D(H  16,C  10,N   3,H   8)     59.4639         0.012710   
    105. D(H  16,C  10,N   3,C   4)    -74.9935         0.012710   
    106. D(H  16,C  10,N   3,C   1)   -170.2637         0.012710   
    -----------------------------------------------------------------

Number of atoms                         .... 18
Number of degrees of freedom            .... 106

         *************************************************************
         *                GEOMETRY OPTIMIZATION CYCLE   1            *
         *************************************************************
---------------------------------
CARTESIAN COORDINATES (ANGSTROEM)
---------------------------------
  C      0.710420    0.740370   -1.253540
  C     -0.710420   -0.740360   -1.253540
  N     -0.530110    1.101370    0.160240
  N      0.530100   -1.101370    0.160240
  C     -0.000000   -0.000000    0.877650
  H      0.882190    1.987590   -2.800120
  H     -2.561140   -0.268630   -0.605410
  H     -0.882190   -1.987590   -2.800110
  H      2.561140    0.268630   -0.605410
  C     -0.098850    2.452330    0.651840
  C      0.098850   -2.452340    0.651840
  H     -0.450190    3.428270   -0.338260
  H     -1.324690   -2.489820    0.916190
  H      0.450210   -3.428270   -0.338250
  H      1.324700    2.489810    0.916200
  H     -0.887970    2.455960    1.748200
  H      0.887960   -2.455960    1.748210
  H      0.000000   -0.000000    1.961490

----------------------------
CARTESIAN COORDINATES (A.U.)
----------------------------
  NO LB      ZA    FRAG     MASS         X           Y           Z
   0 C     6.0000    0    12.011    1.342499    1.399097   -2.368847
   1 C     6.0000    0    12.011   -1.342499   -1.399078   -2.368847
   2 N     7.0000    0    14.007   -1.001763    2.081288    0.302810
   3 N     7.0000    0    14.007    1.001744   -2.081288    0.302810
   4 C     6.0000    0    12.011   -0.000000   -0.000000    1.658518
   5 H     1.0000    0     1.008    1.667097    3.756001   -5.291460
   6 H     1.0000    0     1.008   -4.839853   -0.507637   -1.144059
   7 H     1.0000    0     1.008   -1.667097   -3.756001   -5.291441
   8 H     1.0000    0     1.008    4.839853    0.507637   -1.144059
   9 C     6.0000    0    12.011   -0.186799    4.634232    1.231799
  10 C     6.0000    0    12.011    0.186799   -4.634251    1.231799
  11 H     1.0000    0     1.008   -0.850736    6.478491   -0.639219
  12 H     1.0000    0     1.008   -2.503301   -4.705078    1.731348
  13 H     1.0000    0     1.008    0.850774   -6.478491   -0.639200
  14 H     1.0000    0     1.008    2.503320    4.705059    1.731367
  15 H     1.0000    0     1.008   -1.678020    4.641092    3.303619
  16 H     1.0000    0     1.008    1.678001   -4.641092    3.303638
  17 H     1.0000    0     1.008    0.000000   -0.000000    3.706679

--------------------------------
INTERNAL COORDINATES (ANGSTROEM)
--------------------------------
 C      0   0   0     0.000000000000     0.00000000     0.00000000
 C      1   0   0     2.052156826000     0.00000000     0.00000000
 N      1   2   0     1.915204837426    71.79261900     0.00000000
 N      2   1   3     1.915200245118    71.79301909   281.99074739
 C      4   2   1     1.417285784519    89.13568547    71.17647476
 H      1   2   3     1.994234779985   120.72386921   244.56222826
 H      2   1   3     2.016870399456   117.81140197    29.69099642
 H      2   1   3     1.994233278907   120.72413600   166.55332145
 H      1   2   3     2.016872738400   117.81113518   107.70033697
 C      3   1   2     1.500915943416   103.02217983   186.89863934
 C      4   2   1     1.500922071062   103.02284975   186.89906725
 H     10   3   1     1.433944451225   108.42397543    71.45928684
 H     11   4   2     1.448361765755   111.43660067   309.70668328
 H     11   4   2     1.433935641024   108.42390405    71.45989046
 H     10   3   1     1.448373419564   111.43716528   309.70652150
 H     10   3   1     1.350825229591    95.76220946   189.73565430
 H     11   4   2     1.350827477289    95.76227980   189.73626986
 H      5   4   2     1.083840000000   120.41010296   149.87111674

---------------------------
INTERNAL COORDINATES (A.U.)
---------------------------
 C      0   0   0     0.000000000000     0.00000000     0.00000000
 C      1   0   0     3.878014384998     0.00000000     0.00000000
 N      1   2   0     3.619212633096    71.79261900     0.00000000
 N      2   1   3     3.619203954892    71.79301909   281.99074739
 C      4   2   1     2.678281986241    89.13568547    71.17647476
 H      1   2   3     3.768557580911   120.72386921   244.56222826
 H      2   1   3     3.811332702583   117.81140197    29.69099642
 H      2   1   3     3.768554744286   120.72413600   166.55332145
 H      1   2   3     3.811337122547   117.81113518   107.70033697
 C      3   1   2     2.836320083092   103.02217983   186.89863934
 C      4   2   1     2.836331662664   103.02284975   186.89906725
 H     10   3   1     2.709762304072   108.42397543    71.45928684
 H     11   4   2     2.737007080119   111.43660067   309.70668328
 H     11   4   2     2.709745655205   108.42390405    71.45989046
 H     10   3   1     2.737029102627   111.43716528   309.70652150
 H     10   3   1     2.552689738719    95.76220946   189.73565430
 H     11   4   2     2.552693986253    95.76227980   189.73626986
 H      5   4   2     2.048160772989   120.41010296   149.87111674

---------------------
BASIS SET INFORMATION
---------------------
There are 3 groups of distinct atoms

 Group   1 Type C   : 11s6p2d1f contracted to 5s3p2d1f pattern {62111/411/11/1}
 Group   2 Type N   : 11s6p2d1f contracted to 5s3p2d1f pattern {62111/411/11/1}
 Group   3 Type H   : 5s1p contracted to 3s1p pattern {311/1}

Atom   0C    basis set group =>   1
Atom   1C    basis set group =>   1
Atom   2N    basis set group =>   2
Atom   3N    basis set group =>   2
Atom   4C    basis set group =>   1
Atom   5H    basis set group =>   3
Atom   6H    basis set group =>   3
Atom   7H    basis set group =>   3
Atom   8H    basis set group =>   3
Atom   9C    basis set group =>   1
Atom  10C    basis set group =>   1
Atom  11H    basis set group =>   3
Atom  12H    basis set group =>   3
Atom  13H    basis set group =>   3
Atom  14H    basis set group =>   3
Atom  15H    basis set group =>   3
Atom  16H    basis set group =>   3
Atom  17H    basis set group =>   3
---------------------------------
AUXILIARY/J BASIS SET INFORMATION
---------------------------------
There are 3 groups of distinct atoms

 Group   1 Type C   : 12s5p4d2f1g contracted to 6s4p3d1f1g pattern {711111/2111/211/2/1}
 Group   2 Type N   : 12s5p4d2f1g contracted to 6s4p3d1f1g pattern {711111/2111/211/2/1}
 Group   3 Type H   : 5s2p1d contracted to 3s1p1d pattern {311/2/1}

Atom   0C    basis set group =>   1
Atom   1C    basis set group =>   1
Atom   2N    basis set group =>   2
Atom   3N    basis set group =>   2
Atom   4C    basis set group =>   1
Atom   5H    basis set group =>   3
Atom   6H    basis set group =>   3
Atom   7H    basis set group =>   3
Atom   8H    basis set group =>   3
Atom   9C    basis set group =>   1
Atom  10C    basis set group =>   1
Atom  11H    basis set group =>   3
Atom  12H    basis set group =>   3
Atom  13H    basis set group =>   3
Atom  14H    basis set group =>   3
Atom  15H    basis set group =>   3
Atom  16H    basis set group =>   3
Atom  17H    basis set group =>   3


           ************************************************************
           *        Program running with 4 parallel MPI-processes     *
           *              working on a common directory               *
           ************************************************************
------------------------------------------------------------------------------
                           ORCA GTO INTEGRAL CALCULATION
                           -- RI-GTO INTEGRALS CHOSEN --
------------------------------------------------------------------------------
------------------------------------------------------------------------------
                   ___                                                        
                  /   \      - P O W E R E D   B Y -                         
                 /     \                                                     
                 |  |  |   _    _      __       _____    __    __             
                 |  |  |  | |  | |    /  \     |  _  \  |  |  /  |          
                  \  \/   | |  | |   /    \    | | | |  |  | /  /          
                 / \  \   | |__| |  /  /\  \   | |_| |  |  |/  /          
                |  |  |   |  __  | /  /__\  \  |    /   |      \           
                |  |  |   | |  | | |   __   |  |    \   |  |\   \          
                \     /   | |  | | |  |  |  |  | |\  \  |  | \   \       
                 \___/    |_|  |_| |__|  |__|  |_| \__\ |__|  \__/        
                                                                              
                      - O R C A' S   B I G   F R I E N D -                    
                                      &                                       
                       - I N T E G R A L  F E E D E R -                       
                                                                              
 v1 FN, 2020, v2 2021                                                         
------------------------------------------------------------------------------


Reading SHARK input file 9_prot.SHARKINP.tmp ... ok
----------------------
SHARK INTEGRAL PACKAGE
----------------------

Number of atoms                             ...     18
Number of basis functions                   ...    283
Number of shells                            ...    121
Maximum angular momentum                    ...      3
Integral batch strategy                     ... SHARK/LIBINT Hybrid
RI-J (if used) integral strategy            ... SPLIT-RIJ (Revised 2003 algorithm where possible)
Printlevel                                  ...      1
Contraction scheme used                     ... SEGMENTED contraction
Coulomb Range Separation                    ... NOT USED
Exchange Range Separation                   ... Long Range
   Mu parameter                             ...  0.300000
   Scaling (regular/separated)              ...  0.157706  0.842294
Finite Nucleus Model                        ... NOT USED
Auxiliary Coulomb fitting basis             ... AVAILABLE
   # of basis functions in Aux-J            ...    464
   # of shells in Aux-J                     ...    160
   Maximum angular momentum in Aux-J        ...      4
Auxiliary J/K fitting basis                 ... NOT available
Auxiliary Correlation fitting basis         ... NOT available
Auxiliary 'external' fitting basis          ... NOT available
Integral threshold                          ...     2.500000e-11
Primitive cut-off                           ...     2.500000e-12
Primitive pair pre-selection threshold      ...     2.500000e-12

Calculating pre-screening integrals         ... done (  0.0 sec) Dimension = 121
Organizing shell pair data                  ... done (  0.1 sec)
Shell pair information
Total number of shell pairs                 ...      7381
Shell pairs after pre-screening             ...      6708
Total number of primitive shell pairs       ...     21508
Primitive shell pairs kept                  ...     14611
          la=0 lb=0:   2059 shell pairs
          la=1 lb=0:   1950 shell pairs
          la=1 lb=1:    489 shell pairs
          la=2 lb=0:    896 shell pairs
          la=2 lb=1:    430 shell pairs
          la=2 lb=2:    104 shell pairs
          la=3 lb=0:    444 shell pairs
          la=3 lb=1:    212 shell pairs
          la=3 lb=2:     96 shell pairs
          la=3 lb=3:     28 shell pairs

Calculating one electron integrals          ... done (  0.0 sec)
Calculating RI/J V-Matrix + Cholesky decomp.... done (  0.0 sec)
Calculating Nuclear repulsion               ... done (  0.0 sec) ENN=    290.512844550982 Eh

SHARK setup successfully completed in   0.3 seconds

Maximum memory used throughout the entire GTOINT-calculation: 19.9 MB


           ************************************************************
           *        Program running with 4 parallel MPI-processes     *
           *              working on a common directory               *
           ************************************************************
-------------------------------------------------------------------------------
                                 ORCA SCF
-------------------------------------------------------------------------------

------------
SCF SETTINGS
------------
Hamiltonian:
 Density Functional     Method          .... DFT(GTOs)
 Exchange Functional    Exchange        .... WB97X
 Correlation Functional Correlation     .... WB97X
 Gradients option       PostSCFGGA      .... off
 Hybrid DFT is turned on
   Fraction HF Exchange ScalHFX         ....  0.157706
   Scaling of DF-GGA-X  ScalDFX         ....  0.000000
   Scaling of DF-GGA-C  ScalDFC         ....  1.000000
   Scaling of DF-LDA-C  ScalLDAC        ....  1.000000
   Perturbative correction              ....  0.000000
   Density functional embedding theory  .... OFF
 Long-range corrected/Screened/Range-Separated Hybrid DFT is turned on
   Amount of maximum screened exact exchange              ....  0.842294
   Range separation parameter mu (erf(mu*r12)/r12)        ....  0.300000
 RI-approximation to the Coulomb term is turned on
   Number of AuxJ basis functions       .... 464
   RIJ-COSX (HFX calculated with COS-X)).... on


General Settings:
 Integral files         IntName         .... 9_prot
 Hartree-Fock type      HFTyp           .... RHF
 Total Charge           Charge          ....    1
 Multiplicity           Mult            ....    1
 Number of Electrons    NEL             ....   54
 Basis Dimension        Dim             ....  283
 Nuclear Repulsion      ENuc            ....    290.5128445510 Eh

Convergence Acceleration:
 DIIS                   CNVDIIS         .... on
   Start iteration      DIISMaxIt       ....     0
   Startup error        DIISStart       ....  0.200000
   # of expansion vecs  DIISMaxEq       ....     5
   Bias factor          DIISBfac        ....   1.050
   Max. coefficient     DIISMaxC        ....  10.000
 Trust-Rad. Augm. Hess. CNVTRAH         .... auto
   Auto Start mean grad. ratio tolernc. ....  1.125000
   Auto Start start iteration           ....    20
   Auto Start num. interpolation iter.  ....    10
   Max. Number of Micro iterations      ....    16
   Max. Number of Macro iterations      .... Maxiter - #DIIS iter
   Number of Davidson start vectors     ....     2
   Converg. threshold I  (grad. norm)   ....   1.000e-05
   Converg. threshold II (energy diff.) ....   1.000e-08
   Grad. Scal. Fac. for Micro threshold ....   0.100
   Minimum threshold for Micro iter.    ....   0.010
   NR start threshold (gradient norm)   ....   0.001
   Initial trust radius                 ....   0.400
   Minimum AH scaling param. (alpha)    ....   1.000
   Maximum AH scaling param. (alpha)    .... 1000.000
   Orbital update algorithm             .... Taylor
   White noise on init. David. guess    .... on
   Maximum white noise                  ....   0.010
   Quad. conv. algorithm                .... NR
 SOSCF                  CNVSOSCF        .... on
   Start iteration      SOSCFMaxIt      ....   150
   Startup grad/error   SOSCFStart      ....  0.001000
 Level Shifting         CNVShift        .... on
   Level shift para.    LevelShift      ....    0.2500
   Turn off err/grad.   ShiftErr        ....    0.0000
 Zerner damping         CNVZerner       .... off
 Static damping         CNVDamp         .... on
   Fraction old density DampFac         ....    0.8500
   Max. Damping (<1)    DampMax         ....    0.9800
   Min. Damping (>=0)   DampMin         ....    0.0000
   Turn off err/grad.   DampErr         ....    0.0300
 Fernandez-Rico         CNVRico         .... off

SCF Procedure:
 Maximum # iterations   MaxIter         ....   125
 SCF integral mode      SCFMode         .... Direct
   Integral package                     .... SHARK and LIBINT hybrid scheme
 Reset frequency        DirectResetFreq ....    20
 Integral Threshold     Thresh          ....  2.500e-11 Eh
 Primitive CutOff       TCut            ....  2.500e-12 Eh

Convergence Tolerance:
 Convergence Check Mode ConvCheckMode   .... Total+1el-Energy
 Convergence forced     ConvForced      .... 0
 Energy Change          TolE            ....  1.000e-08 Eh
 1-El. energy change                    ....  1.000e-05 Eh
 Orbital Gradient       TolG            ....  1.000e-05
 Orbital Rotation angle TolX            ....  1.000e-05
 DIIS Error             TolErr          ....  5.000e-07


Diagonalization of the overlap matrix:
Smallest eigenvalue                        ... 4.537e-04
Time for diagonalization                   ...    0.012 sec
Threshold for overlap eigenvalues          ... 1.000e-08
Number of eigenvalues below threshold      ... 0
Time for construction of square roots      ...    0.006 sec
Total time needed                          ...    0.019 sec

Time for model grid setup =    0.096 sec

------------------------------
INITIAL GUESS: MODEL POTENTIAL
------------------------------
Loading Hartree-Fock densities                     ... done
Calculating cut-offs                               ... done
Initializing the effective Hamiltonian             ... done
Setting up the integral package (SHARK)            ... done
Starting the Coulomb interaction                   ... done (   0.2 sec)
Reading the grid                                   ... done
Mapping shells                                     ... done
Starting the XC term evaluation                    ... done (   0.1 sec)
  promolecular density results
     # of electrons  =     54.993821610
     EX              =    -41.128103368
     EC              =     -1.678046442
     EX+EC           =    -42.806149810
Transforming the Hamiltonian                       ... done (   0.0 sec)
Diagonalizing the Hamiltonian                      ... done (   0.0 sec)
Back transforming the eigenvectors                 ... done (   0.0 sec)
Now organizing SCF variables                       ... done
                      ------------------
                      INITIAL GUESS DONE (   0.5 sec)
                      ------------------
-------------------
DFT GRID GENERATION
-------------------

General Integration Accuracy     IntAcc      ... 4.388
Radial Grid Type                 RadialGrid  ... OptM3 with GC (2021)
Angular Grid (max. ang.)         AngularGrid ... 4 (Lebedev-302)
Angular grid pruning method      GridPruning ... 4 (adaptive)
Weight generation scheme         WeightScheme... Becke
Basis function cutoff            BFCut       ... 1.0000e-11
Integration weight cutoff        WCut        ... 1.0000e-14
Angular grids for H and He will be reduced by one unit
Partially contracted basis set               ... off
Rotationally invariant grid construction     ... off

Total number of grid points                  ...    78201
Total number of batches                      ...     1231
Average number of points per batch           ...       63
Average number of grid points per atom       ...     4344
Time for grid setup =    0.464 sec

--------------------
COSX GRID GENERATION
--------------------

GRIDX 1
-------
General Integration Accuracy     IntAcc      ... 3.816
Radial Grid Type                 RadialGrid  ... OptM3 with GC (2021)
Angular Grid (max. ang.)         AngularGrid ... 1 (Lebedev-50)
Angular grid pruning method      GridPruning ... 4 (adaptive)
Weight generation scheme         WeightScheme... Becke
Basis function cutoff            BFCut       ... 1.0000e-11
Integration weight cutoff        WCut        ... 1.0000e-14
Angular grids for H and He will be reduced by one unit
Partially contracted basis set               ... on
Rotationally invariant grid construction     ... off

Total number of grid points                  ...    10042
Total number of batches                      ...      169
Average number of points per batch           ...       59
Average number of grid points per atom       ...      558
UseSFitting                                  ... on

GRIDX 2
-------
General Integration Accuracy     IntAcc      ... 4.020
Radial Grid Type                 RadialGrid  ... OptM3 with GC (2021)
Angular Grid (max. ang.)         AngularGrid ... 2 (Lebedev-110)
Angular grid pruning method      GridPruning ... 4 (adaptive)
Weight generation scheme         WeightScheme... Becke
Basis function cutoff            BFCut       ... 1.0000e-11
Integration weight cutoff        WCut        ... 1.0000e-14
Angular grids for H and He will be reduced by one unit
Partially contracted basis set               ... on
Rotationally invariant grid construction     ... off

Total number of grid points                  ...    21142
Total number of batches                      ...      338
Average number of points per batch           ...       62
Average number of grid points per atom       ...     1175
UseSFitting                                  ... on

GRIDX 3
-------
General Integration Accuracy     IntAcc      ... 4.338
Radial Grid Type                 RadialGrid  ... OptM3 with GC (2021)
Angular Grid (max. ang.)         AngularGrid ... 3 (Lebedev-194)
Angular grid pruning method      GridPruning ... 4 (adaptive)
Weight generation scheme         WeightScheme... Becke
Basis function cutoff            BFCut       ... 1.0000e-11
Integration weight cutoff        WCut        ... 1.0000e-14
Angular grids for H and He will be reduced by one unit
Partially contracted basis set               ... on
Rotationally invariant grid construction     ... off

Total number of grid points                  ...    46241
Total number of batches                      ...      729
Average number of points per batch           ...       63
Average number of grid points per atom       ...     2569
UseSFitting                                  ... on

Time for X-Grid setup             =    0.558 sec


--------------------
CPCM SOLVATION MODEL
--------------------
CPCM parameters:
  Epsilon                                         ...      80.4000
  Refrac                                          ...       1.3300
  Rsolv                                           ...       1.3000
  Surface type                                    ... GAUSSIAN VDW
  Epsilon function type                           ...         CPCM
Radii:
 Radius for C  used is    3.8550 Bohr (=   2.0400 Ang.)
 Radius for N  used is    3.5149 Bohr (=   1.8600 Ang.)
 Radius for H  used is    2.4944 Bohr (=   1.3200 Ang.)
Calculating surface                               ...        done! (  0.0s)
GEPOL surface points                              ...         1167
GEPOL Volume                                      ...    1192.5271
GEPOL Surface-area                                ...     713.7309
Calculating surface distance matrix               ...        done! (  0.0s)
Performing Cholesky decomposition & store         ...        done! (  0.0s)
Overall time for CPCM initialization              ...                 0.1s
--------------
SCF ITERATIONS
--------------
ITER       Energy         Delta-E        Max-DP      RMS-DP      [F,P]     Damp
               ***  Starting incremental Fock matrix formation  ***
  0   -305.3083403105   0.000000000000 0.01279935  0.00027016  0.1278502 0.8500
  1   -305.3319107763  -0.023570465811 0.01181422  0.00026492  0.0946628 0.8500
                               ***Turning on DIIS***
  2   -305.3477915005  -0.015880724180 0.00888169  0.00021556  0.0643882 0.8500
  3   -305.3581248074  -0.010333306834 0.00580750  0.00015985  0.0423623 0.8500
  4   -305.3658118391  -0.007687031777 0.00551035  0.00013554  0.0316694 0.8500
  5   -305.3718395867  -0.006027747535 0.03674356  0.00080824  0.0257113 0.0000
  6   -305.4052839862  -0.033444399504 0.00811808  0.00012282  0.0032760 0.0000
  7   -305.4057145064  -0.000430520230 0.00415749  0.00007282  0.0023072 0.0000
  8   -305.4058988621  -0.000184355673 0.00228027  0.00004399  0.0014130 0.0000
  9   -305.4059828193  -0.000083957263 0.00127750  0.00003110  0.0007045 0.0000
               *** Restarting incremental Fock matrix formation ***
                                   *** Resetting DIIS ***
                      *** Initiating the SOSCF procedure ***
                           *** Shutting down DIIS ***
                      *** Re-Reading the Fockian *** 
                      *** Removing any level shift *** 
ITER      Energy       Delta-E        Grad      Rot      Max-DP    RMS-DP
 10   -305.40602222  -0.0000393982  0.000947  0.000947  0.000265  0.000012
               *** Restarting incremental Fock matrix formation ***
 11   -305.40603144  -0.0000092220  0.000689  0.002332  0.000351  0.000015
 12   -305.40603965  -0.0000082072  0.000413  0.003405  0.000520  0.000021
 13   -305.40604342  -0.0000037749  0.000113  0.000242  0.000218  0.000004
 14   -305.40604348  -0.0000000576  0.000102  0.000172  0.000125  0.000002
 15   -305.40604374  -0.0000002650  0.000007  0.000030  0.000017  0.000000
 16   -305.40604375  -0.0000000073  0.000006  0.000027  0.000011  0.000000
                  ***Gradient check signals convergence***
              ***Rediagonalizing the Fockian in SOSCF/NRSCF***

               *****************************************************
               *                     SUCCESS                       *
               *           SCF CONVERGED AFTER  17 CYCLES          *
               *****************************************************

Old exchange energy                            =    -13.370171769 Eh
New exchange energy                            =    -13.370170315 Eh
Exchange energy change after final integration =      0.000001454 Eh
Total energy after final integration           =   -305.406042307 Eh
Final COS-X integration done in                =    12.349 sec

----------------
TOTAL SCF ENERGY
----------------

Total Energy       :         -305.40604231 Eh           -8310.52091 eV

Components:
Nuclear Repulsion  :          290.51284455 Eh            7905.25640 eV
Electronic Energy  :         -595.91888686 Eh          -16215.77731 eV
One Electron Energy:         -977.62793145 Eh          -26602.60847 eV
Two Electron Energy:          381.70904460 Eh           10386.83116 eV
Max COSX asymmetry :            0.00000062 Eh               0.00002 eV
CPCM Dielectric    :           -0.08915775 Eh              -2.42611 eV

Virial components:
Potential Energy   :         -605.96330562 Eh          -16489.09984 eV
Kinetic Energy     :          300.55726331 Eh            8178.57893 eV
Virial Ratio       :            2.01613263


DFT components:
N(Alpha)           :       27.000060315901 electrons
N(Beta)            :       27.000060315901 electrons
N(Total)           :       54.000120631803 electrons
E(XC)              :      -29.615440734841 Eh       
DFET-embed. en.    :        0.000000000000 Eh       
CPCM Solvation Model Properties:
Surface-charge          :           -1.03894313
Charge-correction       :            0.00555864 Eh               0.15126 eV
Free-energy (cav+disp)  :  This term is not implemented in the current solvation scheme

---------------
SCF CONVERGENCE
---------------

  Last Energy change         ...   -1.0198e-08  Tolerance :   1.0000e-08
  Last MAX-Density change    ...    8.8818e-16  Tolerance :   1.0000e-07
  Last RMS-Density change    ...    1.2889e-17  Tolerance :   5.0000e-09
  Last Orbital Gradient      ...    1.5910e-06  Tolerance :   1.0000e-05
  Last Orbital Rotation      ...    1.0557e-05  Tolerance :   1.0000e-05

             **** THE GBW FILE WAS UPDATED (9_prot.gbw) ****
             **** DENSITY 9_prot.scfp WAS UPDATED ****
             **** ENERGY FILE WAS UPDATED (9_prot.en.tmp) ****
             **** THE GBW FILE WAS UPDATED (9_prot.gbw) ****
             **** DENSITY 9_prot.scfp WAS UPDATED ****
----------------
ORBITAL ENERGIES
----------------

  NO   OCC          E(Eh)            E(eV) 
   0   2.0000     -14.498186      -394.5157 
   1   2.0000     -14.498183      -394.5156 
   2   2.0000     -10.455875      -284.5188 
   3   2.0000     -10.455841      -284.5179 
   4   2.0000     -10.427267      -283.7404 
   5   2.0000     -10.383420      -282.5472 
   6   2.0000     -10.383416      -282.5471 
   7   2.0000      -1.130858       -30.7722 
   8   2.0000      -1.042438       -28.3662 
   9   2.0000      -0.843837       -22.9620 
  10   2.0000      -0.808133       -21.9904 
  11   2.0000      -0.755396       -20.5554 
  12   2.0000      -0.687622       -18.7112 
  13   2.0000      -0.679694       -18.4954 
  14   2.0000      -0.594874       -16.1873 
  15   2.0000      -0.593883       -16.1604 
  16   2.0000      -0.544690       -14.8218 
  17   2.0000      -0.524559       -14.2740 
  18   2.0000      -0.520907       -14.1746 
  19   2.0000      -0.498505       -13.5650 
  20   2.0000      -0.442332       -12.0365 
  21   2.0000      -0.439735       -11.9658 
  22   2.0000      -0.420639       -11.4462 
  23   2.0000      -0.418602       -11.3907 
  24   2.0000      -0.387245       -10.5375 
  25   2.0000      -0.371192       -10.1007 
  26   2.0000      -0.353808        -9.6276 
  27   0.0000      -0.105939        -2.8828 
  28   0.0000      -0.058232        -1.5846 
  29   0.0000      -0.033240        -0.9045 
  30   0.0000       0.012350         0.3361 
  31   0.0000       0.014348         0.3904 
  32   0.0000       0.021025         0.5721 
  33   0.0000       0.046026         1.2524 
  34   0.0000       0.086050         2.3415 
  35   0.0000       0.090418         2.4604 
  36   0.0000       0.101498         2.7619 
  37   0.0000       0.120062         3.2671 
  38   0.0000       0.134691         3.6651 
  39   0.0000       0.140939         3.8351 
  40   0.0000       0.154741         4.2107 
  41   0.0000       0.177695         4.8353 
  42   0.0000       0.187685         5.1072 
  43   0.0000       0.200668         5.4605 
  44   0.0000       0.260327         7.0839 
  45   0.0000       0.270111         7.3501 
  46   0.0000       0.272307         7.4099 
  47   0.0000       0.280966         7.6455 
  48   0.0000       0.294030         8.0010 
  49   0.0000       0.303233         8.2514 
  50   0.0000       0.305418         8.3109 
  51   0.0000       0.333611         9.0780 
  52   0.0000       0.339110         9.2277 
  53   0.0000       0.343762         9.3542 
  54   0.0000       0.343762         9.3543 
  55   0.0000       0.363224         9.8838 
  56   0.0000       0.367498        10.0001 
  57   0.0000       0.372007        10.1228 
  58   0.0000       0.376546        10.2463 
  59   0.0000       0.392420        10.6783 
  60   0.0000       0.395439        10.7605 
  61   0.0000       0.414646        11.2831 
  62   0.0000       0.419665        11.4197 
  63   0.0000       0.433048        11.7838 
  64   0.0000       0.437240        11.8979 
  65   0.0000       0.440221        11.9790 
  66   0.0000       0.448458        12.2032 
  67   0.0000       0.456433        12.4202 
  68   0.0000       0.468672        12.7532 
  69   0.0000       0.470599        12.8056 
  70   0.0000       0.479934        13.0597 
  71   0.0000       0.497049        13.5254 
  72   0.0000       0.512206        13.9378 
  73   0.0000       0.527887        14.3645 
  74   0.0000       0.531933        14.4746 
  75   0.0000       0.536613        14.6020 
  76   0.0000       0.563324        15.3288 
  77   0.0000       0.597692        16.2640 
  78   0.0000       0.614448        16.7200 
  79   0.0000       0.620647        16.8887 
  80   0.0000       0.644904        17.5487 
  81   0.0000       0.676826        18.4174 
  82   0.0000       0.700239        19.0545 
  83   0.0000       0.730986        19.8912 
  84   0.0000       0.751253        20.4426 
  85   0.0000       0.781448        21.2643 
  86   0.0000       0.783807        21.3285 
  87   0.0000       0.836825        22.7712 
  88   0.0000       0.859223        23.3807 
  89   0.0000       0.905208        24.6320 
  90   0.0000       0.924858        25.1667 
  91   0.0000       0.948528        25.8108 
  92   0.0000       0.959375        26.1059 
  93   0.0000       0.963813        26.2267 
  94   0.0000       0.974789        26.5254 
  95   0.0000       1.009551        27.4713 
  96   0.0000       1.010739        27.5036 
  97   0.0000       1.031882        28.0789 
  98   0.0000       1.058174        28.7944 
  99   0.0000       1.074539        29.2397 
 100   0.0000       1.085832        29.5470 
 101   0.0000       1.123442        30.5704 
 102   0.0000       1.125553        30.6278 
 103   0.0000       1.129094        30.7242 
 104   0.0000       1.143246        31.1093 
 105   0.0000       1.156115        31.4595 
 106   0.0000       1.157743        31.5038 
 107   0.0000       1.188082        32.3294 
 108   0.0000       1.206971        32.8434 
 109   0.0000       1.215151        33.0659 
 110   0.0000       1.329353        36.1735 
 111   0.0000       1.364792        37.1379 
 112   0.0000       1.384884        37.6846 
 113   0.0000       1.401278        38.1307 
 114   0.0000       1.430988        38.9392 
 115   0.0000       1.469003        39.9736 
 116   0.0000       1.480497        40.2864 
 117   0.0000       1.484478        40.3947 
 118   0.0000       1.488223        40.4966 
 119   0.0000       1.495918        40.7060 
 120   0.0000       1.505522        40.9673 
 121   0.0000       1.511776        41.1375 
 122   0.0000       1.539200        41.8838 
 123   0.0000       1.548734        42.1432 
 124   0.0000       1.556104        42.3437 
 125   0.0000       1.565458        42.5983 
 126   0.0000       1.581409        43.0323 
 127   0.0000       1.583608        43.0922 
 128   0.0000       1.591739        43.3134 
 129   0.0000       1.604011        43.6473 
 130   0.0000       1.613304        43.9002 
 131   0.0000       1.619043        44.0564 
 132   0.0000       1.637140        44.5488 
 133   0.0000       1.639750        44.6199 
 134   0.0000       1.655373        45.0450 
 135   0.0000       1.661890        45.2223 
 136   0.0000       1.664938        45.3053 
 137   0.0000       1.680647        45.7327 
 138   0.0000       1.689840        45.9829 
 139   0.0000       1.694271        46.1035 
 140   0.0000       1.707091        46.4523 
 141   0.0000       1.755524        47.7702 
 142   0.0000       1.777414        48.3659 
 143   0.0000       1.781538        48.4781 
 144   0.0000       1.827763        49.7359 
 145   0.0000       1.880055        51.1589 
 146   0.0000       1.911136        52.0047 
 147   0.0000       1.925318        52.3906 
 148   0.0000       1.935026        52.6547 
 149   0.0000       1.935625        52.6710 
 150   0.0000       1.949838        53.0578 
 151   0.0000       1.961851        53.3847 
 152   0.0000       1.972560        53.6761 
 153   0.0000       1.989345        54.1328 
 154   0.0000       2.018182        54.9175 
 155   0.0000       2.038530        55.4712 
 156   0.0000       2.039804        55.5059 
 157   0.0000       2.064512        56.1782 
 158   0.0000       2.070778        56.3487 
 159   0.0000       2.080497        56.6132 
 160   0.0000       2.114072        57.5268 
 161   0.0000       2.139899        58.2296 
 162   0.0000       2.149493        58.4907 
 163   0.0000       2.163250        58.8650 
 164   0.0000       2.225433        60.5571 
 165   0.0000       2.257157        61.4204 
 166   0.0000       2.265154        61.6380 
 167   0.0000       2.301050        62.6148 
 168   0.0000       2.311328        62.8944 
 169   0.0000       2.335178        63.5434 
 170   0.0000       2.341247        63.7086 
 171   0.0000       2.370705        64.5102 
 172   0.0000       2.408062        65.5267 
 173   0.0000       2.409872        65.5760 
 174   0.0000       2.439928        66.3938 
 175   0.0000       2.454685        66.7954 
 176   0.0000       2.485945        67.6460 
 177   0.0000       2.497916        67.9718 
 178   0.0000       2.510280        68.3082 
 179   0.0000       2.534595        68.9698 
 180   0.0000       2.577774        70.1448 
 181   0.0000       2.581974        70.2591 
 182   0.0000       2.633168        71.6521 
 183   0.0000       2.650543        72.1249 
 184   0.0000       2.663999        72.4911 
 185   0.0000       2.669370        72.6372 
 186   0.0000       2.679008        72.8995 
 187   0.0000       2.710577        73.7585 
 188   0.0000       2.734126        74.3993 
 189   0.0000       2.767357        75.3036 
 190   0.0000       2.788501        75.8790 
 191   0.0000       2.802664        76.2644 
 192   0.0000       2.837599        77.2150 
 193   0.0000       2.887039        78.5603 
 194   0.0000       2.905051        79.0505 
 195   0.0000       2.936321        79.9014 
 196   0.0000       2.943768        80.1040 
 197   0.0000       2.950346        80.2830 
 198   0.0000       2.985286        81.2338 
 199   0.0000       2.999659        81.6249 
 200   0.0000       3.027491        82.3822 
 201   0.0000       3.039779        82.7166 
 202   0.0000       3.061702        83.3132 
 203   0.0000       3.070701        83.5580 
 204   0.0000       3.082941        83.8911 
 205   0.0000       3.103783        84.4582 
 206   0.0000       3.105790        84.5129 
 207   0.0000       3.106542        84.5333 
 208   0.0000       3.117055        84.8194 
 209   0.0000       3.129015        85.1448 
 210   0.0000       3.166692        86.1701 
 211   0.0000       3.192825        86.8812 
 212   0.0000       3.198515        87.0360 
 213   0.0000       3.218775        87.5873 
 214   0.0000       3.250465        88.4497 
 215   0.0000       3.270443        88.9933 
 216   0.0000       3.293616        89.6239 
 217   0.0000       3.312354        90.1337 
 218   0.0000       3.334819        90.7450 
 219   0.0000       3.336703        90.7963 
 220   0.0000       3.354201        91.2725 
 221   0.0000       3.368346        91.6574 
 222   0.0000       3.379513        91.9612 
 223   0.0000       3.402287        92.5809 
 224   0.0000       3.433369        93.4267 
 225   0.0000       3.469601        94.4127 
 226   0.0000       3.471537        94.4653 
 227   0.0000       3.522564        95.8538 
 228   0.0000       3.538442        96.2859 
 229   0.0000       3.547147        96.5228 
 230   0.0000       3.558230        96.8244 
 231   0.0000       3.561084        96.9020 
 232   0.0000       3.581131        97.4475 
 233   0.0000       3.587659        97.6252 
 234   0.0000       3.630232        98.7836 
 235   0.0000       3.658784        99.5606 
 236   0.0000       3.716455       101.1299 
 237   0.0000       3.721460       101.2661 
 238   0.0000       3.726895       101.4140 
 239   0.0000       3.771048       102.6154 
 240   0.0000       3.788853       103.0999 
 241   0.0000       3.823740       104.0493 
 242   0.0000       3.885464       105.7288 
 243   0.0000       3.890991       105.8793 
 244   0.0000       3.975315       108.1738 
 245   0.0000       3.999089       108.8207 
 246   0.0000       4.019825       109.3850 
 247   0.0000       4.023132       109.4750 
 248   0.0000       4.087025       111.2136 
 249   0.0000       4.161421       113.2380 
 250   0.0000       4.271685       116.2385 
 251   0.0000       4.276249       116.3627 
 252   0.0000       4.362264       118.7032 
 253   0.0000       4.396463       119.6338 
 254   0.0000       4.583447       124.7219 
 255   0.0000       4.626419       125.8913 
 256   0.0000       4.718598       128.3996 
 257   0.0000       4.807576       130.8208 
 258   0.0000       4.892411       133.1293 
 259   0.0000       4.942218       134.4846 
 260   0.0000       5.034067       136.9839 
 261   0.0000       5.049797       137.4120 
 262   0.0000       5.083121       138.3188 
 263   0.0000       5.235602       142.4680 
 264   0.0000       5.260411       143.1431 
 265   0.0000       5.279105       143.6517 
 266   0.0000       5.324059       144.8750 
 267   0.0000       5.376207       146.2940 
 268   0.0000       5.395819       146.8277 
 269   0.0000       5.404469       147.0631 
 270   0.0000       5.517784       150.1465 
 271   0.0000       5.550756       151.0437 
 272   0.0000       5.609619       152.6455 
 273   0.0000       5.620726       152.9477 
 274   0.0000       5.803113       157.9107 
 275   0.0000       5.885963       160.1652 
 276   0.0000      21.705508       590.6369 
 277   0.0000      21.872524       595.1816 
 278   0.0000      21.894881       595.7900 
 279   0.0000      21.945809       597.1758 
 280   0.0000      22.496476       612.1602 
 281   0.0000      32.135509       874.4516 
 282   0.0000      32.311555       879.2421 

                    ********************************
                    * MULLIKEN POPULATION ANALYSIS *
                    ********************************

-----------------------
MULLIKEN ATOMIC CHARGES
-----------------------
   0 C :   -0.275632
   1 C :   -0.275641
   2 N :   -0.060716
   3 N :   -0.060716
   4 C :    0.178663
   5 H :    0.176643
   6 H :    0.283069
   7 H :    0.176636
   8 H :    0.283070
   9 C :   -0.415387
  10 C :   -0.415382
  11 H :    0.205656
  12 H :    0.188270
  13 H :    0.205658
  14 H :    0.188268
  15 H :    0.184703
  16 H :    0.184704
  17 H :    0.248134
Sum of atomic charges:    1.0000000

--------------------------------
MULLIKEN REDUCED ORBITAL CHARGES
--------------------------------
  0 C s       :     3.752643  s :     3.752643
      pz      :     0.822201  p :     2.447936
      px      :     0.795861
      py      :     0.829874
      dz2     :     0.013122  d :     0.072256
      dxz     :     0.018393
      dyz     :     0.013273
      dx2y2   :     0.012981
      dxy     :     0.014487
      f0      :     0.000388  f :     0.002796
      f+1     :     0.000633
      f-1     :     0.000288
      f+2     :     0.000501
      f-2     :     0.000272
      f+3     :     0.000343
      f-3     :     0.000373
  1 C s       :     3.752660  s :     3.752660
      pz      :     0.822196  p :     2.447928
      px      :     0.795861
      py      :     0.829871
      dz2     :     0.013122  d :     0.072257
      dxz     :     0.018393
      dyz     :     0.013273
      dx2y2   :     0.012981
      dxy     :     0.014487
      f0      :     0.000388  f :     0.002796
      f+1     :     0.000633
      f-1     :     0.000288
      f+2     :     0.000501
      f-2     :     0.000272
      f+3     :     0.000343
      f-3     :     0.000373
  2 N s       :     3.567298  s :     3.567298
      pz      :     1.158052  p :     3.417857
      px      :     1.226394
      py      :     1.033412
      dz2     :     0.007993  d :     0.072528
      dxz     :     0.013460
      dyz     :     0.020672
      dx2y2   :     0.013455
      dxy     :     0.016948
      f0      :     0.000264  f :     0.003034
      f+1     :     0.000163
      f-1     :     0.000631
      f+2     :     0.000405
      f-2     :     0.000395
      f+3     :     0.000518
      f-3     :     0.000657
  3 N s       :     3.567294  s :     3.567294
      pz      :     1.158054  p :     3.417859
      px      :     1.226394
      py      :     1.033411
      dz2     :     0.007993  d :     0.072530
      dxz     :     0.013459
      dyz     :     0.020673
      dx2y2   :     0.013456
      dxy     :     0.016948
      f0      :     0.000264  f :     0.003034
      f+1     :     0.000163
      f-1     :     0.000631
      f+2     :     0.000405
      f-2     :     0.000395
      f+3     :     0.000518
      f-3     :     0.000657
  4 C s       :     3.261101  s :     3.261101
      pz      :     1.022460  p :     2.412643
      px      :     0.596707
      py      :     0.793476
      dz2     :     0.041938  d :     0.135463
      dxz     :     0.011798
      dyz     :     0.026999
      dx2y2   :     0.027718
      dxy     :     0.027009
      f0      :     0.001455  f :     0.012130
      f+1     :     0.000520
      f-1     :     0.002661
      f+2     :     0.001833
      f-2     :     0.002064
      f+3     :     0.001397
      f-3     :     0.002200
  5 H s       :     0.820181  s :     0.820181
      pz      :     0.001900  p :     0.003176
      px      :     0.000121
      py      :     0.001155
  6 H s       :     0.713330  s :     0.713330
      pz      :     0.000472  p :     0.003601
      px      :     0.002691
      py      :     0.000439
  7 H s       :     0.820188  s :     0.820188
      pz      :     0.001900  p :     0.003176
      px      :     0.000121
      py      :     0.001155
  8 H s       :     0.713329  s :     0.713329
      pz      :     0.000472  p :     0.003601
      px      :     0.002691
      py      :     0.000439
  9 C s       :     3.465475  s :     3.465475
      pz      :     1.031545  p :     2.859191
      px      :     1.034070
      py      :     0.793576
      dz2     :     0.013027  d :     0.085388
      dxz     :     0.013458
      dyz     :     0.019883
      dx2y2   :     0.023271
      dxy     :     0.015750
      f0      :     0.000319  f :     0.005332
      f+1     :     0.000520
      f-1     :     0.001009
      f+2     :     0.000871
      f-2     :     0.000518
      f+3     :     0.001320
      f-3     :     0.000775
 10 C s       :     3.465475  s :     3.465475
      pz      :     1.031546  p :     2.859188
      px      :     1.034073
      py      :     0.793569
      dz2     :     0.013027  d :     0.085387
      dxz     :     0.013457
      dyz     :     0.019883
      dx2y2   :     0.023270
      dxy     :     0.015749
      f0      :     0.000319  f :     0.005332
      f+1     :     0.000520
      f-1     :     0.001009
      f+2     :     0.000871
      f-2     :     0.000518
      f+3     :     0.001320
      f-3     :     0.000775
 11 H s       :     0.783130  s :     0.783130
      pz      :     0.004943  p :     0.011214
      px      :     0.001603
      py      :     0.004668
 12 H s       :     0.800862  s :     0.800862
      pz      :     0.001302  p :     0.010868
      px      :     0.008648
      py      :     0.000917
 13 H s       :     0.783128  s :     0.783128
      pz      :     0.004943  p :     0.011214
      px      :     0.001603
      py      :     0.004668
 14 H s       :     0.800865  s :     0.800865
      pz      :     0.001302  p :     0.010867
      px      :     0.008648
      py      :     0.000917
 15 H s       :     0.801443  s :     0.801443
      pz      :     0.007492  p :     0.013854
      px      :     0.004739
      py      :     0.001623
 16 H s       :     0.801442  s :     0.801442
      pz      :     0.007492  p :     0.013854
      px      :     0.004739
      py      :     0.001623
 17 H s       :     0.729934  s :     0.729934
      pz      :     0.016959  p :     0.021931
      px      :     0.002137
      py      :     0.002836


                     *******************************
                     * LOEWDIN POPULATION ANALYSIS *
                     *******************************

----------------------
LOEWDIN ATOMIC CHARGES
----------------------
   0 C :   -0.189346
   1 C :   -0.189347
   2 N :    0.075446
   3 N :    0.075448
   4 C :   -0.087923
   5 H :    0.168534
   6 H :    0.274312
   7 H :    0.168529
   8 H :    0.274313
   9 C :   -0.405884
  10 C :   -0.405879
  11 H :    0.186773
  12 H :    0.177612
  13 H :    0.186774
  14 H :    0.177611
  15 H :    0.174819
  16 H :    0.174820
  17 H :    0.163391

-------------------------------
LOEWDIN REDUCED ORBITAL CHARGES
-------------------------------
  0 C s       :     3.435810  s :     3.435810
      pz      :     0.819489  p :     2.558220
      px      :     0.881491
      py      :     0.857240
      dz2     :     0.033934  d :     0.185028
      dxz     :     0.040171
      dyz     :     0.040530
      dx2y2   :     0.033702
      dxy     :     0.036692
      f0      :     0.001333  f :     0.010288
      f+1     :     0.002412
      f-1     :     0.000940
      f+2     :     0.001843
      f-2     :     0.000956
      f+3     :     0.001314
      f-3     :     0.001490
  1 C s       :     3.435807  s :     3.435807
      pz      :     0.819488  p :     2.558221
      px      :     0.881494
      py      :     0.857239
      dz2     :     0.033934  d :     0.185030
      dxz     :     0.040171
      dyz     :     0.040530
      dx2y2   :     0.033702
      dxy     :     0.036692
      f0      :     0.001333  f :     0.010289
      f+1     :     0.002412
      f-1     :     0.000940
      f+2     :     0.001843
      f-2     :     0.000956
      f+3     :     0.001314
      f-3     :     0.001490
  2 N s       :     3.117852  s :     3.117852
      pz      :     1.176143  p :     3.580202
      px      :     1.238002
      py      :     1.166057
      dz2     :     0.031156  d :     0.212337
      dxz     :     0.027420
      dyz     :     0.065776
      dx2y2   :     0.042636
      dxy     :     0.045349
      f0      :     0.001053  f :     0.014164
      f+1     :     0.001057
      f-1     :     0.002903
      f+2     :     0.001695
      f-2     :     0.002794
      f+3     :     0.002366
      f-3     :     0.002296
  3 N s       :     3.117850  s :     3.117850
      pz      :     1.176146  p :     3.580203
      px      :     1.238000
      py      :     1.166057
      dz2     :     0.031156  d :     0.212336
      dxz     :     0.027420
      dyz     :     0.065776
      dx2y2   :     0.042635
      dxy     :     0.045348
      f0      :     0.001053  f :     0.014164
      f+1     :     0.001057
      f-1     :     0.002903
      f+2     :     0.001695
      f-2     :     0.002794
      f+3     :     0.002366
      f-3     :     0.002296
  4 C s       :     2.855498  s :     2.855498
      pz      :     1.049740  p :     2.633014
      px      :     0.681892
      py      :     0.901382
      dz2     :     0.143845  d :     0.532482
      dxz     :     0.048294
      dyz     :     0.129506
      dx2y2   :     0.094534
      dxy     :     0.116304
      f0      :     0.005652  f :     0.066929
      f+1     :     0.002870
      f-1     :     0.017315
      f+2     :     0.010296
      f-2     :     0.015048
      f+3     :     0.008350
      f-3     :     0.007397
  5 H s       :     0.826337  s :     0.826337
      pz      :     0.003020  p :     0.005129
      px      :     0.000207
      py      :     0.001902
  6 H s       :     0.719985  s :     0.719985
      pz      :     0.000814  p :     0.005703
      px      :     0.003982
      py      :     0.000908
  7 H s       :     0.826341  s :     0.826341
      pz      :     0.003020  p :     0.005129
      px      :     0.000207
      py      :     0.001902
  8 H s       :     0.719984  s :     0.719984
      pz      :     0.000814  p :     0.005703
      px      :     0.003982
      py      :     0.000908
  9 C s       :     3.053157  s :     3.053157
      pz      :     1.048901  p :     3.026755
      px      :     1.053564
      py      :     0.924290
      dz2     :     0.039194  d :     0.295006
      dxz     :     0.037325
      dyz     :     0.077079
      dx2y2   :     0.079813
      dxy     :     0.061595
      f0      :     0.002585  f :     0.030965
      f+1     :     0.002029
      f-1     :     0.005614
      f+2     :     0.003787
      f-2     :     0.004119
      f+3     :     0.007896
      f-3     :     0.004936
 10 C s       :     3.053157  s :     3.053157
      pz      :     1.048902  p :     3.026755
      px      :     1.053567
      py      :     0.924286
      dz2     :     0.039194  d :     0.295002
      dxz     :     0.037324
      dyz     :     0.077077
      dx2y2   :     0.079812
      dxy     :     0.061594
      f0      :     0.002585  f :     0.030965
      f+1     :     0.002029
      f-1     :     0.005614
      f+2     :     0.003787
      f-2     :     0.004119
      f+3     :     0.007896
      f-3     :     0.004936
 11 H s       :     0.787052  s :     0.787052
      pz      :     0.011974  p :     0.026175
      px      :     0.003824
      py      :     0.010378
 12 H s       :     0.796969  s :     0.796969
      pz      :     0.003012  p :     0.025419
      px      :     0.020491
      py      :     0.001916
 13 H s       :     0.787051  s :     0.787051
      pz      :     0.011974  p :     0.026176
      px      :     0.003824
      py      :     0.010378
 14 H s       :     0.796971  s :     0.796971
      pz      :     0.003012  p :     0.025418
      px      :     0.020491
      py      :     0.001916
 15 H s       :     0.791998  s :     0.791998
      pz      :     0.017812  p :     0.033183
      px      :     0.011607
      py      :     0.003764
 16 H s       :     0.791997  s :     0.791997
      pz      :     0.017812  p :     0.033183
      px      :     0.011607
      py      :     0.003764
 17 H s       :     0.770152  s :     0.770152
      pz      :     0.050134  p :     0.066458
      px      :     0.007155
      py      :     0.009168


                      *****************************
                      * MAYER POPULATION ANALYSIS *
                      *****************************

  NA   - Mulliken gross atomic population
  ZA   - Total nuclear charge
  QA   - Mulliken gross atomic charge
  VA   - Mayer's total valence
  BVA  - Mayer's bonded valence
  FA   - Mayer's free valence

  ATOM       NA         ZA         QA         VA         BVA        FA
  0 C      6.2756     6.0000    -0.2756     3.2322     3.2322    -0.0000
  1 C      6.2756     6.0000    -0.2756     3.2322     3.2322     0.0000
  2 N      7.0607     7.0000    -0.0607     2.9750     2.9750    -0.0000
  3 N      7.0607     7.0000    -0.0607     2.9751     2.9751     0.0000
  4 C      5.8213     6.0000     0.1787     3.8663     3.8663     0.0000
  5 H      0.8234     1.0000     0.1766     0.9578     0.9578    -0.0000
  6 H      0.7169     1.0000     0.2831     0.9109     0.9109     0.0000
  7 H      0.8234     1.0000     0.1766     0.9578     0.9578     0.0000
  8 H      0.7169     1.0000     0.2831     0.9109     0.9109     0.0000
  9 C      6.4154     6.0000    -0.4154     3.7195     3.7195    -0.0000
 10 C      6.4154     6.0000    -0.4154     3.7195     3.7195     0.0000
 11 H      0.7943     1.0000     0.2057     0.9461     0.9461    -0.0000
 12 H      0.8117     1.0000     0.1883     0.9467     0.9467     0.0000
 13 H      0.7943     1.0000     0.2057     0.9461     0.9461    -0.0000
 14 H      0.8117     1.0000     0.1883     0.9467     0.9467    -0.0000
 15 H      0.8153     1.0000     0.1847     0.9522     0.9522    -0.0000
 16 H      0.8153     1.0000     0.1847     0.9522     0.9522     0.0000
 17 H      0.7519     1.0000     0.2481     0.9439     0.9439     0.0000

  Mayer bond orders larger than 0.100000
B(  0-C ,  1-C ) :   0.8064 B(  0-C ,  2-N ) :   0.7264 B(  0-C ,  5-H ) :   0.7861 
B(  0-C ,  8-H ) :   0.7300 B(  1-C ,  3-N ) :   0.7264 B(  1-C ,  6-H ) :   0.7300 
B(  1-C ,  7-H ) :   0.7861 B(  2-N ,  4-C ) :   1.3173 B(  2-N ,  9-C ) :   0.8653 
B(  3-N ,  4-C ) :   1.3174 B(  3-N , 10-C ) :   0.8653 B(  4-C , 17-H ) :   0.8994 
B(  9-C , 11-H ) :   0.9237 B(  9-C , 14-H ) :   0.9163 B(  9-C , 15-H ) :   0.9237 
B( 10-C , 12-H ) :   0.9163 B( 10-C , 13-H ) :   0.9237 B( 10-C , 16-H ) :   0.9237 


-------
TIMINGS
-------

Total SCF time: 0 days 0 hours 1 min 42 sec 

Total time                  ....     102.677 sec
Sum of individual times     ....     102.136 sec  ( 99.5%)

Fock matrix formation       ....     100.206 sec  ( 97.6%)
  Split-RI-J                ....       3.932 sec  (  3.9% of F)
  Chain of spheres X        ....      78.750 sec  ( 78.6% of F)
  XC integration            ....       8.916 sec  (  8.9% of F)
    Basis function eval.    ....       2.178 sec  ( 24.4% of XC)
    Density eval.           ....       2.079 sec  ( 23.3% of XC)
    XC-Functional eval.     ....       0.722 sec  (  8.1% of XC)
    XC-Potential eval.      ....       2.611 sec  ( 29.3% of XC)
Diagonalization             ....       0.189 sec  (  0.2%)
Density matrix formation    ....       0.015 sec  (  0.0%)
Population analysis         ....       0.025 sec  (  0.0%)
Initial guess               ....       0.355 sec  (  0.3%)
Orbital Transformation      ....       0.000 sec  (  0.0%)
Orbital Orthonormalization  ....       0.000 sec  (  0.0%)
DIIS solution               ....       0.113 sec  (  0.1%)
SOSCF solution              ....       0.115 sec  (  0.1%)
Grid generation             ....       1.118 sec  (  1.1%)

Maximum memory used throughout the entire SCF-calculation: 78.5 MB


-------------------------------------------------------------------------------
                          DFT DISPERSION CORRECTION                            
                                                                               
                                 DFTD4 V2.5                                    
-------------------------------------------------------------------------------
The WB97X functional is recognized
Active option DFTDOPT                   ...         5   

Starting D4
-------------------------   ----------------
Dispersion correction           -0.002476162
-------------------------   ----------------


-------------------------   --------------------
FINAL SINGLE POINT ENERGY      -305.408518469829
-------------------------   --------------------



           ************************************************************
           *        Program running with 4 parallel MPI-processes     *
           *              working on a common directory               *
           ************************************************************
------------------------------------------------------------------------------
                         ORCA SCF GRADIENT CALCULATION
------------------------------------------------------------------------------

 ... reading COSX grid (gridx3)
Gradient of the Kohn-Sham DFT energy:
Kohn-Sham wavefunction type      ... RKS
Hartree-Fock exchange scaling    ...    0.158
Number of operators              ...    1
Number of atoms                  ...   18
Basis set dimensions             ...  283
Integral neglect threshold       ... 2.5e-11
Integral primitive cutoff        ... 2.5e-12
SHARK Integral package           ... ON

Nuc. rep. gradient       (SHARK) ... done (  0.0 sec)
HCore & Overlap gradient (SHARK) ... done (  0.2 sec)
RI-J gradient            (SHARK) ... done (  0.9 sec)
COSX-gradient                    ... done ( 13.6 sec)
Exchange-correlation gradient    ... done
Dispersion correction            ... Starting D4
Starting D4
Starting D4
Starting D4


------------------- 
Dispersion Gradient 
------------------- 
   1  :    0.000082916    0.000084162   -0.000029441
   2  :   -0.000082917   -0.000084162   -0.000029442
   3  :   -0.000013512    0.000022514    0.000009776
   4  :    0.000013513   -0.000022514    0.000009777
   5  :   -0.000000000    0.000000001    0.000030660
   6  :    0.000006889    0.000012908   -0.000020721
   7  :   -0.000019036   -0.000001100   -0.000004978
   8  :   -0.000006889   -0.000012908   -0.000020721
   9  :    0.000019036    0.000001100   -0.000004978
  10  :    0.000160002    0.000243033   -0.000050270
  11  :   -0.000160029   -0.000243029   -0.000050269
  12  :    0.000068317   -0.000182314    0.000201729
  13  :    0.000285281   -0.000006510   -0.000047680
  14  :   -0.000068320    0.000182309    0.000201724
  15  :   -0.000285256    0.000006511   -0.000047677
  16  :    0.000056126    0.000010395   -0.000075516
  17  :   -0.000056120   -0.000010396   -0.000075509
  18  :   -0.000000000   -0.000000000    0.000003535

  |G| =    0.000667049

done

------------------
CARTESIAN GRADIENT
------------------

   1   C   :    0.053116728    0.007394076    0.022448283
   2   C   :   -0.053116551   -0.007391248    0.022447751
   3   N   :   -0.142724388    0.019275440    0.016240561
[...]
      9       0.036398  -0.000318   0.000018   0.000071   0.000132   0.000514
     10       0.241044  -0.001405   0.000165   0.000057   0.000032  -0.000205
     11       0.087202  -0.000410  -0.000008   0.001191   0.000572   0.000170
     12      -0.079479   0.000601   0.000036  -0.000390   0.000004  -0.000004
     13      -0.428298   0.002988   0.000181  -0.001970   0.000023   0.000006
     14       0.000073  -0.000014   0.000234   0.000002   0.000202  -0.000236
     15      -0.031842  -0.011430   0.007911   0.459049  -0.500331  -0.236313
     16       0.104087   0.005806  -0.005265  -0.264587   0.289133   0.144371
     17       0.216702  -0.006301   0.001813   0.206483  -0.226782  -0.115192
     18       0.082096   0.005373   0.007799  -0.342546  -0.285526   0.462142
     19       0.084847   0.001107   0.002728  -0.112294  -0.092736   0.165535
     20      -0.203735   0.004165   0.003123  -0.196046  -0.160585   0.276230
     21      -0.031921  -0.010479  -0.009328   0.470720   0.490176   0.237352
     22       0.104027   0.005176   0.005982  -0.271284  -0.283228  -0.144992
     23      -0.216629   0.006081   0.002604  -0.211878  -0.222321  -0.115798
     24       0.082163   0.006240  -0.007034  -0.336746   0.293931  -0.458765
     25       0.084916   0.001417  -0.002554  -0.110413   0.095492  -0.164302
     26       0.203841  -0.004492   0.002564   0.192864  -0.165462   0.274255
     27       0.000969   0.000830   0.000873  -0.000622   0.000905   0.027460
     28      -0.019925  -0.031827  -0.036127  -0.000648  -0.000904  -0.002790
     29       0.010512  -0.003147  -0.003773  -0.000487   0.000140   0.000838
     30       0.000956   0.000969  -0.000803  -0.000645  -0.000898  -0.028932
     31      -0.019914  -0.035991   0.032031  -0.000622   0.000913   0.002938
     32      -0.010502   0.003505  -0.003298   0.000487   0.000130   0.000884
     33      -0.113934  -0.350506  -0.395512  -0.004912  -0.011802  -0.150328
     34      -0.191076   0.256320   0.290101   0.002260   0.010986   0.114594
     35      -0.074475  -0.121669  -0.137062  -0.002523  -0.003110  -0.055037
     36       0.052743   0.362108  -0.320488   0.011118  -0.000699   0.188007
     37      -0.200613   0.152815  -0.135792   0.004193  -0.001097   0.085509
     38       0.081673   0.160030  -0.141404   0.005811   0.000701   0.086986
     39      -0.113921  -0.396200   0.350528  -0.004570   0.011878   0.158289
     40      -0.190974   0.289928  -0.257274   0.001956  -0.011015  -0.120649
     41       0.074471   0.137533  -0.121476   0.002426  -0.003157  -0.057986
     42       0.052790   0.320672   0.361989   0.011162   0.000559  -0.178386
     43      -0.200639   0.135333   0.153381   0.004229   0.001052  -0.081235
     44      -0.081667  -0.141782  -0.159788  -0.005810   0.000783   0.082503
     45       0.000771   0.020963   0.023724   0.000530   0.000399   0.001067
     46       0.004775  -0.008989  -0.009938  -0.001188   0.001045   0.000241
     47       0.015542   0.305137   0.344720   0.010333   0.003518  -0.037974
     48       0.000751   0.023626  -0.020963   0.000516  -0.000406  -0.001148
     49       0.004704  -0.010107   0.008760  -0.001209  -0.001020  -0.000265
     50      -0.015530  -0.343852   0.304561  -0.010175   0.003667  -0.040060
     51       0.086737  -0.000391  -0.000026  -0.000570   0.000001   0.000002
     52       0.472703  -0.001464  -0.000090  -0.000054   0.000001  -0.000002
     53       0.000039   0.000537  -0.008877  -0.000180  -0.016722   0.006859
                 48         49         50         51         52         53    
      0      -0.014960  -0.027206   0.065459  -0.000616  -0.000184   0.000175
      1      -0.000075  -0.000532  -0.001677   0.000156   0.000021   0.000945
      2       0.003085   0.005670  -0.011111   0.000649   0.000009  -0.001560
      3      -0.010176   0.029060   0.065207  -0.000297  -0.000564  -0.000175
      4       0.000030   0.000551  -0.001625   0.000049   0.000149  -0.000945
      5      -0.002069   0.006058   0.011099  -0.000131  -0.000636  -0.001559
      6       0.000247  -0.000120  -0.000273   0.000085  -0.000016   0.000757
      7       0.000042  -0.000207  -0.000022   0.001057  -0.000230   0.003833
      8       0.000042  -0.000062  -0.000071  -0.000233   0.000016  -0.003333
      9       0.000248   0.000088  -0.000274   0.000000   0.000087  -0.000758
     10       0.000071   0.000199  -0.000023  -0.000027   0.001080  -0.003833
     11      -0.000053  -0.000056   0.000071   0.000028   0.000232  -0.003333
     12      -0.000386   0.000024   0.000256   0.000004   0.000003   0.000022
     13       0.000333  -0.000021  -0.000287  -0.000437  -0.000360   0.000001
     14      -0.000005  -0.000134   0.000001   0.001402  -0.001698   0.093104
     15       0.066440   0.115371  -0.312891   0.001573   0.000656   0.005585
     16      -0.039976  -0.071192   0.191067  -0.000392  -0.000489  -0.003582
     17       0.033326   0.054196  -0.149507   0.001299   0.000147   0.002640
     18       0.076386  -0.218778  -0.464040   0.002731   0.006252   0.007112
     19       0.026969  -0.079073  -0.167554   0.001040   0.002817   0.002865
     20       0.047092  -0.129288  -0.276626   0.001745   0.002749   0.004169
     21       0.046306  -0.123502  -0.311223   0.000940   0.001392  -0.005578
     22      -0.027596   0.076077   0.190031  -0.000555  -0.000276   0.003576
     23      -0.023767   0.058314   0.148796  -0.000388  -0.001233   0.002638
     24       0.112553   0.204710  -0.465365   0.006692   0.001492  -0.007111
     25       0.040006   0.074055  -0.168000   0.002976   0.000487  -0.002864
     26      -0.068538  -0.120754   0.277486  -0.003049  -0.001188   0.004170
     27      -0.061676   0.063845  -0.012926   0.007110  -0.000689  -0.000009
     28       0.006647  -0.007010   0.001698   0.024503  -0.002319  -0.000223
     29      -0.002359   0.002746  -0.001196  -0.090447   0.008524   0.001510
     30      -0.068309  -0.056013  -0.012664   0.000649   0.007077   0.000009
     31       0.007355   0.006144   0.001663   0.002297   0.024453   0.000224
     32       0.002629   0.002426   0.001175   0.008532   0.090454   0.001513
     33       0.340497  -0.354082   0.074713   0.198388  -0.018731  -0.000395
     34      -0.257440   0.267074  -0.055088  -0.138623   0.013146  -0.001183
     35       0.125245  -0.130404   0.027917   0.056037  -0.005265  -0.000592
     36       0.438390   0.358364   0.078223  -0.032096  -0.342319  -0.000827
     37       0.196356   0.159900   0.033911  -0.013267  -0.141841   0.000938
     38       0.205211   0.168364   0.037800  -0.013428  -0.142698  -0.001212
     39       0.376922   0.310505   0.073171   0.018641   0.198015   0.000398
     40      -0.284972  -0.234203  -0.053949  -0.012971  -0.138409   0.001181
     41      -0.138717  -0.114414  -0.027357  -0.005291  -0.055929  -0.000593
     42       0.395626  -0.408253   0.079798  -0.343097   0.032528   0.000823
     43       0.177391  -0.182346   0.034631  -0.142233   0.013516  -0.000939
     44      -0.185137   0.191746  -0.038549   0.143080  -0.013517  -0.001210
     45      -0.003353   0.003628  -0.000769   0.058436  -0.005486  -0.001354
     46      -0.001106   0.001342  -0.000580  -0.023679   0.002270  -0.001344
     47       0.087686  -0.093027   0.023914   0.870632  -0.081885  -0.015179
     48      -0.003749  -0.003208  -0.000759   0.005534   0.058433   0.001356
     49      -0.001252  -0.001200  -0.000574  -0.002197  -0.023701   0.001343
     50      -0.097382  -0.081856  -0.023469  -0.082347  -0.871178  -0.015212
     51       0.000061  -0.000000   0.001627  -0.000549  -0.000448  -0.000256
     52      -0.000221   0.000012  -0.000557  -0.000987  -0.000819  -0.000009
     53      -0.000135  -0.001026  -0.000009  -0.012260   0.014857  -0.995256


-----------
IR SPECTRUM
-----------

 Mode   freq       eps      Int      T**2         TX        TY        TZ
       cm**-1   L/(mol*cm) km/mol    a.u.
----------------------------------------------------------------------------
  6:     78.02   0.000000    0.00  0.000001  ( 0.000173  0.000069 -0.001042)
  7:    132.28   0.001037    5.24  0.002446  (-0.048883 -0.007500  0.000003)
  8:    155.92   0.000000    0.00  0.000000  ( 0.000197 -0.000004 -0.000535)
  9:    195.99   0.000629    3.18  0.001001  (-0.031615 -0.001263  0.000001)
 10:    211.25   0.000000    0.00  0.000000  ( 0.000082 -0.000032  0.000655)
 11:    274.10   0.000011    0.05  0.000012  ( 0.000007 -0.000001 -0.003473)
 12:    399.06   0.000206    1.04  0.000161  ( 0.000525 -0.012688  0.000003)
 13:    464.49   0.008609   43.51  0.005784  (-0.075974 -0.003484  0.000009)
 14:    611.46   0.000003    0.02  0.000002  (-0.000008  0.000014  0.001325)
 15:    629.18   0.001831    9.26  0.000908  (-0.004138 -0.029854 -0.000001)
 16:    848.37   0.000136    0.69  0.000050  (-0.001179 -0.006971  0.000001)
 17:    943.03   0.002908   14.69  0.000962  (-0.000037 -0.000098  0.031019)
 18:    959.74   0.002439   12.32  0.000793  (-0.010062 -0.026300 -0.000111)
 19:   1007.40   0.000036    0.18  0.000011  (-0.000002 -0.000002  0.003359)
 20:   1024.11   0.001967    9.94  0.000599  (-0.020948  0.012669  0.000011)
 21:   1109.45   0.000100    0.51  0.000028  (-0.000054 -0.000224 -0.005309)
 22:   1112.53   0.011964   60.46  0.003356  (-0.011760 -0.056723  0.000019)
 23:   1125.86   0.003101   15.67  0.000859  (-0.000009  0.000010 -0.029316)
 24:   1160.53   0.000800    4.04  0.000215  ( 0.005822 -0.013465 -0.000002)
 25:   1174.04   0.000000    0.00  0.000000  (-0.000009 -0.000010  0.000348)
 26:   1193.95   0.025716  129.96  0.006721  (-0.012775 -0.080982  0.000000)
 27:   1232.80   0.003705   18.73  0.000938  ( 0.028744  0.010572  0.000009)
 28:   1263.51   0.000182    0.92  0.000045  ( 0.000053  0.000015 -0.006711)
 29:   1336.67   0.003540   17.89  0.000826  ( 0.000007  0.000073  0.028748)
 30:   1345.90   0.016133   81.53  0.003741  (-0.011103 -0.060144 -0.000014)
 31:   1356.10   0.010754   54.35  0.002475  (-0.005986 -0.049384 -0.000005)
 32:   1384.07   0.006025   30.45  0.001358  (-0.000002 -0.000043  0.036856)
 33:   1459.89   0.012858   64.98  0.002748  ( 0.012625  0.050883 -0.000009)
 34:   1469.57   0.000269    1.36  0.000057  (-0.000120  0.000052  0.007551)
 35:   1470.75   0.008958   45.27  0.001901  (-0.042890  0.007820 -0.000009)
 36:   1471.78   0.000553    2.80  0.000117  ( 0.000049  0.000014  0.010833)
 37:   1489.85   0.006111   30.88  0.001280  ( 0.000003 -0.000007  0.035779)
 38:   1500.47   0.000151    0.76  0.000031  (-0.004186 -0.003733  0.000018)
 39:   1504.76   0.000043    0.22  0.000009  ( 0.002868 -0.000859  0.000001)
 40:   1515.55   0.000001    0.00  0.000000  ( 0.000010  0.000004 -0.000380)
 41:   1615.95   0.007709   38.96  0.001489  (-0.000011 -0.000028 -0.038584)
 42:   1737.78   0.156579  791.29  0.028118  (-0.026894 -0.165513  0.000010)
 43:   3077.60   0.015297   77.30  0.001551  (-0.002484 -0.039304  0.000298)
 44:   3078.71   0.000305    1.54  0.000031  (-0.000158 -0.002383 -0.005020)
 45:   3101.50   0.004538   22.93  0.000457  (-0.005124  0.020743  0.000226)
 46:   3105.30   0.004212   21.29  0.000423  ( 0.000044 -0.000239  0.020572)
 47:   3152.19   0.000265    1.34  0.000026  (-0.000302  0.000004 -0.005116)
 48:   3155.89   0.006730   34.01  0.000665  (-0.025711  0.002086  0.000223)
 49:   3157.24   0.000102    0.51  0.000010  ( 0.001590 -0.000132  0.002742)
 50:   3167.60   0.001548    7.82  0.000153  ( 0.012351 -0.000066 -0.000002)
 51:   3188.46   0.000997    5.04  0.000098  ( 0.001523  0.006250 -0.007496)
 52:   3188.51   0.001126    5.69  0.000110  ( 0.001253  0.005145  0.009063)
 53:   3255.92   0.002224   11.24  0.000213  (-0.000007  0.000001 -0.014601)

* The epsilon (eps) is given for a Dirac delta lineshape.
** The dipole moment derivative (T) already includes vibrational overlap.

The first frequency considered to be a vibration is 6
The total number of vibrations considered is 48


--------------------------
THERMOCHEMISTRY AT 298.15K
--------------------------

Temperature         ... 298.15 K
Pressure            ... 1.00 atm
Total Mass          ... 99.16 AMU

Throughout the following assumptions are being made:
  (1) The electronic state is orbitally nondegenerate
  (2) There are no thermally accessible electronically excited states
  (3) Hindered rotations indicated by low frequency modes are not
      treated as such but are treated as vibrations and this may
      cause some error
  (4) All equations used are the standard statistical mechanics
      equations for an ideal gas
  (5) All vibrations are strictly harmonic

freq.      78.02  E(vib)   ...       0.49 
freq.     132.28  E(vib)   ...       0.42 
freq.     155.92  E(vib)   ...       0.40 
freq.     195.99  E(vib)   ...       0.36 
freq.     211.25  E(vib)   ...       0.34 
freq.     274.10  E(vib)   ...       0.28 
freq.     399.06  E(vib)   ...       0.19 
freq.     464.49  E(vib)   ...       0.16 
freq.     611.46  E(vib)   ...       0.10 
freq.     629.18  E(vib)   ...       0.09 
freq.     848.37  E(vib)   ...       0.04 
freq.     943.03  E(vib)   ...       0.03 
freq.     959.74  E(vib)   ...       0.03 
freq.    1007.40  E(vib)   ...       0.02 
freq.    1024.11  E(vib)   ...       0.02 
freq.    1109.45  E(vib)   ...       0.02 
freq.    1112.53  E(vib)   ...       0.01 
freq.    1125.86  E(vib)   ...       0.01 
freq.    1160.53  E(vib)   ...       0.01 
freq.    1174.04  E(vib)   ...       0.01 
freq.    1193.95  E(vib)   ...       0.01 
freq.    1232.80  E(vib)   ...       0.01 
freq.    1263.51  E(vib)   ...       0.01 
freq.    1336.67  E(vib)   ...       0.01 
freq.    1345.90  E(vib)   ...       0.01 
freq.    1356.10  E(vib)   ...       0.01 
freq.    1384.07  E(vib)   ...       0.00 
freq.    1459.89  E(vib)   ...       0.00 
freq.    1469.57  E(vib)   ...       0.00 
freq.    1470.75  E(vib)   ...       0.00 
freq.    1471.78  E(vib)   ...       0.00 
freq.    1489.85  E(vib)   ...       0.00 
freq.    1500.47  E(vib)   ...       0.00 
freq.    1504.76  E(vib)   ...       0.00 
freq.    1515.55  E(vib)   ...       0.00 
freq.    1615.95  E(vib)   ...       0.00 
freq.    1737.78  E(vib)   ...       0.00 
freq.    3077.60  E(vib)   ...       0.00 
freq.    3078.71  E(vib)   ...       0.00 
freq.    3101.50  E(vib)   ...       0.00 
freq.    3105.30  E(vib)   ...       0.00 
freq.    3152.19  E(vib)   ...       0.00 
freq.    3155.89  E(vib)   ...       0.00 
freq.    3157.24  E(vib)   ...       0.00 
freq.    3167.60  E(vib)   ...       0.00 
freq.    3188.46  E(vib)   ...       0.00 
freq.    3188.51  E(vib)   ...       0.00 
freq.    3255.92  E(vib)   ...       0.00 

------------
INNER ENERGY
------------

The inner energy is: U= E(el) + E(ZPE) + E(vib) + E(rot) + E(trans)
    E(el)   - is the total energy from the electronic structure calculation
              = E(kin-el) + E(nuc-el) + E(el-el) + E(nuc-nuc)
    E(ZPE)  - the the zero temperature vibrational energy from the frequency calculation
    E(vib)  - the the finite temperature correction to E(ZPE) due to population
              of excited vibrational states
    E(rot)  - is the rotational thermal energy
    E(trans)- is the translational thermal energy

Summary of contributions to the inner energy U:
Electronic energy                ...   -306.54764011 Eh
Zero point energy                ...      0.16538378 Eh     103.78 kcal/mol
Thermal vibrational correction   ...      0.00496948 Eh       3.12 kcal/mol
Thermal rotational correction    ...      0.00141627 Eh       0.89 kcal/mol
Thermal translational correction ...      0.00141627 Eh       0.89 kcal/mol
-----------------------------------------------------------------------
Total thermal energy                   -306.37445431 Eh


Summary of corrections to the electronic energy:
(perhaps to be used in another calculation)
Total thermal correction                  0.00780202 Eh       4.90 kcal/mol
Non-thermal (ZPE) correction              0.16538378 Eh     103.78 kcal/mol
-----------------------------------------------------------------------
Total correction                          0.17318580 Eh     108.68 kcal/mol


--------
ENTHALPY
--------

The enthalpy is H = U + kB*T
                kB is Boltzmann's constant
Total free energy                 ...   -306.37445431 Eh 
Thermal Enthalpy correction       ...      0.00094421 Eh       0.59 kcal/mol
-----------------------------------------------------------------------
Total Enthalpy                    ...   -306.37351010 Eh


Note: Only C1 symmetry has been detected, increase convergence thresholds 
      if your molecule has a higher symmetry. Symmetry factor of 1.0 is   
      used for the rotational entropy correction. 
 

Note: Rotational entropy computed according to Herzberg 
Infrared and Raman Spectra, Chapter V,1, Van Nostrand Reinhold, 1945 
Point Group:  C1, Symmetry Number:   1  
Rotational constants in cm-1:     0.192070     0.066892     0.051572 

Vibrational entropy computed according to the QRRHO of S. Grimme
Chem.Eur.J. 2012 18 9955


-------
ENTROPY
-------

The entropy contributions are T*S = T*(S(el)+S(vib)+S(rot)+S(trans))
     S(el)   - electronic entropy
     S(vib)  - vibrational entropy
     S(rot)  - rotational entropy
     S(trans)- translational entropy
The entropies will be listed as multiplied by the temperature to get
units of energy

Electronic entropy                ...      0.00000000 Eh      0.00 kcal/mol
Vibrational entropy               ...      0.00865889 Eh      5.43 kcal/mol
Rotational entropy                ...      0.01296620 Eh      8.14 kcal/mol
Translational entropy             ...      0.01885925 Eh     11.83 kcal/mol
-----------------------------------------------------------------------
Final entropy term                ...      0.04048434 Eh     25.40 kcal/mol

In case the symmetry of your molecule has not been determined correctly
or in case you have a reason to use a different symmetry number we print 
out the resulting rotational entropy values for sn=1,12 :
 --------------------------------------------------------
|  sn= 1 | S(rot)=       0.01296620 Eh      8.14 kcal/mol|
|  sn= 2 | S(rot)=       0.01231174 Eh      7.73 kcal/mol|
|  sn= 3 | S(rot)=       0.01192891 Eh      7.49 kcal/mol|
|  sn= 4 | S(rot)=       0.01165729 Eh      7.32 kcal/mol|
|  sn= 5 | S(rot)=       0.01144660 Eh      7.18 kcal/mol|
|  sn= 6 | S(rot)=       0.01127445 Eh      7.07 kcal/mol|
|  sn= 7 | S(rot)=       0.01112891 Eh      6.98 kcal/mol|
|  sn= 8 | S(rot)=       0.01100283 Eh      6.90 kcal/mol|
|  sn= 9 | S(rot)=       0.01089162 Eh      6.83 kcal/mol|
|  sn=10 | S(rot)=       0.01079214 Eh      6.77 kcal/mol|
|  sn=11 | S(rot)=       0.01070215 Eh      6.72 kcal/mol|
|  sn=12 | S(rot)=       0.01062000 Eh      6.66 kcal/mol|
 --------------------------------------------------------


-------------------
GIBBS FREE ENERGY
-------------------

The Gibbs free energy is G = H - T*S

Total enthalpy                    ...   -306.37351010 Eh 
Total entropy correction          ...     -0.04048434 Eh    -25.40 kcal/mol
-----------------------------------------------------------------------
Final Gibbs free energy         ...   -306.41399444 Eh

For completeness - the Gibbs free energy minus the electronic energy
G-E(el)                           ...      0.13364566 Eh     83.86 kcal/mol


Timings for individual modules:

Sum of individual times         ...     5948.210 sec (=  99.137 min)
GTO integral calculation        ...       35.634 sec (=   0.594 min)   0.6 %
SCF iterations                  ...     4216.796 sec (=  70.280 min)  70.9 %
SCF Gradient evaluation         ...     1099.639 sec (=  18.327 min)  18.5 %
Geometry relaxation             ...        2.732 sec (=   0.046 min)   0.0 %
Analytical frequency calculation...      593.410 sec (=   9.890 min)  10.0 %
                             ****ORCA TERMINATED NORMALLY****
TOTAL RUN TIME: 0 days 1 hours 39 minutes 31 seconds 263 msec
