21
	Energy:      33.4760743
N         -1.95426       -0.59198        0.33115
C         -1.01237       -1.61376       -0.04603
N          0.17755       -0.86366       -0.36609
C         -0.07853        0.52482       -0.17842
C         -1.33921        0.67757        0.23330
C         -3.31528       -0.84036        0.74396
C          1.40241       -1.49753       -0.80332
H         -3.53194       -1.92970        0.72921
H         -4.01589       -0.32697        0.05266
H         -3.46938       -0.45899        1.77504
H          1.75498       -2.19926       -0.01868
H          2.20991       -0.77239       -1.00396
H          1.20999       -2.06762       -1.73626
C          0.89593        1.65431       -0.40104
C         -2.03658        1.97238        0.55382
H         -1.37420        2.85016        0.41092
H         -2.37422        1.95645        1.61070
H         -2.91959        2.08819       -0.10810
H          1.88848        1.31325       -0.74211
H          1.03805        2.21238        0.54807
H          0.49242        2.34418       -1.17156
