
                                 *****************
                                 * O   R   C   A *
                                 *****************

                                            #,                                       
                                            ###                                      
                                            ####                                     
                                            #####                                    
                                            ######                                   
                                           ########,                                 
                                     ,,################,,,,,                         
                               ,,#################################,,                 
                          ,,##########################################,,             
                       ,#########################################, ''#####,          
                    ,#############################################,,   '####,        
                  ,##################################################,,,,####,       
                ,###########''''           ''''###############################       
              ,#####''   ,,,,##########,,,,          '''####'''          '####       
            ,##' ,,,,###########################,,,                        '##       
           ' ,,###''''                  '''############,,,                           
         ,,##''                                '''############,,,,        ,,,,,,###''
      ,#''                                            '''#######################'''  
     '                                                          ''''####''''         
             ,#######,   #######,   ,#######,      ##                                
            ,#'     '#,  ##    ##  ,#'     '#,    #''#        ######   ,####,        
            ##       ##  ##   ,#'  ##            #'  '#       #        #'  '#        
            ##       ##  #######   ##           ,######,      #####,   #    #        
            '#,     ,#'  ##    ##  '#,     ,#' ,#      #,         ##   #,  ,#        
             '#######'   ##     ##  '#######'  #'      '#     #####' # '####'        



                  #######################################################
                  #                        -***-                        #
                  #          Department of theory and spectroscopy      #
                  #    Directorship and core code : Frank Neese         #
                  #        Max Planck Institute fuer Kohlenforschung    #
                  #                Kaiser Wilhelm Platz 1               #
                  #                 D-45470 Muelheim/Ruhr               #
                  #                      Germany                        #
                  #                                                     #
                  #                  All rights reserved                #
                  #                        -***-                        #
                  #######################################################


                         Program Version 5.0.3 -  RELEASE  -


 With contributions from (in alphabetic order):
   Daniel Aravena         : Magnetic Suceptibility
   Michael Atanasov       : Ab Initio Ligand Field Theory (pilot matlab implementation)
   Alexander A. Auer      : GIAO ZORA, VPT2 properties, NMR spectrum
   Ute Becker             : Parallelization
   Giovanni Bistoni       : ED, misc. LED, open-shell LED, HFLD
   Martin Brehm           : Molecular dynamics
   Dmytro Bykov           : SCF Hessian
   Vijay G. Chilkuri      : MRCI spin determinant printing, contributions to CSF-ICE
   Dipayan Datta          : RHF DLPNO-CCSD density
   Achintya Kumar Dutta   : EOM-CC, STEOM-CC
   Dmitry Ganyushin       : Spin-Orbit,Spin-Spin,Magnetic field MRCI
   Miquel Garcia          : C-PCM and meta-GGA Hessian, CC/C-PCM, Gaussian charge scheme
   Yang Guo               : DLPNO-NEVPT2, F12-NEVPT2, CIM, IAO-localization
   Andreas Hansen         : Spin unrestricted coupled pair/coupled cluster methods
   Benjamin Helmich-Paris : MC-RPA, TRAH-SCF, COSX integrals
   Lee Huntington         : MR-EOM, pCC
   Robert Izsak           : Overlap fitted RIJCOSX, COSX-SCS-MP3, EOM
   Marcus Kettner         : VPT2
   Christian Kollmar      : KDIIS, OOCD, Brueckner-CCSD(T), CCSD density, CASPT2, CASPT2-K
   Simone Kossmann        : Meta GGA functionals, TD-DFT gradient, OOMP2, MP2 Hessian
   Martin Krupicka        : Initial AUTO-CI
   Lucas Lang             : DCDCAS
   Marvin Lechner         : AUTO-CI (C++ implementation), FIC-MRCC
   Dagmar Lenk            : GEPOL surface, SMD
   Dimitrios Liakos       : Extrapolation schemes; Compound Job, initial MDCI parallelization
   Dimitrios Manganas     : Further ROCIS development; embedding schemes
   Dimitrios Pantazis     : SARC Basis sets
   Anastasios Papadopoulos: AUTO-CI, single reference methods and gradients
   Taras Petrenko         : DFT Hessian,TD-DFT gradient, ASA, ECA, R-Raman, ABS, FL, XAS/XES, NRVS
   Peter Pinski           : DLPNO-MP2, DLPNO-MP2 Gradient
   Christoph Reimann      : Effective Core Potentials
   Marius Retegan         : Local ZFS, SOC
   Christoph Riplinger    : Optimizer, TS searches, QM/MM, DLPNO-CCSD(T), (RO)-DLPNO pert. Triples
   Tobias Risthaus        : Range-separated hybrids, TD-DFT gradient, RPA, STAB
   Michael Roemelt        : Original ROCIS implementation
   Masaaki Saitow         : Open-shell DLPNO-CCSD energy and density
   Barbara Sandhoefer     : DKH picture change effects
   Avijit Sen             : IP-ROCIS
   Kantharuban Sivalingam : CASSCF convergence, NEVPT2, FIC-MRCI
   Bernardo de Souza      : ESD, SOC TD-DFT
   Georgi Stoychev        : AutoAux, RI-MP2 NMR, DLPNO-MP2 response
   Willem Van den Heuvel  : Paramagnetic NMR
   Boris Wezisla          : Elementary symmetry handling
   Frank Wennmohs         : Technical directorship


 We gratefully acknowledge several colleagues who have allowed us to
 interface, adapt or use parts of their codes:
   Stefan Grimme, W. Hujo, H. Kruse, P. Pracht,  : VdW corrections, initial TS optimization,
                  C. Bannwarth, S. Ehlert          DFT functionals, gCP, sTDA/sTD-DF
   Ed Valeev, F. Pavosevic, A. Kumar             : LibInt (2-el integral package), F12 methods
   Garnet Chan, S. Sharma, J. Yang, R. Olivares  : DMRG
   Ulf Ekstrom                                   : XCFun DFT Library
   Mihaly Kallay                                 : mrcc  (arbitrary order and MRCC methods)
   Jiri Pittner, Ondrej Demel                    : Mk-CCSD
   Frank Weinhold                                : gennbo (NPA and NBO analysis)
   Christopher J. Cramer and Donald G. Truhlar   : smd solvation model
   Lars Goerigk                                  : TD-DFT with DH, B97 family of functionals
   V. Asgeirsson, H. Jonsson                     : NEB implementation
   FAccTs GmbH                                   : IRC, NEB, NEB-TS, DLPNO-Multilevel, CI-OPT
                                                   MM, QMMM, 2- and 3-layer-ONIOM, Crystal-QMMM,
                                                   LR-CPCM, SF, NACMEs, symmetry and pop. for TD-DFT,
                                                   nearIR, NL-DFT gradient (VV10), updates on ESD,
                                                   ML-optimized integration grids
   S Lehtola, MJT Oliveira, MAL Marques          : LibXC Library
   Liviu Ungur et al                             : ANISO software


 Your calculation uses the libint2 library for the computation of 2-el integrals
 For citations please refer to: http://libint.valeyev.net

 Your ORCA version has been built with support for libXC version: 5.1.0
 For citations please refer to: https://tddft.org/programs/libxc/

 This ORCA versions uses:
   CBLAS   interface :  Fast vector & matrix operations
   LAPACKE interface :  Fast linear algebra routines
   SCALAPACK package :  Parallel linear algebra routines
   Shared memory     :  Shared parallel matrices
   BLAS/LAPACK       :  OpenBLAS 0.3.15  USE64BITINT DYNAMIC_ARCH NO_AFFINITY SkylakeX SINGLE_THREADED
        Core in use  :  SkylakeX
   Copyright (c) 2011-2014, The OpenBLAS Project


Your calculation utilizes the atom-pairwise dispersion correction
based on tight binding partial charges (D4)
Cite in your paper:
E.Caldeweyher, C.Bannwarth, S.Grimme, J.Chem.Phys., (2017), 147, 034112.
E.Caldeweyher, S.Ehlert, A.Hansen, H.Neugebauer, S.Grimme, J.Chem.Phys., (2018), in progress.
   

XCFun DFT library Copyright 2009-2010 Ulf Ekstrom and contributors.
See http://admol.org/xcfun for more information.
This is free software; see the source code for copying conditions.
There is ABSOLUTELY NO WARRANTY; not even for MERCHANTABILITY or FITNESS FOR A PARTICULAR PURPOSE.
For details see the documentation.
Scientific users of this library should cite U. Ekstrom, L. Visscher, R. Bast, A. J. Thorvaldsen and K. Ruud;
J.Chem.Theor.Comp. 2010, DOI: 10.1021/ct100117s
XCFun Version 0.99 

================================================================================

----- Orbital basis set information -----
Your calculation utilizes the basis: def2-SVP
   F. Weigend and R. Ahlrichs, Phys. Chem. Chem. Phys. 7, 3297 (2005).

----- AuxJ basis set information -----
Your calculation utilizes the auxiliary basis: def2/J
   F. Weigend, Phys. Chem. Chem. Phys. 8, 1057 (2006).

================================================================================
                                        WARNINGS
                       Please study these warnings very carefully!
================================================================================


WARNING: Geometry Optimization
  ===> : Switching off AutoStart
         For restart on a previous wavefunction, please use MOREAD

INFO   : the flag for use of the SHARK integral package has been found!

================================================================================
                                       INPUT FILE
================================================================================
NAME = Min_93.inp
|  1> ! Opt FREQ wB97X D4 Def2-SVP SlowConv TightSCF DEFGRID2 Def2/J RIJCOSX
|  2> %MAXCORE 4000
|  3> %scf MaxIter 20000 end
|  4> %geom
|  5> MaxIter 500
|  6> end
|  7> %PAL NPROCS 8 END
|  8> 
|  9> * xyz 0 1
| 10> C 0.21374 0.6665 -1.19315
| 11> C 0.08238 -0.65893 -1.18301
| 12> N 0.06264 1.07587 0.10556
| 13> N -0.11163 -1.07537 0.14808
| 14> C 0.01283 -0.00054 0.97042
| 15> H 0.26521 1.31927 -2.04251
| 16> H 0.25386 -1.40502 -1.92937
| 17> C 0.11374 2.45591 0.52619
| 18> C -0.33392 -2.45497 0.57021
| 19> H -0.00737 3.11212 -0.33468
| 20> H -0.97748 -2.95781 -0.193
| 21> H 0.6252 -3.06108 0.68527
| 22> H 1.11713 2.62337 0.99629
| 23> H -0.68029 2.68346 1.26108
| 24> H -0.86475 -2.41845 1.55738
| 25> **                         ****END OF INPUT****
================================================================================

                       *****************************
                       * Geometry Optimization Run *
                       *****************************

Geometry optimization settings:
Update method            Update   .... BFGS
Choice of coordinates    CoordSys .... Z-matrix Internals
Initial Hessian          InHess   .... Almoef's Model

Convergence Tolerances:
Energy Change            TolE     ....  5.0000e-06 Eh
Max. Gradient            TolMAXG  ....  3.0000e-04 Eh/bohr
RMS Gradient             TolRMSG  ....  1.0000e-04 Eh/bohr
Max. Displacement        TolMAXD  ....  4.0000e-03 bohr
RMS Displacement         TolRMSD  ....  2.0000e-03 bohr
Strict Convergence                ....  False
------------------------------------------------------------------------------
                        ORCA OPTIMIZATION COORDINATE SETUP
------------------------------------------------------------------------------

The optimization will be done in new redundant internal coordinates
Making redundant internal coordinates   ...  (new redundants) done
Evaluating the initial hessian          ...  (Almloef) done
Evaluating the coordinates              ...  done
Calculating the B-matrix                .... done
Calculating the G-matrix                .... done
Diagonalizing the G-matrix              .... done
The first mode is                       ....   29
The number of degrees of freedom        ....   39

    -----------------------------------------------------------------
                    Redundant Internal Coordinates


    -----------------------------------------------------------------
         Definition                    Initial Value    Approx d2E/dq
    -----------------------------------------------------------------
      1. B(C   1,C   0)                  1.3320         0.773276   
      2. B(N   2,C   0)                  1.3701         0.602129   
      3. B(N   3,C   1)                  1.4081         0.523518   
      4. B(C   4,N   3)                  1.3590         0.627001   
      5. B(C   4,N   2)                  1.3817         0.576902   
      6. B(H   5,C   0)                  1.0725         0.384067   
      7. B(H   6,C   1)                  1.0692         0.388748   
      8. B(C   7,N   2)                  1.4436         0.459538   
      9. B(C   8,N   3)                  1.4598         0.433088   
     10. B(H   9,C   7)                  1.0892         0.361148   
     11. B(H  10,C   8)                  1.1178         0.325124   
     12. B(H  11,C   8)                  1.1404         0.299232   
     13. B(H  12,C   7)                  1.1206         0.321768   
     14. B(H  13,C   7)                  1.1056         0.340058   
     15. B(H  14,C   8)                  1.1214         0.320826   
     16. A(C   1,C   0,N   2)          106.2148         0.446400   
     17. A(N   2,C   0,H   5)          125.0405         0.352830   
     18. A(C   1,C   0,H   5)          128.0569         0.370516   
     19. A(N   3,C   1,H   6)          118.3988         0.345309   
     20. A(C   0,C   1,N   3)          108.3651         0.435260   
     21. A(C   0,C   1,H   6)          132.3201         0.371289   
     22. A(C   4,N   2,C   7)          124.3069         0.401035   
     23. A(C   0,N   2,C   4)          111.3791         0.420717   
     24. A(C   0,N   2,C   7)          123.9128         0.404073   
     25. A(C   4,N   3,C   8)          125.9028         0.402734   
     26. A(C   1,N   3,C   8)          125.0179         0.390184   
     27. A(C   1,N   3,C   4)          108.9941         0.416493   
     28. A(N   2,C   4,N   3)          103.9266         0.423770   
     29. A(N   2,C   7,H   9)          109.9808         0.333744   
     30. A(H  12,C   7,H  13)          109.4789         0.283229   
     31. A(H   9,C   7,H  13)          108.7538         0.288371   
     32. A(N   2,C   7,H  13)          111.4080         0.330433   
     33. A(H   9,C   7,H  12)          109.9428         0.285892   
     34. A(N   2,C   7,H  12)          107.2639         0.327431   
     35. A(N   3,C   8,H  10)          108.3831         0.324806   
     36. A(H  11,C   8,H  14)          109.0623         0.277562   
     37. A(H  10,C   8,H  14)          110.0690         0.281137   
     38. A(N   3,C   8,H  14)          107.2090         0.324097   
     39. A(H  10,C   8,H  11)          108.3012         0.278130   
     40. A(N   3,C   8,H  11)          113.7913         0.320418   
     41. D(H   6,C   1,C   0,H   5)     18.8882         0.042903   
     42. D(N   3,C   1,C   0,N   2)     -1.8060         0.042903   
     43. D(N   3,C   1,C   0,H   5)   -172.5766         0.042903   
     44. D(H   6,C   1,C   0,N   2)   -170.3411         0.042903   
     45. D(C   7,N   2,C   0,C   1)   -178.9550         0.029229   
     46. D(C   4,N   2,C   0,H   5)    179.1778         0.029229   
     47. D(C   7,N   2,C   0,H   5)     -7.8281         0.029229   
     48. D(C   4,N   2,C   0,C   1)      8.0509         0.029229   
     49. D(C   8,N   3,C   1,H   6)    -11.4292         0.021741   
     50. D(C   4,N   3,C   1,H   6)    165.3737         0.021741   
     51. D(C   8,N   3,C   1,C   0)    178.1885         0.021741   
     52. D(C   4,N   3,C   1,C   0)     -5.0087         0.021741   
     53. D(N   2,C   4,N   3,C   1)      9.4218         0.028891   
     54. D(N   3,C   4,N   2,C   7)    176.1436         0.024190   
     55. D(N   3,C   4,N   2,C   0)    -10.8952         0.024190   
     56. D(N   2,C   4,N   3,C   8)   -173.8108         0.028891   
     57. D(H  13,C   7,N   2,C   4)    -50.6765         0.018026   
     58. D(H  13,C   7,N   2,C   0)    137.2267         0.018026   
     59. D(H  12,C   7,N   2,C   4)     69.1193         0.018026   
     60. D(H  12,C   7,N   2,C   0)   -102.9775         0.018026   
     61. D(H   9,C   7,N   2,C   4)   -171.3399         0.018026   
     62. D(H   9,C   7,N   2,C   0)     16.5633         0.018026   
     63. D(H  14,C   8,N   3,C   4)     27.1420         0.015992   
     64. D(H  14,C   8,N   3,C   1)   -156.5909         0.015992   
     65. D(H  11,C   8,N   3,C   4)    -93.5355         0.015992   
     66. D(H  11,C   8,N   3,C   1)     82.7316         0.015992   
     67. D(H  10,C   8,N   3,C   4)    145.9243         0.015992   
     68. D(H  10,C   8,N   3,C   1)    -37.8086         0.015992   
    -----------------------------------------------------------------

Number of atoms                         .... 15
Number of degrees of freedom            .... 68

         *************************************************************
         *                GEOMETRY OPTIMIZATION CYCLE   1            *
         *************************************************************
---------------------------------
CARTESIAN COORDINATES (ANGSTROEM)
---------------------------------
  C      0.213740    0.666500   -1.193150
  C      0.082380   -0.658930   -1.183010
  N      0.062640    1.075870    0.105560
  N     -0.111630   -1.075370    0.148080
  C      0.012830   -0.000540    0.970420
  H      0.265210    1.319270   -2.042510
  H      0.253860   -1.405020   -1.929370
  C      0.113740    2.455910    0.526190
  C     -0.333920   -2.454970    0.570210
  H     -0.007370    3.112120   -0.334680
  H     -0.977480   -2.957810   -0.193000
  H      0.625200   -3.061080    0.685270
  H      1.117130    2.623370    0.996290
  H     -0.680290    2.683460    1.261080
  H     -0.864750   -2.418450    1.557380

----------------------------
CARTESIAN COORDINATES (A.U.)
----------------------------
  NO LB      ZA    FRAG     MASS         X           Y           Z
   0 C     6.0000    0    12.011    0.403910    1.259502   -2.254727
   1 C     6.0000    0    12.011    0.155676   -1.245197   -2.235565
   2 N     7.0000    0    14.007    0.118372    2.033100    0.199479
   3 N     7.0000    0    14.007   -0.210950   -2.032155    0.279831
   4 C     6.0000    0    12.011    0.024245   -0.001020    1.833828
   5 H     1.0000    0     1.008    0.501174    2.493059   -3.859785
   6 H     1.0000    0     1.008    0.479726   -2.655103   -3.645981
   7 C     6.0000    0    12.011    0.214937    4.640997    0.994355
   8 C     6.0000    0    12.011   -0.631017   -4.639221    1.077541
   9 H     1.0000    0     1.008   -0.013927    5.881054   -0.632454
  10 H     1.0000    0     1.008   -1.847170   -5.589451   -0.364717
  11 H     1.0000    0     1.008    1.181457   -5.784603    1.294973
  12 H     1.0000    0     1.008    2.111070    4.957451    1.882715
  13 H     1.0000    0     1.008   -1.285562    5.071004    2.383096
  14 H     1.0000    0     1.008   -1.634141   -4.570208    2.943022

--------------------------------
INTERNAL COORDINATES (ANGSTROEM)
--------------------------------
 C      0   0   0     0.000000000000     0.00000000     0.00000000
 C      1   0   0     1.331962069317     0.00000000     0.00000000
 N      1   2   0     1.370059367692   106.21478446     0.00000000
 N      2   1   3     1.408141591531   108.36510276   358.19401715
 C      4   2   1     1.359041167920   108.99407228   354.99132321
 H      1   2   3     1.072459902933   128.05687548   189.22936617
 H      2   1   3     1.069162722929   132.32012362   189.65886720
 C      3   1   2     1.443624330808   123.91275430   181.04496903
 C      4   2   1     1.459761193141   125.01786049   178.18850816
 H      8   3   1     1.089209049311   109.98077316    16.56327305
 H      9   4   2     1.117813510072   108.38311806   322.19139452
 H      9   4   2     1.140403134904   113.79128978    82.73163652
 H      8   3   1     1.120637476484   107.26387013   257.02249160
 H      8   3   1     1.105588510930   111.40797086   137.22671508
 H      9   4   2     1.121436047307   107.20903817   203.40909856

---------------------------
INTERNAL COORDINATES (A.U.)
---------------------------
 C      0   0   0     0.000000000000     0.00000000     0.00000000
 C      1   0   0     2.517043531781     0.00000000     0.00000000
 N      1   2   0     2.589036992151   106.21478446     0.00000000
 N      2   1   3     2.661001965778   108.36510276   358.19401715
 C      4   2   1     2.568215612092   108.99407228   354.99132321
 H      1   2   3     2.026655506156   128.05687548   189.22936617
 H      2   1   3     2.020424738932   132.32012362   189.65886720
 C      3   1   2     2.728054625492   123.91275430   181.04496903
 C      4   2   1     2.758548875962   125.01786049   178.18850816
 H      8   3   1     2.058306805786   109.98077316    16.56327305
 H      9   4   2     2.112361402834   108.38311806   322.19139452
 H      9   4   2     2.155049607235   113.79128978    82.73163652
 H      8   3   1     2.117697925963   107.26387013   257.02249160
 H      8   3   1     2.089259502467   111.40797086   137.22671508
 H      9   4   2     2.119207006118   107.20903817   203.40909856

---------------------
BASIS SET INFORMATION
---------------------
There are 3 groups of distinct atoms

 Group   1 Type C   : 7s4p1d contracted to 3s2p1d pattern {511/31/1}
 Group   2 Type N   : 7s4p1d contracted to 3s2p1d pattern {511/31/1}
 Group   3 Type H   : 4s1p contracted to 2s1p pattern {31/1}

Atom   0C    basis set group =>   1
Atom   1C    basis set group =>   1
Atom   2N    basis set group =>   2
Atom   3N    basis set group =>   2
Atom   4C    basis set group =>   1
Atom   5H    basis set group =>   3
Atom   6H    basis set group =>   3
Atom   7C    basis set group =>   1
Atom   8C    basis set group =>   1
Atom   9H    basis set group =>   3
Atom  10H    basis set group =>   3
Atom  11H    basis set group =>   3
Atom  12H    basis set group =>   3
Atom  13H    basis set group =>   3
Atom  14H    basis set group =>   3
---------------------------------
AUXILIARY/J BASIS SET INFORMATION
---------------------------------
There are 3 groups of distinct atoms

 Group   1 Type C   : 12s5p4d2f1g contracted to 6s4p3d1f1g pattern {711111/2111/211/2/1}
 Group   2 Type N   : 12s5p4d2f1g contracted to 6s4p3d1f1g pattern {711111/2111/211/2/1}
 Group   3 Type H   : 5s2p1d contracted to 3s1p1d pattern {311/2/1}

Atom   0C    basis set group =>   1
Atom   1C    basis set group =>   1
Atom   2N    basis set group =>   2
Atom   3N    basis set group =>   2
Atom   4C    basis set group =>   1
Atom   5H    basis set group =>   3
Atom   6H    basis set group =>   3
Atom   7C    basis set group =>   1
Atom   8C    basis set group =>   1
Atom   9H    basis set group =>   3
Atom  10H    basis set group =>   3
Atom  11H    basis set group =>   3
Atom  12H    basis set group =>   3
Atom  13H    basis set group =>   3
Atom  14H    basis set group =>   3


           ************************************************************
           *        Program running with 8 parallel MPI-processes     *
           *              working on a common directory               *
           ************************************************************
------------------------------------------------------------------------------
                           ORCA GTO INTEGRAL CALCULATION
                           -- RI-GTO INTEGRALS CHOSEN --
------------------------------------------------------------------------------
------------------------------------------------------------------------------
                   ___                                                        
                  /   \      - P O W E R E D   B Y -                         
                 /     \                                                     
                 |  |  |   _    _      __       _____    __    __             
                 |  |  |  | |  | |    /  \     |  _  \  |  |  /  |          
                  \  \/   | |  | |   /    \    | | | |  |  | /  /          
                 / \  \   | |__| |  /  /\  \   | |_| |  |  |/  /          
                |  |  |   |  __  | /  /__\  \  |    /   |      \           
                |  |  |   | |  | | |   __   |  |    \   |  |\   \          
                \     /   | |  | | |  |  |  |  | |\  \  |  | \   \       
                 \___/    |_|  |_| |__|  |__|  |_| \__\ |__|  \__/        
                                                                              
                      - O R C A' S   B I G   F R I E N D -                    
                                      &                                       
                       - I N T E G R A L  F E E D E R -                       
                                                                              
 v1 FN, 2020, v2 2021                                                         
------------------------------------------------------------------------------


Reading SHARK input file Min_93.SHARKINP.tmp ... ok
----------------------
SHARK INTEGRAL PACKAGE
----------------------

Number of atoms                             ...     15
Number of basis functions                   ...    138
Number of shells                            ...     66
Maximum angular momentum                    ...      2
Integral batch strategy                     ... SHARK/LIBINT Hybrid
RI-J (if used) integral strategy            ... SPLIT-RIJ (Revised 2003 algorithm where possible)
Printlevel                                  ...      1
Contraction scheme used                     ... SEGMENTED contraction
Coulomb Range Separation                    ... NOT USED
Exchange Range Separation                   ... Long Range
   Mu parameter                             ...  0.300000
   Scaling (regular/separated)              ...  0.157706  0.842294
Finite Nucleus Model                        ... NOT USED
Auxiliary Coulomb fitting basis             ... AVAILABLE
   # of basis functions in Aux-J            ...    431
   # of shells in Aux-J                     ...    145
   Maximum angular momentum in Aux-J        ...      4
Auxiliary J/K fitting basis                 ... NOT available
Auxiliary Correlation fitting basis         ... NOT available
Auxiliary 'external' fitting basis          ... NOT available
Integral threshold                          ...     2.500000e-11
Primitive cut-off                           ...     2.500000e-12
Primitive pair pre-selection threshold      ...     2.500000e-12

Calculating pre-screening integrals         ... done (  0.0 sec) Dimension = 66
Organizing shell pair data                  ... done (  0.0 sec)
Shell pair information
Total number of shell pairs                 ...      2211
Shell pairs after pre-screening             ...      2090
Total number of primitive shell pairs       ...      7865
Primitive shell pairs kept                  ...      5623
          la=0 lb=0:    669 shell pairs
          la=1 lb=0:    767 shell pairs
          la=1 lb=1:    233 shell pairs
          la=2 lb=0:    246 shell pairs
          la=2 lb=1:    148 shell pairs
          la=2 lb=2:     27 shell pairs

Calculating one electron integrals          ... done (  0.0 sec)
Calculating RI/J V-Matrix + Cholesky decomp.... done (  0.0 sec)
Calculating Nuclear repulsion               ... done (  0.0 sec) ENN=    294.368795569250 Eh

SHARK setup successfully completed in   0.3 seconds

Maximum memory used throughout the entire GTOINT-calculation: 10.8 MB


           ************************************************************
           *        Program running with 8 parallel MPI-processes     *
           *              working on a common directory               *
           ************************************************************
-------------------------------------------------------------------------------
                                 ORCA SCF
-------------------------------------------------------------------------------

------------
SCF SETTINGS
------------
Hamiltonian:
 Density Functional     Method          .... DFT(GTOs)
 Exchange Functional    Exchange        .... WB97X
 Correlation Functional Correlation     .... WB97X
 Gradients option       PostSCFGGA      .... off
 Hybrid DFT is turned on
   Fraction HF Exchange ScalHFX         ....  0.157706
   Scaling of DF-GGA-X  ScalDFX         ....  0.000000
   Scaling of DF-GGA-C  ScalDFC         ....  1.000000
   Scaling of DF-LDA-C  ScalLDAC        ....  1.000000
   Perturbative correction              ....  0.000000
   Density functional embedding theory  .... OFF
 Long-range corrected/Screened/Range-Separated Hybrid DFT is turned on
   Amount of maximum screened exact exchange              ....  0.842294
   Range separation parameter mu (erf(mu*r12)/r12)        ....  0.300000
 RI-approximation to the Coulomb term is turned on
   Number of AuxJ basis functions       .... 431
   RIJ-COSX (HFX calculated with COS-X)).... on


General Settings:
 Integral files         IntName         .... Min_93
 Hartree-Fock type      HFTyp           .... RHF
 Total Charge           Charge          ....    0
 Multiplicity           Mult            ....    1
 Number of Electrons    NEL             ....   52
 Basis Dimension        Dim             ....  138
 Nuclear Repulsion      ENuc            ....    294.3687955693 Eh

Convergence Acceleration:
 DIIS                   CNVDIIS         .... on
   Start iteration      DIISMaxIt       ....     0
   Startup error        DIISStart       ....  0.200000
   # of expansion vecs  DIISMaxEq       ....     5
   Bias factor          DIISBfac        ....   1.050
   Max. coefficient     DIISMaxC        ....  10.000
 Trust-Rad. Augm. Hess. CNVTRAH         .... auto
   Auto Start mean grad. ratio tolernc. ....  1.125000
   Auto Start start iteration           ....    20
   Auto Start num. interpolation iter.  ....    10
   Max. Number of Micro iterations      ....    16
   Max. Number of Macro iterations      .... Maxiter - #DIIS iter
   Number of Davidson start vectors     ....     2
   Converg. threshold I  (grad. norm)   ....   1.000e-05
   Converg. threshold II (energy diff.) ....   1.000e-08
   Grad. Scal. Fac. for Micro threshold ....   0.100
   Minimum threshold for Micro iter.    ....   0.010
   NR start threshold (gradient norm)   ....   0.001
   Initial trust radius                 ....   0.400
   Minimum AH scaling param. (alpha)    ....   1.000
   Maximum AH scaling param. (alpha)    .... 1000.000
   Orbital update algorithm             .... Taylor
   White noise on init. David. guess    .... on
   Maximum white noise                  ....   0.010
   Quad. conv. algorithm                .... NR
 SOSCF                  CNVSOSCF        .... on
   Start iteration      SOSCFMaxIt      ....   150
   Startup grad/error   SOSCFStart      ....  0.001000
 Level Shifting         CNVShift        .... on
   Level shift para.    LevelShift      ....    0.2500
   Turn off err/grad.   ShiftErr        ....    0.0000
 Zerner damping         CNVZerner       .... off
 Static damping         CNVDamp         .... on
   Fraction old density DampFac         ....    0.8500
   Max. Damping (<1)    DampMax         ....    0.9800
   Min. Damping (>=0)   DampMin         ....    0.0000
   Turn off err/grad.   DampErr         ....    0.0300
 Fernandez-Rico         CNVRico         .... off

SCF Procedure:
 Maximum # iterations   MaxIter         .... 20000
 SCF integral mode      SCFMode         .... Direct
   Integral package                     .... SHARK and LIBINT hybrid scheme
 Reset frequency        DirectResetFreq ....    20
 Integral Threshold     Thresh          ....  2.500e-11 Eh
 Primitive CutOff       TCut            ....  2.500e-12 Eh

Convergence Tolerance:
 Convergence Check Mode ConvCheckMode   .... Total+1el-Energy
 Convergence forced     ConvForced      .... 0
 Energy Change          TolE            ....  1.000e-08 Eh
 1-El. energy change                    ....  1.000e-05 Eh
 Orbital Gradient       TolG            ....  1.000e-05
 Orbital Rotation angle TolX            ....  1.000e-05
 DIIS Error             TolErr          ....  5.000e-07


Diagonalization of the overlap matrix:
Smallest eigenvalue                        ... 1.587e-03
Time for diagonalization                   ...    0.004 sec
Threshold for overlap eigenvalues          ... 1.000e-08
Number of eigenvalues below threshold      ... 0
Time for construction of square roots      ...    0.017 sec
Total time needed                          ...    0.022 sec

Time for model grid setup =    0.077 sec

------------------------------
INITIAL GUESS: MODEL POTENTIAL
------------------------------
Loading Hartree-Fock densities                     ... done
Calculating cut-offs                               ... done
Initializing the effective Hamiltonian             ... done
Setting up the integral package (SHARK)            ... done
Starting the Coulomb interaction                   ... done (   0.0 sec)
Reading the grid                                   ... done
Mapping shells                                     ... done
Starting the XC term evaluation                    ... done (   0.0 sec)
  promolecular density results
     # of electrons  =     51.995629025
     EX              =    -41.002149450
     EC              =     -1.717234221
     EX+EC           =    -42.719383671
Transforming the Hamiltonian                       ... done (   0.0 sec)
Diagonalizing the Hamiltonian                      ... done (   0.0 sec)
Back transforming the eigenvectors                 ... done (   0.0 sec)
Now organizing SCF variables                       ... done
                      ------------------
                      INITIAL GUESS DONE (   0.2 sec)
                      ------------------
-------------------
DFT GRID GENERATION
-------------------

General Integration Accuracy     IntAcc      ... 4.388
Radial Grid Type                 RadialGrid  ... OptM3 with GC (2021)
Angular Grid (max. ang.)         AngularGrid ... 4 (Lebedev-302)
Angular grid pruning method      GridPruning ... 4 (adaptive)
Weight generation scheme         WeightScheme... Becke
Basis function cutoff            BFCut       ... 1.0000e-11
Integration weight cutoff        WCut        ... 1.0000e-14
Angular grids for H and He will be reduced by one unit
Partially contracted basis set               ... off
Rotationally invariant grid construction     ... off

Total number of grid points                  ...    68084
Total number of batches                      ...     1069
Average number of points per batch           ...       63
Average number of grid points per atom       ...     4539
Time for grid setup =    0.320 sec

--------------------
COSX GRID GENERATION
--------------------

GRIDX 1
-------
General Integration Accuracy     IntAcc      ... 3.816
Radial Grid Type                 RadialGrid  ... OptM3 with GC (2021)
Angular Grid (max. ang.)         AngularGrid ... 1 (Lebedev-50)
Angular grid pruning method      GridPruning ... 4 (adaptive)
Weight generation scheme         WeightScheme... Becke
Basis function cutoff            BFCut       ... 1.0000e-11
Integration weight cutoff        WCut        ... 1.0000e-14
Angular grids for H and He will be reduced by one unit
Partially contracted basis set               ... on
Rotationally invariant grid construction     ... off

Total number of grid points                  ...     8744
Total number of batches                      ...      144
Average number of points per batch           ...       60
Average number of grid points per atom       ...      583
UseSFitting                                  ... on

GRIDX 2
-------
General Integration Accuracy     IntAcc      ... 4.020
Radial Grid Type                 RadialGrid  ... OptM3 with GC (2021)
Angular Grid (max. ang.)         AngularGrid ... 2 (Lebedev-110)
Angular grid pruning method      GridPruning ... 4 (adaptive)
Weight generation scheme         WeightScheme... Becke
Basis function cutoff            BFCut       ... 1.0000e-11
Integration weight cutoff        WCut        ... 1.0000e-14
Angular grids for H and He will be reduced by one unit
Partially contracted basis set               ... on
Rotationally invariant grid construction     ... off

Total number of grid points                  ...    18800
Total number of batches                      ...      301
Average number of points per batch           ...       62
Average number of grid points per atom       ...     1253
UseSFitting                                  ... on

GRIDX 3
-------
General Integration Accuracy     IntAcc      ... 4.338
Radial Grid Type                 RadialGrid  ... OptM3 with GC (2021)
Angular Grid (max. ang.)         AngularGrid ... 3 (Lebedev-194)
Angular grid pruning method      GridPruning ... 4 (adaptive)
Weight generation scheme         WeightScheme... Becke
Basis function cutoff            BFCut       ... 1.0000e-11
Integration weight cutoff        WCut        ... 1.0000e-14
Angular grids for H and He will be reduced by one unit
Partially contracted basis set               ... on
Rotationally invariant grid construction     ... off

Total number of grid points                  ...    41299
Total number of batches                      ...      655
Average number of points per batch           ...       63
Average number of grid points per atom       ...     2753
UseSFitting                                  ... on

Time for X-Grid setup             =    0.433 sec

--------------
SCF ITERATIONS
--------------
ITER       Energy         Delta-E        Max-DP      RMS-DP      [F,P]     Damp
               ***  Starting incremental Fock matrix formation  ***
  0   -304.3672970612   0.000000000000 0.03809075  0.00085760  0.1155253 0.8500
  1   -304.3902798403  -0.022982779070 0.04145684  0.00084796  0.0944150 0.8500
                               ***Turning on DIIS***
  2   -304.4082138171  -0.017933976858 0.03681389  0.00071087  0.0737849 0.8500
  3   -304.4218212803  -0.013607463218 0.03011397  0.00052518  0.0570195 0.8500
  4   -304.4324640190  -0.010642738689 0.02491332  0.00040805  0.0458371 0.8500
  5   -304.4409256632  -0.008461644125 0.02105993  0.00033620  0.0380832 0.8500
  6   -304.4478327614  -0.006907098270 0.01799986  0.00028423  0.0321293 0.8500
  7   -304.4535613915  -0.005728630060 0.10370485  0.00163285  0.0272730 0.0000
  8   -304.4843154706  -0.030754079084 0.00215781  0.00006559  0.0012810 0.0000
                      *** Initiating the SOSCF procedure ***
                           *** Shutting down DIIS ***
                      *** Re-Reading the Fockian *** 
                      *** Removing any level shift *** 
ITER      Energy       Delta-E        Grad      Rot      Max-DP    RMS-DP
  9   -304.48433620  -0.0000207269  0.000512  0.000512  0.001215  0.000037
               *** Restarting incremental Fock matrix formation ***
 10   -304.48438527  -0.0000490743  0.000393  0.000869  0.000856  0.000028
 11   -304.48438783  -0.0000025612  0.000109  0.000599  0.000590  0.000026
 12   -304.48438877  -0.0000009414  0.000045  0.000083  0.000270  0.000006
 13   -304.48438884  -0.0000000691  0.000012  0.000029  0.000082  0.000002
 14   -304.48438885  -0.0000000021  0.000009  0.000015  0.000028  0.000001
                  ***Gradient check signals convergence***
              ***Rediagonalizing the Fockian in SOSCF/NRSCF***

               *****************************************************
               *                     SUCCESS                       *
               *           SCF CONVERGED AFTER  15 CYCLES          *
               *****************************************************

Old exchange energy                            =    -13.448164676 Eh
New exchange energy                            =    -13.448156578 Eh
Exchange energy change after final integration =      0.000008098 Eh
Total energy after final integration           =   -304.484380750 Eh
Final COS-X integration done in                =     1.981 sec

----------------
TOTAL SCF ENERGY
----------------

Total Energy       :         -304.48438075 Eh           -8285.44122 eV

Components:
Nuclear Repulsion  :          294.36879557 Eh            8010.18216 eV
Electronic Energy  :         -598.85317632 Eh          -16295.62338 eV
One Electron Energy:         -993.03861165 Eh          -27021.95439 eV
Two Electron Energy:          394.18543533 Eh           10726.33101 eV
Max COSX asymmetry :            0.00000128 Eh               0.00003 eV

Virial components:
Potential Energy   :         -605.48291306 Eh          -16476.02769 eV
Kinetic Energy     :          300.99853231 Eh            8190.58647 eV
Virial Ratio       :            2.01158095


DFT components:
N(Alpha)           :       26.000001441833 electrons
N(Beta)            :       26.000001441833 electrons
N(Total)           :       52.000002883666 electrons
E(XC)              :      -30.314825576330 Eh       
DFET-embed. en.    :        0.000000000000 Eh       

---------------
SCF CONVERGENCE
---------------

  Last Energy change         ...   -2.3666e-09  Tolerance :   1.0000e-08
  Last MAX-Density change    ...    4.4409e-15  Tolerance :   1.0000e-07
  Last RMS-Density change    ...    4.7330e-17  Tolerance :   5.0000e-09
  Last Orbital Gradient      ...    1.3040e-06  Tolerance :   1.0000e-05
  Last Orbital Rotation      ...    4.2777e-06  Tolerance :   1.0000e-05

             **** THE GBW FILE WAS UPDATED (Min_93.gbw) ****
             **** DENSITY Min_93.scfp WAS UPDATED ****
             **** ENERGY FILE WAS UPDATED (Min_93.en.tmp) ****
             **** THE GBW FILE WAS UPDATED (Min_93.gbw) ****
             **** DENSITY Min_93.scfp WAS UPDATED ****
----------------
ORBITAL ENERGIES
----------------

  NO   OCC          E(Eh)            E(eV) 
   0   2.0000     -14.445918      -393.0934 
   1   2.0000     -14.442663      -393.0048 
   2   2.0000     -10.316159      -280.7170 
   3   2.0000     -10.306796      -280.4622 
   4   2.0000     -10.291362      -280.0422 
   5   2.0000     -10.287072      -279.9255 
   6   2.0000     -10.266415      -279.3634 
   7   2.0000      -1.138685       -30.9852 
   8   2.0000      -1.030021       -28.0283 
   9   2.0000      -0.893990       -24.3267 
  10   2.0000      -0.840517       -22.8716 
  11   2.0000      -0.797253       -21.6944 
  12   2.0000      -0.707514       -19.2524 
  13   2.0000      -0.677208       -18.4278 
  14   2.0000      -0.632699       -17.2166 
  15   2.0000      -0.584064       -15.8932 
  16   2.0000      -0.558532       -15.1984 
  17   2.0000      -0.548968       -14.9382 
  18   2.0000      -0.543393       -14.7865 
  19   2.0000      -0.537269       -14.6198 
  20   2.0000      -0.496158       -13.5011 
  21   2.0000      -0.486097       -13.2274 
  22   2.0000      -0.478929       -13.0323 
  23   2.0000      -0.367811       -10.0086 
  24   2.0000      -0.322161        -8.7665 
  25   2.0000      -0.295437        -8.0392 
  26   0.0000       0.123327         3.3559 
  27   0.0000       0.130715         3.5569 
  28   0.0000       0.158179         4.3043 
  29   0.0000       0.161719         4.4006 
  30   0.0000       0.188920         5.1408 
  31   0.0000       0.209922         5.7123 
  32   0.0000       0.216025         5.8783 
  33   0.0000       0.230475         6.2715 
  34   0.0000       0.239969         6.5299 
  35   0.0000       0.244203         6.6451 
  36   0.0000       0.251579         6.8458 
  37   0.0000       0.276714         7.5298 
  38   0.0000       0.330860         9.0032 
  39   0.0000       0.361701         9.8424 
  40   0.0000       0.379618        10.3299 
  41   0.0000       0.428193        11.6517 
  42   0.0000       0.464286        12.6339 
  43   0.0000       0.471519        12.8307 
  44   0.0000       0.499699        13.5975 
  45   0.0000       0.517313        14.0768 
  46   0.0000       0.536248        14.5921 
  47   0.0000       0.542731        14.7685 
  48   0.0000       0.575045        15.6478 
  49   0.0000       0.613386        16.6911 
  50   0.0000       0.621258        16.9053 
  51   0.0000       0.654775        17.8173 
  52   0.0000       0.665651        18.1133 
  53   0.0000       0.683408        18.5965 
  54   0.0000       0.695704        18.9311 
  55   0.0000       0.714851        19.4521 
  56   0.0000       0.729014        19.8375 
  57   0.0000       0.743820        20.2404 
  58   0.0000       0.750474        20.4214 
  59   0.0000       0.758789        20.6477 
  60   0.0000       0.763593        20.7784 
  61   0.0000       0.768104        20.9012 
  62   0.0000       0.781180        21.2570 
  63   0.0000       0.786254        21.3951 
  64   0.0000       0.795794        21.6547 
  65   0.0000       0.824389        22.4328 
  66   0.0000       0.832908        22.6646 
  67   0.0000       0.907722        24.7004 
  68   0.0000       0.961548        26.1651 
  69   0.0000       0.980167        26.6717 
  70   0.0000       0.996981        27.1292 
  71   0.0000       1.026281        27.9265 
  72   0.0000       1.047170        28.4950 
  73   0.0000       1.105422        30.0801 
  74   0.0000       1.207959        32.8702 
  75   0.0000       1.217816        33.1385 
  76   0.0000       1.269777        34.5524 
  77   0.0000       1.298483        35.3335 
  78   0.0000       1.327991        36.1365 
  79   0.0000       1.367017        37.1984 
  80   0.0000       1.401925        38.1483 
  81   0.0000       1.499204        40.7954 
  82   0.0000       1.545258        42.0486 
  83   0.0000       1.567454        42.6526 
  84   0.0000       1.589909        43.2636 
  85   0.0000       1.612947        43.8905 
  86   0.0000       1.623447        44.1762 
  87   0.0000       1.676757        45.6269 
  88   0.0000       1.716972        46.7212 
  89   0.0000       1.755110        47.7590 
  90   0.0000       1.771254        48.1983 
  91   0.0000       1.830024        49.7975 
  92   0.0000       1.848007        50.2868 
  93   0.0000       1.853351        50.4323 
  94   0.0000       1.874891        51.0184 
  95   0.0000       1.885691        51.3123 
  96   0.0000       1.909163        51.9510 
  97   0.0000       1.922125        52.3037 
  98   0.0000       1.926950        52.4350 
  99   0.0000       1.982150        53.9370 
 100   0.0000       1.998357        54.3781 
 101   0.0000       2.034865        55.3715 
 102   0.0000       2.047400        55.7126 
 103   0.0000       2.099763        57.1375 
 104   0.0000       2.127576        57.8943 
 105   0.0000       2.143145        58.3179 
 106   0.0000       2.169838        59.0443 
 107   0.0000       2.195965        59.7552 
 108   0.0000       2.199635        59.8551 
 109   0.0000       2.246608        61.1333 
 110   0.0000       2.308109        62.8068 
 111   0.0000       2.327590        63.3369 
 112   0.0000       2.401253        65.3414 
 113   0.0000       2.417324        65.7787 
 114   0.0000       2.421595        65.8949 
 115   0.0000       2.473229        67.3000 
 116   0.0000       2.510089        68.3030 
 117   0.0000       2.544321        69.2345 
 118   0.0000       2.555068        69.5269 
 119   0.0000       2.610687        71.0404 
 120   0.0000       2.659606        72.3716 
 121   0.0000       2.709103        73.7185 
 122   0.0000       2.788885        75.8894 
 123   0.0000       2.789917        75.9175 
 124   0.0000       2.855860        77.7119 
 125   0.0000       2.875122        78.2360 
 126   0.0000       2.908673        79.1490 
 127   0.0000       2.931380        79.7669 
 128   0.0000       2.958967        80.5176 
 129   0.0000       3.018374        82.1341 
 130   0.0000       3.029224        82.4294 
 131   0.0000       3.037373        82.6511 
 132   0.0000       3.057691        83.2040 
 133   0.0000       3.106122        84.5219 
 134   0.0000       3.256728        88.6201 
 135   0.0000       3.404279        92.6351 
 136   0.0000       3.455705        94.0345 
 137   0.0000       3.645834        99.2082 

                    ********************************
                    * MULLIKEN POPULATION ANALYSIS *
                    ********************************

-----------------------
MULLIKEN ATOMIC CHARGES
-----------------------
   0 C :    0.043858
   1 C :    0.039643
   2 N :   -0.252030
   3 N :   -0.253753
   4 C :   -0.117592
   5 H :    0.025432
   6 H :    0.015991
   7 C :    0.104610
   8 C :    0.074025
   9 H :    0.031121
  10 H :    0.045179
  11 H :    0.059231
  12 H :    0.055697
  13 H :    0.058634
  14 H :    0.069954
Sum of atomic charges:    0.0000000

--------------------------------
MULLIKEN REDUCED ORBITAL CHARGES
--------------------------------
  0 C s       :     3.098810  s :     3.098810
      pz      :     0.802535  p :     2.806824
      px      :     1.072180
      py      :     0.932109
      dz2     :     0.014565  d :     0.050508
      dxz     :     0.008551
      dyz     :     0.013419
      dx2y2   :     0.005109
      dxy     :     0.008863
  1 C s       :     3.105853  s :     3.105853
      pz      :     0.811177  p :     2.806726
      px      :     1.086308
      py      :     0.909241
      dz2     :     0.013421  d :     0.047779
      dxz     :     0.007309
      dyz     :     0.013416
      dx2y2   :     0.005289
      dxy     :     0.008344
  2 N s       :     3.399589  s :     3.399589
      pz      :     1.118368  p :     3.820181
      px      :     1.539421
      py      :     1.162392
      dz2     :     0.008627  d :     0.032260
      dxz     :     0.005454
      dyz     :     0.008856
      dx2y2   :     0.005261
      dxy     :     0.004062
  3 N s       :     3.405804  s :     3.405804
      pz      :     1.135854  p :     3.816724
      px      :     1.519367
      py      :     1.161503
      dz2     :     0.008453  d :     0.031225
      dxz     :     0.005148
      dyz     :     0.008429
      dx2y2   :     0.004969
      dxy     :     0.004227
  4 C s       :     3.642251  s :     3.642251
      pz      :     1.129394  p :     2.410932
      px      :     0.642602
      py      :     0.638936
      dz2     :     0.008337  d :     0.064408
      dxz     :     0.009865
      dyz     :     0.027834
      dx2y2   :     0.007288
      dxy     :     0.011083
  5 H s       :     0.949962  s :     0.949962
      pz      :     0.011243  p :     0.024606
      px      :     0.005665
      py      :     0.007697
  6 H s       :     0.959424  s :     0.959424
      pz      :     0.009243  p :     0.024585
      px      :     0.006095
      py      :     0.009247
  7 C s       :     2.997280  s :     2.997280
      pz      :     1.009459  p :     2.858912
      px      :     1.050879
      py      :     0.798574
      dz2     :     0.004358  d :     0.039198
      dxz     :     0.006442
      dyz     :     0.009520
      dx2y2   :     0.011881
      dxy     :     0.006997
  8 C s       :     3.037307  s :     3.037307
      pz      :     1.025396  p :     2.851219
      px      :     1.026366
      py      :     0.799456
      dz2     :     0.005933  d :     0.037450
      dxz     :     0.005521
      dyz     :     0.006684
      dx2y2   :     0.008734
      dxy     :     0.010578
  9 H s       :     0.945615  s :     0.945615
      pz      :     0.010842  p :     0.023264
      px      :     0.005321
      py      :     0.007101
 10 H s       :     0.932883  s :     0.932883
      pz      :     0.008835  p :     0.021939
      px      :     0.008214
      py      :     0.004890
 11 H s       :     0.919670  s :     0.919670
      pz      :     0.004287  p :     0.021098
      px      :     0.011369
      py      :     0.005442
 12 H s       :     0.922419  s :     0.922419
      pz      :     0.006230  p :     0.021884
      px      :     0.012898
      py      :     0.002755
 13 H s       :     0.918883  s :     0.918883
      pz      :     0.009559  p :     0.022483
      px      :     0.010125
      py      :     0.002800
 14 H s       :     0.908218  s :     0.908218
      pz      :     0.012883  p :     0.021828
      px      :     0.006570
      py      :     0.002375


                     *******************************
                     * LOEWDIN POPULATION ANALYSIS *
                     *******************************

----------------------
LOEWDIN ATOMIC CHARGES
----------------------
   0 C :   -0.034758
   1 C :   -0.038869
   2 N :    0.007529
   3 N :    0.007396
   4 C :   -0.243498
   5 H :    0.026229
   6 H :    0.019282
   7 C :    0.031171
   8 C :    0.025161
   9 H :    0.023574
  10 H :    0.029332
  11 H :    0.032557
  12 H :    0.034779
  13 H :    0.036227
  14 H :    0.043889

-------------------------------
LOEWDIN REDUCED ORBITAL CHARGES
-------------------------------
  0 C s       :     2.846361  s :     2.846361
      pz      :     0.945951  p :     3.061828
      px      :     1.054885
      py      :     1.060992
      dz2     :     0.039276  d :     0.126568
      dxz     :     0.017402
      dyz     :     0.037145
      dx2y2   :     0.014373
      dxy     :     0.018371
  1 C s       :     2.855056  s :     2.855056
      pz      :     0.933406  p :     3.064794
      px      :     1.075953
      py      :     1.055436
      dz2     :     0.034933  d :     0.119020
      dxz     :     0.014703
      dyz     :     0.037086
      dx2y2   :     0.014838
      dxy     :     0.017459
  2 N s       :     3.065552  s :     3.065552
      pz      :     1.196795  p :     3.852419
      px      :     1.468064
      py      :     1.187560
      dz2     :     0.022137  d :     0.074500
      dxz     :     0.010593
      dyz     :     0.024242
      dx2y2   :     0.010707
      dxy     :     0.006821
  3 N s       :     3.075099  s :     3.075099
      pz      :     1.201485  p :     3.846170
      px      :     1.448887
      py      :     1.195797
      dz2     :     0.021319  d :     0.071336
      dxz     :     0.010022
      dyz     :     0.022758
      dx2y2   :     0.010204
      dxy     :     0.007032
  4 C s       :     3.218584  s :     3.218584
      pz      :     1.377539  p :     2.887167
      px      :     0.701471
      py      :     0.808157
      dz2     :     0.013122  d :     0.137747
      dxz     :     0.014029
      dyz     :     0.064194
      dx2y2   :     0.021985
      dxy     :     0.024418
  5 H s       :     0.900985  s :     0.900985
      pz      :     0.033087  p :     0.072786
      px      :     0.017816
      py      :     0.021883
  6 H s       :     0.907011  s :     0.907011
      pz      :     0.028381  p :     0.073706
      px      :     0.019445
      py      :     0.025881
  7 C s       :     2.835575  s :     2.835575
      pz      :     1.061152  p :     3.036952
      px      :     1.083235
      py      :     0.892566
      dz2     :     0.009930  d :     0.096302
      dxz     :     0.017751
      dyz     :     0.023865
      dx2y2   :     0.029132
      dxy     :     0.015623
  8 C s       :     2.855181  s :     2.855181
      pz      :     1.065294  p :     3.028556
      px      :     1.070373
      py      :     0.892889
      dz2     :     0.015184  d :     0.091102
      dxz     :     0.014117
      dyz     :     0.015734
      dx2y2   :     0.019932
      dxy     :     0.026135
  9 H s       :     0.911206  s :     0.911206
      pz      :     0.030201  p :     0.065220
      px      :     0.013943
      py      :     0.021076
 10 H s       :     0.909405  s :     0.909405
      pz      :     0.024579  p :     0.061263
      px      :     0.022087
      py      :     0.014596
 11 H s       :     0.908994  s :     0.908994
      pz      :     0.010711  p :     0.058449
      px      :     0.031297
      py      :     0.016440
 12 H s       :     0.904174  s :     0.904174
      pz      :     0.016437  p :     0.061048
      px      :     0.035388
      py      :     0.009223
 13 H s       :     0.900432  s :     0.900432
      pz      :     0.025897  p :     0.063341
      px      :     0.027841
      py      :     0.009604
 14 H s       :     0.894133  s :     0.894133
      pz      :     0.036203  p :     0.061978
      px      :     0.017998
      py      :     0.007777


                      *****************************
                      * MAYER POPULATION ANALYSIS *
                      *****************************

  NA   - Mulliken gross atomic population
  ZA   - Total nuclear charge
  QA   - Mulliken gross atomic charge
  VA   - Mayer's total valence
  BVA  - Mayer's bonded valence
  FA   - Mayer's free valence

  ATOM       NA         ZA         QA         VA         BVA        FA
  0 C      5.9561     6.0000     0.0439     3.8816     3.8816     0.0000
  1 C      5.9604     6.0000     0.0396     3.8734     3.8734     0.0000
  2 N      7.2520     7.0000    -0.2520     3.3492     3.3492     0.0000
  3 N      7.2538     7.0000    -0.2538     3.3688     3.3688    -0.0000
  4 C      6.1176     6.0000    -0.1176     2.6252     2.6252     0.0000
  5 H      0.9746     1.0000     0.0254     1.0007     1.0007     0.0000
  6 H      0.9840     1.0000     0.0160     1.0012     1.0012    -0.0000
  7 C      5.8954     6.0000     0.1046     3.9067     3.9067     0.0000
  8 C      5.9260     6.0000     0.0740     3.8915     3.8915    -0.0000
  9 H      0.9689     1.0000     0.0311     0.9947     0.9947    -0.0000
 10 H      0.9548     1.0000     0.0452     0.9903     0.9903    -0.0000
 11 H      0.9408     1.0000     0.0592     0.9853     0.9853    -0.0000
 12 H      0.9443     1.0000     0.0557     0.9944     0.9944    -0.0000
 13 H      0.9414     1.0000     0.0586     1.0003     1.0003    -0.0000
 14 H      0.9300     1.0000     0.0700     1.0086     1.0086    -0.0000

  Mayer bond orders larger than 0.100000
B(  0-C ,  1-C ) :   1.6714 B(  0-C ,  2-N ) :   1.1267 B(  0-C ,  5-H ) :   0.9846 
B(  1-C ,  3-N ) :   1.1047 B(  1-C ,  6-H ) :   0.9877 B(  2-N ,  4-C ) :   1.1921 
B(  2-N ,  7-C ) :   0.9537 B(  3-N ,  4-C ) :   1.2431 B(  3-N ,  8-C ) :   0.9497 
B(  7-C ,  9-H ) :   0.9780 B(  7-C , 12-H ) :   0.9796 B(  7-C , 13-H ) :   0.9777 
B(  8-C , 10-H ) :   0.9784 B(  8-C , 11-H ) :   0.9752 B(  8-C , 14-H ) :   0.9750 


-------
TIMINGS
-------

Total SCF time: 0 days 0 hours 0 min 19 sec 

Total time                  ....      19.331 sec
Sum of individual times     ....      18.399 sec  ( 95.2%)

Fock matrix formation       ....      17.059 sec  ( 88.2%)
  Split-RI-J                ....       0.890 sec  (  5.2% of F)
  Chain of spheres X        ....      11.642 sec  ( 68.2% of F)
  XC integration            ....       3.503 sec  ( 20.5% of F)
    Basis function eval.    ....       0.632 sec  ( 18.0% of XC)
    Density eval.           ....       0.347 sec  (  9.9% of XC)
    XC-Functional eval.     ....       0.320 sec  (  9.1% of XC)
    XC-Potential eval.      ....       0.395 sec  ( 11.3% of XC)
Diagonalization             ....       0.083 sec  (  0.4%)
Density matrix formation    ....       0.004 sec  (  0.0%)
Population analysis         ....       0.133 sec  (  0.7%)
Initial guess               ....       0.156 sec  (  0.8%)
Orbital Transformation      ....       0.000 sec  (  0.0%)
Orbital Orthonormalization  ....       0.000 sec  (  0.0%)
DIIS solution               ....       0.061 sec  (  0.3%)
SOSCF solution              ....       0.072 sec  (  0.4%)
Grid generation             ....       0.829 sec  (  4.3%)

Maximum memory used throughout the entire SCF-calculation: 50.5 MB


-------------------------------------------------------------------------------
                          DFT DISPERSION CORRECTION                            
                                                                               
                                 DFTD4 V2.5                                    
-------------------------------------------------------------------------------
The WB97X functional is recognized
Active option DFTDOPT                   ...         5   

Starting D4
-------------------------   ----------------
Dispersion correction           -0.001723365
-------------------------   ----------------


-------------------------   --------------------
FINAL SINGLE POINT ENERGY      -304.486104115505
-------------------------   --------------------



           ************************************************************
           *        Program running with 8 parallel MPI-processes     *
           *              working on a common directory               *
           ************************************************************
------------------------------------------------------------------------------
                         ORCA SCF GRADIENT CALCULATION
------------------------------------------------------------------------------

 ... reading COSX grid (gridx3)
Gradient of the Kohn-Sham DFT energy:
Kohn-Sham wavefunction type      ... RKS
Hartree-Fock exchange scaling    ...    0.158
Number of operators              ...    1
Number of atoms                  ...   15
Basis set dimensions             ...  138
Integral neglect threshold       ... 2.5e-11
Integral primitive cutoff        ... 2.5e-12
SHARK Integral package           ... ON

Nuc. rep. gradient       (SHARK) ... done (  0.0 sec)
HCore & Overlap gradient (SHARK) ... done (  0.0 sec)
RI-J gradient            (SHARK) ... done (  0.2 sec)
COSX-gradient                    ... done (  2.2 sec)
Exchange-correlation gradient    ... done
Dispersion correction            ... Starting D4
Starting D4
Starting D4
Starting D4
Starting D4
Starting D4
Starting D4


------------------- 
Dispersion Gradient 
------------------- 
   1  :    0.000003103    0.000009295   -0.000017376
   2  :    0.000001446   -0.000006058   -0.000012907
   3  :    0.000001016    0.000018115    0.000003158
   4  :   -0.000001428   -0.000014522    0.000001160
   5  :   -0.000000102    0.000000933    0.000014953
   6  :    0.000000604    0.000002712   -0.000002932
   7  :    0.000000171   -0.000002886   -0.000002497
   8  :    0.000002618    0.000040082    0.000009187
   9  :   -0.000005538   -0.000040573    0.000009724
  10  :    0.000000041    0.000007021    0.000001089
  11  :   -0.000002211   -0.000007570    0.000000729
  12  :    0.000002022   -0.000008834    0.000002767
  13  :    0.000001931    0.000006996    0.000002858
  14  :   -0.000000992    0.000007538    0.000003354
  15  :   -0.000002018   -0.000007268    0.000004392

  |G| =    0.000294725

Starting D4
done

------------------
CARTESIAN GRADIENT
------------------

   1   C   :    0.012515682   -0.005082222    0.003723967
   2   C   :    0.000371420    0.038352227   -0.013798742
   3   N   :   -0.008027549    0.018086415   -0.014896380
   4   N   :   -0.020946528   -0.022761870    0.015529546
   5   C   :    0.026208596   -0.010855974   -0.010745800
   6   H   :   -0.004593365   -0.009926448    0.007845331
   7   H   :    0.004120323    0.006687184    0.016950182
   8   C   :   -0.016340152    0.003563484   -0.018117953
   9   C   :   -0.006124573    0.004429871   -0.005301059
  10   H   :   -0.000141776   -0.003295626    0.005357829
  11   H   :   -0.005717243   -0.004263223   -0.009723633
  12   H   :    0.017612241   -0.015127797    0.002743201
  13   H   :    0.012958029   -0.005356459    0.003709975
  14   H   :   -0.004186893    0.003258320    0.002801208
  15   H   :   -0.007596811    0.002213082    0.013815107

Difference to translation invariance:
           :    0.0001114023   -0.0000790351   -0.0001072215

Difference to rotation invariance:
           :    0.0010088251    0.0000990333   -0.0009403265

Norm of the cartesian gradient     ...    0.0839300401
RMS gradient                       ...    0.0125115517
MAX gradient                       ...    0.0383522274

-------
TIMINGS
-------

Total SCF gradient time            ...        3.670 sec

One electron gradient       ....       0.024 sec  (  0.7%)
RI-J Coulomb gradient       ....       0.199 sec  (  5.4%)
COSX gradient               ....       2.187 sec  ( 59.6%)
XC gradient                 ....       0.575 sec  ( 15.7%)

Maximum memory used throughout the entire SCFGRAD-calculation: 39.0 MB
------------------------------------------------------------------------------
                         ORCA GEOMETRY RELAXATION STEP
------------------------------------------------------------------------------

Reading the OPT-File                    .... done
Getting information on internals        .... done
Copying old internal coords+grads       .... done
Making the new internal coordinates     .... (new redundants).... done
Validating the new internal coordinates .... (new redundants).... done
Calculating the B-matrix                .... done
Calculating the G,G- and P matrices     .... done
Transforming gradient to internals      .... done
Projecting the internal gradient        .... done
Number of atoms                         ....  15
Number of internal coordinates          ....  68
Current Energy                          ....  -304.486104116 Eh
Current gradient norm                   ....     0.083930040 Eh/bohr
Maximum allowed component of the step   ....  0.300
Current trust radius                    ....  0.300
Evaluating the initial hessian          ....  (Almloef) done
Projecting the Hessian                  .... done
Forming the augmented Hessian           .... done
Diagonalizing the augmented Hessian     .... done
Last element of RFO vector              ....  0.911921843
Lowest eigenvalues of augmented Hessian:
 -0.019413638  0.016003393  0.018026703  0.020272326  0.023653988
Length of the computed step             ....  0.449999009
Warning: the length of the step is outside the trust region - taking restricted step instead
The input lambda is                     ....    -0.019414
   iter:   1  x=   -0.034011  g=    7.706809 f(x)=     0.112499
   iter:   2  x=   -0.044731  g=    3.436069 f(x)=     0.036834
   iter:   3  x=   -0.048280  g=    2.150283 f(x)=     0.007632
   iter:   4  x=   -0.048552  g=    1.872664 f(x)=     0.000508
   iter:   5  x=   -0.048553  g=    1.853526 f(x)=     0.000003
   iter:   6  x=   -0.048553  g=    1.853428 f(x)=     0.000000
   iter:   7  x=   -0.048553  g=    1.853428 f(x)=     0.000000
The output lambda is                    ....    -0.048553 (7 iterations)
The final length of the internal step   ....  0.300000000
Converting the step to cartesian space:
 Initial RMS(Int)=    0.0363803438
Transforming coordinates:
 Iter   0:  RMS(Cart)=    0.0632846522 RMS(Int)=    1.3091996788
 Iter   1:  RMS(Cart)=    0.0032507028 RMS(Int)=    0.0015384253
 Iter   2:  RMS(Cart)=    0.0001787872 RMS(Int)=    0.0001157550
 Iter   3:  RMS(Cart)=    0.0000222682 RMS(Int)=    0.0000097328
 Iter   4:  RMS(Cart)=    0.0000011958 RMS(Int)=    0.0000007955
 Iter   5:  RMS(Cart)=    0.0000001517 RMS(Int)=    0.0000000655
 Iter   6:  RMS(Cart)=    0.0000000083 RMS(Int)=    0.0000000054
done
Storing new coordinates                 .... done

                                .--------------------.
          ----------------------|Geometry convergence|-------------------------
          Item                value                   Tolerance       Converged
          ---------------------------------------------------------------------
          RMS gradient        0.0087176093            0.0001000000      NO
          MAX gradient        0.0240392926            0.0003000000      NO
          RMS step            0.0363803438            0.0020000000      NO
          MAX step            0.1160824795            0.0040000000      NO
          ........................................................
          Max(Bonds)      0.0352      Max(Angles)    3.12
          Max(Dihed)        6.65      Max(Improp)    0.00
          ---------------------------------------------------------------------

The optimization has not yet converged - more geometry cycles are needed


    ---------------------------------------------------------------------------
                         Redundant Internal Coordinates
                            (Angstroem and degrees)

        Definition                    Value    dE/dq     Step     New-Value
    ----------------------------------------------------------------------------
     1. B(C   1,C   0)                1.3320 -0.018681  0.0124    1.3444   
     2. B(N   2,C   0)                1.3701 -0.016810  0.0141    1.3842   
     3. B(N   3,C   1)                1.4081  0.010857 -0.0102    1.3979   
     4. B(C   4,N   3)                1.3590  0.000004 -0.0005    1.3585   
     5. B(C   4,N   2)                1.3817  0.018014 -0.0156    1.3662   
     6. B(H   5,C   0)                1.0725 -0.012479  0.0153    1.0877   
     7. B(H   6,C   1)                1.0692 -0.015845  0.0192    1.0883   
     8. B(C   7,N   2)                1.4436 -0.003820  0.0040    1.4476   
     9. B(C   8,N   3)                1.4598  0.012765 -0.0140    1.4457   
    10. B(H   9,C   7)                1.0892 -0.006188  0.0080    1.0972   
    11. B(H  10,C   8)                1.1178  0.011826 -0.0167    1.1011   
    12. B(H  11,C   8)                1.1404  0.023135 -0.0352    1.1052   
    13. B(H  12,C   7)                1.1206  0.012331 -0.0176    1.1030   
    14. B(H  13,C   7)                1.1056  0.005556 -0.0076    1.0980   
    15. B(H  14,C   8)                1.1214  0.015845 -0.0227    1.0987   
    16. A(C   1,C   0,N   2)          106.21  0.001097    0.29    106.50   
    17. A(N   2,C   0,H   5)          125.04  0.002684   -0.46    124.58   
    18. A(C   1,C   0,H   5)          128.06 -0.004351    0.57    128.63   
    19. A(N   3,C   1,H   6)          118.40 -0.015382    1.95    120.35   
    20. A(C   0,C   1,N   3)          108.37  0.018324   -2.06    106.31   
    21. A(C   0,C   1,H   6)          132.32 -0.002883    0.13    132.45   
    22. A(C   4,N   2,C   7)          124.31  0.008698   -1.13    123.18   
    23. A(C   0,N   2,C   4)          111.38 -0.006579    1.08    112.46   
    24. A(C   0,N   2,C   7)          123.91 -0.002400    0.27    124.19   
    25. A(C   4,N   3,C   8)          125.90  0.014918   -1.88    124.03   
    26. A(C   1,N   3,C   8)          125.02  0.009032   -1.15    123.86   
    27. A(C   1,N   3,C   4)          108.99 -0.024039    3.12    112.11   
    28. A(N   2,C   4,N   3)          103.93  0.009349   -1.06    102.87   
    29. A(N   2,C   7,H   9)          109.98  0.001971   -0.31    109.67   
    30. A(H  12,C   7,H  13)          109.48  0.003594   -0.54    108.94   
    31. A(H   9,C   7,H  13)          108.75 -0.001747    0.10    108.85   
    32. A(N   2,C   7,H  13)          111.41  0.004750   -0.77    110.63   
    33. A(H   9,C   7,H  12)          109.94  0.003779   -0.47    109.48   
    34. A(N   2,C   7,H  12)          107.26 -0.012303    1.99    109.26   
    35. A(N   3,C   8,H  10)          108.38 -0.003500    0.59    108.98   
    36. A(H  11,C   8,H  14)          109.06 -0.000460   -0.04    109.02   
    37. A(H  10,C   8,H  14)          110.07  0.002001   -0.23    109.84   
    38. A(N   3,C   8,H  14)          107.21 -0.002945    0.44    107.65   
    39. A(H  10,C   8,H  11)          108.30 -0.001378    0.26    108.56   
    40. A(N   3,C   8,H  11)          113.79  0.006299   -1.02    112.77   
    41. D(H   6,C   1,C   0,H   5)     18.89  0.003636   -2.66     16.23   
    42. D(N   3,C   1,C   0,N   2)     -1.81 -0.000608    0.26     -1.55   
    43. D(N   3,C   1,C   0,H   5)   -172.58  0.002806   -2.34   -174.91   
    44. D(H   6,C   1,C   0,N   2)   -170.34  0.000221   -0.06   -170.40   
    45. D(C   7,N   2,C   0,C   1)   -178.96  0.003251   -2.26   -181.21   
    46. D(C   4,N   2,C   0,H   5)    179.18  0.000969   -1.57    177.61   
    47. D(C   7,N   2,C   0,H   5)     -7.83 -0.000855    0.36     -7.47   
    48. D(C   4,N   2,C   0,C   1)      8.05  0.005075   -4.19      3.87   
    49. D(C   8,N   3,C   1,H   6)    -11.43 -0.003284    2.33     -9.10   
    50. D(C   4,N   3,C   1,H   6)    165.37 -0.004591    3.93    169.31   
    51. D(C   8,N   3,C   1,C   0)    178.19 -0.003555    2.22    180.41   
    52. D(C   4,N   3,C   1,C   0)     -5.01 -0.004862    3.82     -1.18   
    53. D(N   2,C   4,N   3,C   1)      9.42  0.007075   -6.05      3.38   
    54. D(N   3,C   4,N   2,C   7)    176.14 -0.006924    4.60    180.74   
    55. D(N   3,C   4,N   2,C   0)    -10.90 -0.009689    6.65     -4.24   
    56. D(N   2,C   4,N   3,C   8)   -173.81  0.005501   -4.39   -178.20   
    57. D(H  13,C   7,N   2,C   4)    -50.68 -0.000767    1.00    -49.68   
    58. D(H  13,C   7,N   2,C   0)    137.23  0.002475   -1.34    135.89   
    59. D(H  12,C   7,N   2,C   4)     69.12 -0.001356    1.15     70.27   
    60. D(H  12,C   7,N   2,C   0)   -102.98  0.001886   -1.19   -104.17   
    61. D(H   9,C   7,N   2,C   4)   -171.34 -0.003004    1.59   -169.75   
    62. D(H   9,C   7,N   2,C   0)     16.56  0.000238   -0.75     15.81   
    63. D(H  14,C   8,N   3,C   4)     27.14  0.002547   -1.56     25.59   
    64. D(H  14,C   8,N   3,C   1)   -156.59 -0.000224    0.48   -156.11   
    65. D(H  11,C   8,N   3,C   4)    -93.54  0.001260   -1.18    -94.72   
    66. D(H  11,C   8,N   3,C   1)     82.73 -0.001511    0.86     83.59   
    67. D(H  10,C   8,N   3,C   4)    145.92  0.001418   -1.27    144.66   
    68. D(H  10,C   8,N   3,C   1)    -37.81 -0.001353    0.77    -37.04   
    ----------------------------------------------------------------------------

         *************************************************************
         *                GEOMETRY OPTIMIZATION CYCLE   2            *
         *************************************************************
---------------------------------
CARTESIAN COORDINATES (ANGSTROEM)
---------------------------------
  C      0.184385    0.649790   -1.205240
  C      0.052362   -0.688257   -1.201939
  N      0.040568    1.060668    0.108728
  N     -0.134731   -1.059953    0.132740
  C     -0.098269    0.009404    0.969767
  H      0.270820    1.321703   -2.056243
  H      0.220996   -1.445303   -1.965431
  C      0.140688    2.436739    0.546856
  C     -0.310666   -2.426052    0.572028
  H      0.061028    3.106466   -0.318576
  H     -0.908828   -2.968588   -0.176440
  H      0.648260   -2.958198    0.708970
  H      1.113893    2.590761    1.042633
  H     -0.662585    2.676428    1.256051
  H     -0.846630   -2.401277    1.530856

----------------------------
CARTESIAN COORDINATES (A.U.)
----------------------------
  NO LB      ZA    FRAG     MASS         X           Y           Z
   0 C     6.0000    0    12.011    0.348437    1.227925   -2.277574
   1 C     6.0000    0    12.011    0.098950   -1.300617   -2.271335
   2 N     7.0000    0    14.007    0.076662    2.004372    0.205466
   3 N     7.0000    0    14.007   -0.254604   -2.003020    0.250843
   4 C     6.0000    0    12.011   -0.185701    0.017770    1.832593
   5 H     1.0000    0     1.008    0.511775    2.497657   -3.885737
   6 H     1.0000    0     1.008    0.417621   -2.731228   -3.714126
   7 C     6.0000    0    12.011    0.265862    4.604770    1.033409
   8 C     6.0000    0    12.011   -0.587074   -4.584573    1.080977
   9 H     1.0000    0     1.008    0.115326    5.870369   -0.602021
  10 H     1.0000    0     1.008   -1.717436   -5.609818   -0.333423
  11 H     1.0000    0     1.008    1.225033   -5.590184    1.339758
  12 H     1.0000    0     1.008    2.104953    4.895828    1.970291
  13 H     1.0000    0     1.008   -1.252105    5.057715    2.373593
  14 H     1.0000    0     1.008   -1.599899   -4.537756    2.892898

--------------------------------
INTERNAL COORDINATES (ANGSTROEM)
--------------------------------
 C      0   0   0     0.000000000000     0.00000000     0.00000000
 C      1   0   0     1.344548444856     0.00000000     0.00000000
 N      1   2   0     1.384202230242   106.43131125     0.00000000
 N      2   1   3     1.398045026368   106.26420724   358.46091426
 C      4   2   1     1.358479108648   112.04575788   358.84579194
 H      1   2   3     1.087724698625   128.64259889   186.59121823
 H      2   1   3     1.088336493524   132.47738987   189.61533870
 C      3   1   2     1.447602556471   124.21372416   178.76170526
 C      4   2   1     1.445736351655   123.88910650   180.37848929
 H      8   3   1     1.097202011893   109.66293934    15.82471690
 H      9   4   2     1.101066957399   108.97513082   322.95388531
 H      9   4   2     1.105202091254   112.76995727    83.57797565
 H      8   3   1     1.103016665326   109.25642878   255.83786862
 H      8   3   1     1.098023472156   110.63351440   135.90165472
 H      9   4   2     1.098735993250   107.65082258   203.87907760

---------------------------
INTERNAL COORDINATES (A.U.)
---------------------------
 C      0   0   0     0.000000000000     0.00000000     0.00000000
 C      1   0   0     2.540828334568     0.00000000     0.00000000
 N      1   2   0     2.615763129119   106.43131125     0.00000000
 N      2   1   3     2.641922222727   106.26420724   358.46091426
 C      4   2   1     2.567153473999   112.04575788   358.84579194
 H      1   2   3     2.055501789504   128.64259889   186.59121823
 H      2   1   3     2.056657914312   132.47738987   189.61533870
 C      3   1   2     2.735572382495   124.21372416   178.76170526
 C      4   2   1     2.732045766482   123.88910650   180.37848929
 H      8   3   1     2.073411316066   109.66293934    15.82471690
 H      9   4   2     2.080715004593   108.97513082   322.95388531
 H      9   4   2     2.088529275107   112.76995727    83.57797565
 H      8   3   1     2.084399418618   109.25642878   255.83786862
 H      8   3   1     2.074963650992   110.63351440   135.90165472
 H      9   4   2     2.076310120724   107.65082258   203.87907760



           ************************************************************
           *        Program running with 8 parallel MPI-processes     *
           *              working on a common directory               *
           ************************************************************
------------------------------------------------------------------------------
                   ___                                                        
                  /   \      - P O W E R E D   B Y -                         
                 /     \                                                     
                 |  |  |   _    _      __       _____    __    __             
                 |  |  |  | |  | |    /  \     |  _  \  |  |  /  |          
                  \  \/   | |  | |   /    \    | | | |  |  | /  /          
                 / \  \   | |__| |  /  /\  \   | |_| |  |  |/  /          
                |  |  |   |  __  | /  /__\  \  |    /   |      \           
                |  |  |   | |  | | |   __   |  |    \   |  |\   \          
                \     /   | |  | | |  |  |  |  | |\  \  |  | \   \       
                 \___/    |_|  |_| |__|  |__|  |_| \__\ |__|  \__/        
                                                                              
                      - O R C A' S   B I G   F R I E N D -                    
[...]
      4       0.124476   0.001815   0.001926  -0.012130  -0.018679   0.097807
      5       0.035963  -0.005371  -0.002697   0.034585   0.024485  -0.133310
      6      -0.021722  -0.002778   0.014122  -0.015273   0.018011  -0.008408
      7      -0.290511   0.001805  -0.005193   0.010966   0.003315  -0.244394
      8      -0.026328  -0.001605   0.005998   0.054796  -0.059278  -0.052010
      9       0.037538   0.011669   0.002544   0.016478   0.019075  -0.040367
     10       0.285735  -0.003317  -0.000615   0.007168  -0.009541  -0.239722
     11      -0.028050   0.013110   0.005075  -0.048536  -0.062622   0.056970
     12       0.028328   0.001086   0.001210   0.001941  -0.014911   0.021381
     13      -0.002779  -0.001979   0.000951   0.009251   0.003156   0.216343
     14      -0.095744  -0.003056  -0.002408  -0.002521   0.050847  -0.002762
     15      -0.033861  -0.002692   0.003686  -0.000755  -0.001355   0.036925
     16      -0.130857  -0.002726  -0.005089   0.057597  -0.007160  -0.372294
     17       0.069774  -0.002336  -0.002808   0.020222   0.001091  -0.237498
     18      -0.008088   0.002552  -0.001849   0.012418   0.000981  -0.107071
     19       0.133835  -0.007019  -0.003320   0.055802   0.008463  -0.360472
     20       0.069935   0.003008   0.001467  -0.021148   0.001955   0.245739
     21      -0.002348  -0.010498   0.044888  -0.006730   0.005342   0.000556
     22       0.211487  -0.001354   0.004188  -0.044594   0.035270   0.048006
     23       0.064604  -0.004220   0.015505   0.008573  -0.006135   0.013823
     24      -0.036272   0.047702   0.010946   0.002133   0.001711   0.010105
     25      -0.201249   0.007314   0.000572  -0.040047  -0.037700   0.049334
     26       0.064157   0.010956   0.002645  -0.007404  -0.006753  -0.015306
     27      -0.002878   0.037079  -0.178673   0.376089  -0.338906   0.119075
     28      -0.143460  -0.042766   0.175419   0.309298  -0.288560   0.258431
     29      -0.271379  -0.090241   0.399666  -0.080483   0.068927   0.086185
     30      -0.027009  -0.122654  -0.030007  -0.288793  -0.309521  -0.060533
     31       0.107436  -0.231778  -0.050572   0.316228   0.358205   0.263194
     32      -0.184946   0.414645   0.094860   0.152814   0.154320  -0.077102
     33       0.148444   0.036794   0.011811   0.256290   0.281796   0.143409
     34       0.115422   0.101260   0.027903   0.299299   0.337194   0.243877
     35      -0.196668  -0.464883  -0.110384   0.198313   0.214735  -0.030060
     36       0.123383  -0.022212   0.100306  -0.180197   0.162980  -0.097608
     37      -0.124190   0.049787  -0.225638   0.355566  -0.330282   0.287807
     38      -0.153891   0.106536  -0.432806  -0.290321   0.255778   0.021901
     39      -0.020949   0.154481  -0.652558  -0.042623   0.036275   0.013101
     40      -0.442809  -0.003175   0.038649  -0.209663   0.194301   0.108747
     41       0.084242   0.050788  -0.217969  -0.002095   0.002988   0.013356
     42      -0.012937  -0.662477  -0.154144  -0.088930  -0.089132   0.010403
     43       0.413322   0.080508   0.025514  -0.192795  -0.213459   0.107001
     44       0.052490  -0.176220  -0.041078  -0.021867  -0.019643  -0.014841
                 36         37         38         39         40         41    
      0       0.023195   0.000020   0.000021  -0.000227  -0.000012  -0.000090
      1       0.414494  -0.000270  -0.000879   0.000071   0.000018  -0.000322
      2       0.054970  -0.000121  -0.000343  -0.000128   0.000002   0.000216
      3      -0.057607  -0.000050   0.000193   0.000015  -0.000246  -0.000115
      4      -0.411071  -0.000212   0.000869   0.000005   0.000003  -0.000056
      5       0.061236   0.000131  -0.000374   0.000001  -0.000077   0.000311
      6      -0.016999   0.000051  -0.000145  -0.000401  -0.000079  -0.000061
      7      -0.138082   0.000032  -0.000258   0.000119   0.000019   0.000074
      8       0.011406  -0.000266   0.000257  -0.000087  -0.000031   0.000243
      9       0.010906  -0.000100  -0.000012  -0.000037  -0.000405   0.000057
     10       0.139519   0.000056   0.000280   0.000004   0.000113  -0.000275
     11       0.009611   0.000265   0.000258  -0.000003  -0.000146  -0.000273
     12       0.010982  -0.000175  -0.000134   0.000210   0.000232   0.000025
     13      -0.001616  -0.001531   0.000053  -0.000025  -0.000037  -0.000154
     14      -0.037199   0.000017   0.000457   0.000070   0.000060  -0.000130
     15       0.132874   0.001541   0.000375   0.001086   0.000628   0.000645
     16      -0.132739   0.004965   0.001742  -0.000663  -0.000113   0.001671
     17      -0.480328  -0.003629  -0.000676   0.000895   0.000242  -0.001632
     18       0.154344  -0.000582   0.000029   0.000508   0.001315   0.000295
     19       0.103471   0.005037  -0.001936  -0.000148  -0.000024  -0.002649
     20      -0.487171   0.003429  -0.000746   0.000031   0.000607  -0.001687
     21       0.007567   0.004651   0.004420   0.089612   0.005226   0.003140
     22       0.025455   0.036814   0.035171  -0.009784  -0.000572   0.001769
     23      -0.015452  -0.001153  -0.001024   0.029712   0.001740  -0.008929
     24       0.001349   0.003690  -0.003908  -0.005300   0.091085   0.021652
     25      -0.026955   0.035108  -0.036950   0.000568  -0.009743  -0.023339
     26      -0.015026   0.000815  -0.000786  -0.001461   0.025071  -0.087427
     27       0.034754   0.291379   0.277462  -0.427261  -0.024906   0.018031
     28       0.114077  -0.249870  -0.238445   0.383238   0.022292  -0.014991
     29       0.044595   0.264736   0.252139  -0.408095  -0.023811   0.015803
     30       0.013643  -0.340234   0.357097   0.030721  -0.527215   0.205030
     31      -0.116772  -0.173009   0.182032   0.016483  -0.282070   0.100781
     32       0.041741  -0.231136   0.242513   0.021747  -0.373851   0.133927
     33      -0.055572   0.365984  -0.383989   0.033149  -0.569199  -0.233142
     34      -0.111406  -0.249290   0.262082  -0.023270   0.398531   0.156521
     35       0.024767  -0.045298   0.047519  -0.004916   0.084732   0.025067
     36      -0.032672  -0.436709  -0.415998  -0.646569  -0.037681  -0.025677
     37       0.120251  -0.174147  -0.166329  -0.267110  -0.015512  -0.009995
     38       0.020775   0.021154   0.020125   0.044934   0.002655   0.000772
     39      -0.000292   0.091771   0.087351   0.010703   0.000695  -0.029858
     40      -0.042720  -0.008283  -0.007818  -0.001136  -0.000073   0.002970
     41      -0.017710  -0.274521  -0.261299   0.010202   0.000575   0.089592
     42       0.010539  -0.069418   0.072793  -0.000860   0.015774  -0.228520
     43       0.042192   0.010362  -0.010946   0.000102  -0.001767   0.031854
     44      -0.016992   0.268977  -0.282072   0.000502  -0.007980   0.881985
                 42         43         44    
      0      -0.000049  -0.016939  -0.018750
      1       0.000140  -0.036337  -0.048955
      2       0.000281   0.044783   0.046791
      3      -0.000010   0.009834  -0.008483
      4       0.000354  -0.041466   0.050745
      5       0.000155  -0.045973   0.044437
      6       0.000118   0.000135   0.000697
      7       0.000249  -0.000490  -0.001056
      8      -0.000336  -0.000598  -0.002644
      9      -0.000100  -0.000255   0.000863
     10      -0.000002  -0.000481   0.000843
     11       0.000304   0.000711  -0.002643
     12       0.000052   0.000179   0.000246
     13       0.000189   0.001914   0.000009
     14      -0.000113   0.000001  -0.000846
     15       0.000638   0.193028   0.199406
     16       0.002227   0.431397   0.452595
     17      -0.001472  -0.504439  -0.519016
     18       0.000289  -0.109012   0.103210
     19      -0.001348   0.484967  -0.471327
     20      -0.001345   0.517184  -0.493558
     21       0.030388  -0.000034  -0.000163
     22       0.017100  -0.000423  -0.000164
     23      -0.086224   0.000180   0.000595
     24      -0.002235  -0.000004  -0.000128
     25       0.002414  -0.000428   0.000167
     26       0.009038  -0.000184   0.000583
     27       0.174742  -0.002660  -0.001813
     28      -0.145880   0.002873   0.002000
     29       0.153350  -0.001794  -0.000975
     30      -0.021299   0.003077  -0.001891
     31      -0.010509   0.002126  -0.001325
     32      -0.013917   0.001445  -0.000608
     33       0.024142  -0.002717   0.001454
     34      -0.016273   0.002662  -0.001628
     35      -0.002598  -0.000188   0.000348
     36      -0.249233   0.002924   0.001771
     37      -0.097436   0.001873   0.001277
     38       0.007609   0.000342   0.000469
     39      -0.288529  -0.000638   0.000840
     40       0.028435   0.001048   0.001536
     41       0.865851   0.002183  -0.002069
     42       0.023612   0.000643   0.000387
     43      -0.003313   0.000956  -0.001640
     44      -0.091157  -0.002088  -0.002135


-----------
IR SPECTRUM
-----------

 Mode   freq       eps      Int      T**2         TX        TY        TZ
       cm**-1   L/(mol*cm) km/mol    a.u.
----------------------------------------------------------------------------
  6:     92.33   0.000092    0.47  0.000312  ( 0.016615  0.000418  0.005947)
  7:     98.14   0.000001    0.00  0.000002  (-0.001089  0.000970  0.000500)
  8:    195.60   0.003420   17.28  0.005456  ( 0.070340 -0.007856  0.021127)
  9:    276.94   0.000005    0.02  0.000006  (-0.001584  0.000055 -0.001730)
 10:    296.67   0.000691    3.49  0.000727  ( 0.007627 -0.001255 -0.025823)
 11:    445.66   0.001870    9.45  0.001310  ( 0.003980  0.035968 -0.000214)
 12:    633.88   0.000013    0.07  0.000006  ( 0.002483 -0.000352  0.000318)
 13:    637.13   0.000269    1.36  0.000132  ( 0.004848 -0.000479 -0.010394)
 14:    639.00   0.000204    1.03  0.000100  ( 0.001099 -0.000349 -0.009918)
 15:    738.63   0.009432   47.66  0.003985  (-0.060145  0.005365 -0.018403)
 16:    768.54   0.004633   23.41  0.001881  ( 0.004382  0.043148 -0.000325)
 17:    866.08   0.000032    0.16  0.000011  (-0.003302  0.000026 -0.000729)
 18:   1024.64   0.000257    1.30  0.000078  ( 0.000441  0.008818  0.000443)
 19:   1037.51   0.000047    0.24  0.000014  (-0.000938  0.000398  0.003609)
 20:   1082.41   0.000928    4.69  0.000268  (-0.004585  0.001325  0.015648)
 21:   1094.10   0.000114    0.58  0.000033  ( 0.001300  0.004824 -0.002761)
 22:   1102.67   0.001667    8.43  0.000472  ( 0.006235 -0.001213 -0.020773)
 23:   1148.35   0.000013    0.07  0.000004  (-0.000879  0.001630 -0.000323)
 24:   1151.53   0.000008    0.04  0.000002  ( 0.000517 -0.001384  0.000115)
 25:   1244.47   0.007939   40.12  0.001991  ( 0.004261  0.044407 -0.000728)
 26:   1376.00   0.000328    1.66  0.000074  (-0.000922 -0.008580  0.000124)
 27:   1410.22   0.000098    0.50  0.000022  (-0.001841 -0.000294  0.004269)
 28:   1429.01   0.001258    6.36  0.000275  ( 0.000911 -0.012633 -0.010690)
 29:   1431.42   0.001663    8.40  0.000362  (-0.005828 -0.016524  0.007449)
 30:   1453.01   0.000009    0.04  0.000002  ( 0.000548  0.000423 -0.001183)
 31:   1471.73   0.001112    5.62  0.000236  (-0.013396  0.004363 -0.006103)
 32:   1474.07   0.002765   13.97  0.000585  (-0.022322  0.005151 -0.007777)
 33:   1491.05   0.003177   16.06  0.000665  (-0.003654 -0.025459 -0.001849)
 34:   1494.42   0.005761   29.11  0.001203  (-0.011126  0.000844  0.032839)
 35:   1514.95   0.012064   60.97  0.002485  ( 0.005169  0.049581 -0.000379)
 36:   1666.36   0.000103    0.52  0.000019  (-0.001174  0.000128  0.004237)
 37:   3068.94   0.020201  102.09  0.002054  ( 0.004846  0.045062 -0.000219)
 38:   3069.81   0.000012    0.06  0.000001  (-0.000089 -0.001096  0.000156)
 39:   3159.43   0.003272   16.54  0.000323  ( 0.016971 -0.001807  0.005652)
 40:   3160.40   0.004143   20.94  0.000409  ( 0.019433 -0.002014  0.005236)
 41:   3216.54   0.000235    1.19  0.000023  ( 0.001069 -0.002029 -0.004183)
 42:   3217.40   0.000177    0.89  0.000017  ( 0.001386  0.002111 -0.003278)
 43:   3279.85   0.000286    1.45  0.000027  ( 0.000543  0.005184 -0.000200)
 44:   3302.75   0.000065    0.33  0.000006  (-0.000649  0.000325  0.002379)

* The epsilon (eps) is given for a Dirac delta lineshape.
** The dipole moment derivative (T) already includes vibrational overlap.

The first frequency considered to be a vibration is 6
The total number of vibrations considered is 39


--------------------------
THERMOCHEMISTRY AT 298.15K
--------------------------

Temperature         ... 298.15 K
Pressure            ... 1.00 atm
Total Mass          ... 96.13 AMU

Throughout the following assumptions are being made:
  (1) The electronic state is orbitally nondegenerate
  (2) There are no thermally accessible electronically excited states
  (3) Hindered rotations indicated by low frequency modes are not
      treated as such but are treated as vibrations and this may
      cause some error
  (4) All equations used are the standard statistical mechanics
      equations for an ideal gas
  (5) All vibrations are strictly harmonic

freq.      92.33  E(vib)   ...       0.47 
freq.      98.14  E(vib)   ...       0.46 
freq.     195.60  E(vib)   ...       0.36 
freq.     276.94  E(vib)   ...       0.28 
freq.     296.67  E(vib)   ...       0.27 
freq.     445.66  E(vib)   ...       0.17 
freq.     633.88  E(vib)   ...       0.09 
freq.     637.13  E(vib)   ...       0.09 
freq.     639.00  E(vib)   ...       0.09 
freq.     738.63  E(vib)   ...       0.06 
freq.     768.54  E(vib)   ...       0.06 
freq.     866.08  E(vib)   ...       0.04 
freq.    1024.64  E(vib)   ...       0.02 
freq.    1037.51  E(vib)   ...       0.02 
freq.    1082.41  E(vib)   ...       0.02 
freq.    1094.10  E(vib)   ...       0.02 
freq.    1102.67  E(vib)   ...       0.02 
freq.    1148.35  E(vib)   ...       0.01 
freq.    1151.53  E(vib)   ...       0.01 
freq.    1244.47  E(vib)   ...       0.01 
freq.    1376.00  E(vib)   ...       0.01 
freq.    1410.22  E(vib)   ...       0.00 
freq.    1429.01  E(vib)   ...       0.00 
freq.    1431.42  E(vib)   ...       0.00 
freq.    1453.01  E(vib)   ...       0.00 
freq.    1471.73  E(vib)   ...       0.00 
freq.    1474.07  E(vib)   ...       0.00 
freq.    1491.05  E(vib)   ...       0.00 
freq.    1494.42  E(vib)   ...       0.00 
freq.    1514.95  E(vib)   ...       0.00 
freq.    1666.36  E(vib)   ...       0.00 
freq.    3068.94  E(vib)   ...       0.00 
freq.    3069.81  E(vib)   ...       0.00 
freq.    3159.43  E(vib)   ...       0.00 
freq.    3160.40  E(vib)   ...       0.00 
freq.    3216.54  E(vib)   ...       0.00 
freq.    3217.40  E(vib)   ...       0.00 
freq.    3279.85  E(vib)   ...       0.00 
freq.    3302.75  E(vib)   ...       0.00 

------------
INNER ENERGY
------------

The inner energy is: U= E(el) + E(ZPE) + E(vib) + E(rot) + E(trans)
    E(el)   - is the total energy from the electronic structure calculation
              = E(kin-el) + E(nuc-el) + E(el-el) + E(nuc-nuc)
    E(ZPE)  - the the zero temperature vibrational energy from the frequency calculation
    E(vib)  - the the finite temperature correction to E(ZPE) due to population
              of excited vibrational states
    E(rot)  - is the rotational thermal energy
    E(trans)- is the translational thermal energy

Summary of contributions to the inner energy U:
Electronic energy                ...   -304.50006561 Eh
Zero point energy                ...      0.12817344 Eh      80.43 kcal/mol
Thermal vibrational correction   ...      0.00412697 Eh       2.59 kcal/mol
Thermal rotational correction    ...      0.00141627 Eh       0.89 kcal/mol
Thermal translational correction ...      0.00141627 Eh       0.89 kcal/mol
-----------------------------------------------------------------------
Total thermal energy                   -304.36493265 Eh


Summary of corrections to the electronic energy:
(perhaps to be used in another calculation)
Total thermal correction                  0.00695952 Eh       4.37 kcal/mol
Non-thermal (ZPE) correction              0.12817344 Eh      80.43 kcal/mol
-----------------------------------------------------------------------
Total correction                          0.13513296 Eh      84.80 kcal/mol


--------
ENTHALPY
--------

The enthalpy is H = U + kB*T
                kB is Boltzmann's constant
Total free energy                 ...   -304.36493265 Eh 
Thermal Enthalpy correction       ...      0.00094421 Eh       0.59 kcal/mol
-----------------------------------------------------------------------
Total Enthalpy                    ...   -304.36398844 Eh


Note: Only C1 symmetry has been detected, increase convergence thresholds 
      if your molecule has a higher symmetry. Symmetry factor of 1.0 is   
      used for the rotational entropy correction. 
 

Note: Rotational entropy computed according to Herzberg 
Infrared and Raman Spectra, Chapter V,1, Van Nostrand Reinhold, 1945 
Point Group:  C1, Symmetry Number:   1  
Rotational constants in cm-1:     0.233618     0.070445     0.055272 

Vibrational entropy computed according to the QRRHO of S. Grimme
Chem.Eur.J. 2012 18 9955


-------
ENTROPY
-------

The entropy contributions are T*S = T*(S(el)+S(vib)+S(rot)+S(trans))
     S(el)   - electronic entropy
     S(vib)  - vibrational entropy
     S(rot)  - rotational entropy
     S(trans)- translational entropy
The entropies will be listed as multiplied by the temperature to get
units of energy

Electronic entropy                ...      0.00000000 Eh      0.00 kcal/mol
Vibrational entropy               ...      0.00705511 Eh      4.43 kcal/mol
Rotational entropy                ...      0.01281662 Eh      8.04 kcal/mol
Translational entropy             ...      0.01881539 Eh     11.81 kcal/mol
-----------------------------------------------------------------------
Final entropy term                ...      0.03868712 Eh     24.28 kcal/mol

In case the symmetry of your molecule has not been determined correctly
or in case you have a reason to use a different symmetry number we print 
out the resulting rotational entropy values for sn=1,12 :
 --------------------------------------------------------
|  sn= 1 | S(rot)=       0.01281662 Eh      8.04 kcal/mol|
|  sn= 2 | S(rot)=       0.01216216 Eh      7.63 kcal/mol|
|  sn= 3 | S(rot)=       0.01177933 Eh      7.39 kcal/mol|
|  sn= 4 | S(rot)=       0.01150770 Eh      7.22 kcal/mol|
|  sn= 5 | S(rot)=       0.01129702 Eh      7.09 kcal/mol|
|  sn= 6 | S(rot)=       0.01112487 Eh      6.98 kcal/mol|
|  sn= 7 | S(rot)=       0.01097933 Eh      6.89 kcal/mol|
|  sn= 8 | S(rot)=       0.01085325 Eh      6.81 kcal/mol|
|  sn= 9 | S(rot)=       0.01074204 Eh      6.74 kcal/mol|
|  sn=10 | S(rot)=       0.01064256 Eh      6.68 kcal/mol|
|  sn=11 | S(rot)=       0.01055257 Eh      6.62 kcal/mol|
|  sn=12 | S(rot)=       0.01047042 Eh      6.57 kcal/mol|
 --------------------------------------------------------


-------------------
GIBBS FREE ENERGY
-------------------

The Gibbs free energy is G = H - T*S

Total enthalpy                    ...   -304.36398844 Eh 
Total entropy correction          ...     -0.03868712 Eh    -24.28 kcal/mol
-----------------------------------------------------------------------
Final Gibbs free energy         ...   -304.40267556 Eh

For completeness - the Gibbs free energy minus the electronic energy
G-E(el)                           ...      0.09739005 Eh     61.11 kcal/mol


Timings for individual modules:

Sum of individual times         ...      408.003 sec (=   6.800 min)
GTO integral calculation        ...       11.682 sec (=   0.195 min)   2.9 %
SCF iterations                  ...      280.748 sec (=   4.679 min)  68.8 %
SCF Gradient evaluation         ...       66.656 sec (=   1.111 min)  16.3 %
Geometry relaxation             ...        0.750 sec (=   0.013 min)   0.2 %
Analytical frequency calculation...       48.166 sec (=   0.803 min)  11.8 %
                             ****ORCA TERMINATED NORMALLY****
TOTAL RUN TIME: 0 days 0 hours 7 minutes 15 seconds 534 msec
