
                                 *****************
                                 * O   R   C   A *
                                 *****************

                                            #,                                       
                                            ###                                      
                                            ####                                     
                                            #####                                    
                                            ######                                   
                                           ########,                                 
                                     ,,################,,,,,                         
                               ,,#################################,,                 
                          ,,##########################################,,             
                       ,#########################################, ''#####,          
                    ,#############################################,,   '####,        
                  ,##################################################,,,,####,       
                ,###########''''           ''''###############################       
              ,#####''   ,,,,##########,,,,          '''####'''          '####       
            ,##' ,,,,###########################,,,                        '##       
           ' ,,###''''                  '''############,,,                           
         ,,##''                                '''############,,,,        ,,,,,,###''
      ,#''                                            '''#######################'''  
     '                                                          ''''####''''         
             ,#######,   #######,   ,#######,      ##                                
            ,#'     '#,  ##    ##  ,#'     '#,    #''#        ######   ,####,        
            ##       ##  ##   ,#'  ##            #'  '#       #        #'  '#        
            ##       ##  #######   ##           ,######,      #####,   #    #        
            '#,     ,#'  ##    ##  '#,     ,#' ,#      #,         ##   #,  ,#        
             '#######'   ##     ##  '#######'  #'      '#     #####' # '####'        



                  #######################################################
                  #                        -***-                        #
                  #          Department of theory and spectroscopy      #
                  #    Directorship and core code : Frank Neese         #
                  #        Max Planck Institute fuer Kohlenforschung    #
                  #                Kaiser Wilhelm Platz 1               #
                  #                 D-45470 Muelheim/Ruhr               #
                  #                      Germany                        #
                  #                                                     #
                  #                  All rights reserved                #
                  #                        -***-                        #
                  #######################################################


                         Program Version 5.0.3 -  RELEASE  -


 With contributions from (in alphabetic order):
   Daniel Aravena         : Magnetic Suceptibility
   Michael Atanasov       : Ab Initio Ligand Field Theory (pilot matlab implementation)
   Alexander A. Auer      : GIAO ZORA, VPT2 properties, NMR spectrum
   Ute Becker             : Parallelization
   Giovanni Bistoni       : ED, misc. LED, open-shell LED, HFLD
   Martin Brehm           : Molecular dynamics
   Dmytro Bykov           : SCF Hessian
   Vijay G. Chilkuri      : MRCI spin determinant printing, contributions to CSF-ICE
   Dipayan Datta          : RHF DLPNO-CCSD density
   Achintya Kumar Dutta   : EOM-CC, STEOM-CC
   Dmitry Ganyushin       : Spin-Orbit,Spin-Spin,Magnetic field MRCI
   Miquel Garcia          : C-PCM and meta-GGA Hessian, CC/C-PCM, Gaussian charge scheme
   Yang Guo               : DLPNO-NEVPT2, F12-NEVPT2, CIM, IAO-localization
   Andreas Hansen         : Spin unrestricted coupled pair/coupled cluster methods
   Benjamin Helmich-Paris : MC-RPA, TRAH-SCF, COSX integrals
   Lee Huntington         : MR-EOM, pCC
   Robert Izsak           : Overlap fitted RIJCOSX, COSX-SCS-MP3, EOM
   Marcus Kettner         : VPT2
   Christian Kollmar      : KDIIS, OOCD, Brueckner-CCSD(T), CCSD density, CASPT2, CASPT2-K
   Simone Kossmann        : Meta GGA functionals, TD-DFT gradient, OOMP2, MP2 Hessian
   Martin Krupicka        : Initial AUTO-CI
   Lucas Lang             : DCDCAS
   Marvin Lechner         : AUTO-CI (C++ implementation), FIC-MRCC
   Dagmar Lenk            : GEPOL surface, SMD
   Dimitrios Liakos       : Extrapolation schemes; Compound Job, initial MDCI parallelization
   Dimitrios Manganas     : Further ROCIS development; embedding schemes
   Dimitrios Pantazis     : SARC Basis sets
   Anastasios Papadopoulos: AUTO-CI, single reference methods and gradients
   Taras Petrenko         : DFT Hessian,TD-DFT gradient, ASA, ECA, R-Raman, ABS, FL, XAS/XES, NRVS
   Peter Pinski           : DLPNO-MP2, DLPNO-MP2 Gradient
   Christoph Reimann      : Effective Core Potentials
   Marius Retegan         : Local ZFS, SOC
   Christoph Riplinger    : Optimizer, TS searches, QM/MM, DLPNO-CCSD(T), (RO)-DLPNO pert. Triples
   Tobias Risthaus        : Range-separated hybrids, TD-DFT gradient, RPA, STAB
   Michael Roemelt        : Original ROCIS implementation
   Masaaki Saitow         : Open-shell DLPNO-CCSD energy and density
   Barbara Sandhoefer     : DKH picture change effects
   Avijit Sen             : IP-ROCIS
   Kantharuban Sivalingam : CASSCF convergence, NEVPT2, FIC-MRCI
   Bernardo de Souza      : ESD, SOC TD-DFT
   Georgi Stoychev        : AutoAux, RI-MP2 NMR, DLPNO-MP2 response
   Willem Van den Heuvel  : Paramagnetic NMR
   Boris Wezisla          : Elementary symmetry handling
   Frank Wennmohs         : Technical directorship


 We gratefully acknowledge several colleagues who have allowed us to
 interface, adapt or use parts of their codes:
   Stefan Grimme, W. Hujo, H. Kruse, P. Pracht,  : VdW corrections, initial TS optimization,
                  C. Bannwarth, S. Ehlert          DFT functionals, gCP, sTDA/sTD-DF
   Ed Valeev, F. Pavosevic, A. Kumar             : LibInt (2-el integral package), F12 methods
   Garnet Chan, S. Sharma, J. Yang, R. Olivares  : DMRG
   Ulf Ekstrom                                   : XCFun DFT Library
   Mihaly Kallay                                 : mrcc  (arbitrary order and MRCC methods)
   Jiri Pittner, Ondrej Demel                    : Mk-CCSD
   Frank Weinhold                                : gennbo (NPA and NBO analysis)
   Christopher J. Cramer and Donald G. Truhlar   : smd solvation model
   Lars Goerigk                                  : TD-DFT with DH, B97 family of functionals
   V. Asgeirsson, H. Jonsson                     : NEB implementation
   FAccTs GmbH                                   : IRC, NEB, NEB-TS, DLPNO-Multilevel, CI-OPT
                                                   MM, QMMM, 2- and 3-layer-ONIOM, Crystal-QMMM,
                                                   LR-CPCM, SF, NACMEs, symmetry and pop. for TD-DFT,
                                                   nearIR, NL-DFT gradient (VV10), updates on ESD,
                                                   ML-optimized integration grids
   S Lehtola, MJT Oliveira, MAL Marques          : LibXC Library
   Liviu Ungur et al                             : ANISO software


 Your calculation uses the libint2 library for the computation of 2-el integrals
 For citations please refer to: http://libint.valeyev.net

 Your ORCA version has been built with support for libXC version: 5.1.0
 For citations please refer to: https://tddft.org/programs/libxc/

 This ORCA versions uses:
   CBLAS   interface :  Fast vector & matrix operations
   LAPACKE interface :  Fast linear algebra routines
   SCALAPACK package :  Parallel linear algebra routines
   Shared memory     :  Shared parallel matrices
   BLAS/LAPACK       :  OpenBLAS 0.3.15  USE64BITINT DYNAMIC_ARCH NO_AFFINITY SkylakeX SINGLE_THREADED
        Core in use  :  SkylakeX
   Copyright (c) 2011-2014, The OpenBLAS Project


Your calculation utilizes the atom-pairwise dispersion correction
based on tight binding partial charges (D4)
Cite in your paper:
E.Caldeweyher, C.Bannwarth, S.Grimme, J.Chem.Phys., (2017), 147, 034112.
E.Caldeweyher, S.Ehlert, A.Hansen, H.Neugebauer, S.Grimme, J.Chem.Phys., (2018), in progress.
   

XCFun DFT library Copyright 2009-2010 Ulf Ekstrom and contributors.
See http://admol.org/xcfun for more information.
This is free software; see the source code for copying conditions.
There is ABSOLUTELY NO WARRANTY; not even for MERCHANTABILITY or FITNESS FOR A PARTICULAR PURPOSE.
For details see the documentation.
Scientific users of this library should cite U. Ekstrom, L. Visscher, R. Bast, A. J. Thorvaldsen and K. Ruud;
J.Chem.Theor.Comp. 2010, DOI: 10.1021/ct100117s
XCFun Version 0.99 

================================================================================

----- Orbital basis set information -----
Your calculation utilizes the basis: def2-SVP
   F. Weigend and R. Ahlrichs, Phys. Chem. Chem. Phys. 7, 3297 (2005).

----- AuxJ basis set information -----
Your calculation utilizes the auxiliary basis: def2/J
   F. Weigend, Phys. Chem. Chem. Phys. 8, 1057 (2006).

================================================================================
                                        WARNINGS
                       Please study these warnings very carefully!
================================================================================


WARNING: Geometry Optimization
  ===> : Switching off AutoStart
         For restart on a previous wavefunction, please use MOREAD

INFO   : the flag for use of the SHARK integral package has been found!

================================================================================
                                       INPUT FILE
================================================================================
NAME = Min_496.inp
|  1> ! Opt FREQ wB97X D4 Def2-SVP SlowConv TightSCF DEFGRID2 Def2/J RIJCOSX
|  2> %MAXCORE 4000
|  3> %scf MaxIter 20000 end
|  4> %geom
|  5> MaxIter 500
|  6> end
|  7> %PAL NPROCS 8 END
|  8> 
|  9> * xyz 0 1
| 10> C -0.17208 0.82631 -1.67329
| 11> C -0.20057 -0.48029 -1.77061
| 12> C -0.1674 -0.04205 0.40587
| 13> H -0.10078 1.49126 -2.50163
| 14> H -0.16906 -1.00043 -2.7517
| 15> N -0.13198 1.14507 -0.35362
| 16> N -0.21454 -1.04185 -0.50564
| 17> C 0.1393 2.38771 0.31214
| 18> C -0.86651 3.35004 0.49444
| 19> C 1.49413 2.67458 0.64431
| 20> C -0.50765 4.61523 0.97934
| 21> C 1.79686 3.94562 1.07598
| 22> C 0.82902 4.96505 1.10852
| 23> H -1.21135 5.38851 0.9862
| 24> H 2.81624 4.13629 1.34628
| 25> H 1.0675 6.02 1.29047
| 26> C -0.30227 -2.40087 -0.18608
| 27> C -1.31614 -3.15498 -0.74609
| 28> C 0.77127 -2.96956 0.5077
| 29> C -1.25273 -4.52438 -0.58053
| 30> C 0.78271 -4.32988 0.74983
| 31> C -0.23003 -5.10952 0.16495
| 32> H -2.03605 -5.20192 -0.9773
| 33> H 1.61907 -4.76975 1.21753
| 34> H -0.24018 -6.16843 0.35668
| 35> C 2.46711 1.5027 0.50409
| 36> H 2.14396 0.70934 1.16553
| 37> H 2.34556 1.08657 -0.49148
| 38> H 3.55674 1.76582 0.67605
| 39> C 1.74197 -2.09242 1.16503
| 40> H 2.21207 -1.40018 0.46934
| 41> H 1.2167 -1.50883 1.92725
| 42> H 2.45094 -2.61726 1.80256
| 43> C -2.32514 3.28614 -0.02972
| 44> H -2.32254 3.76324 -1.00566
| 45> H -2.59097 2.25021 -0.20982
| 46> H -3.13267 3.71226 0.56921
| 47> C -2.31884 -2.46137 -1.67725
| 48> H -2.61847 -1.44275 -1.30698
| 49> H -1.81458 -2.27015 -2.62878
| 50> H -3.15076 -3.07691 -1.93426
| 51> **                         ****END OF INPUT****
================================================================================

                       *****************************
                       * Geometry Optimization Run *
                       *****************************

Geometry optimization settings:
Update method            Update   .... BFGS
Choice of coordinates    CoordSys .... Z-matrix Internals
Initial Hessian          InHess   .... Almoef's Model

Convergence Tolerances:
Energy Change            TolE     ....  5.0000e-06 Eh
Max. Gradient            TolMAXG  ....  3.0000e-04 Eh/bohr
RMS Gradient             TolRMSG  ....  1.0000e-04 Eh/bohr
Max. Displacement        TolMAXD  ....  4.0000e-03 bohr
RMS Displacement         TolRMSD  ....  2.0000e-03 bohr
Strict Convergence                ....  False
------------------------------------------------------------------------------
                        ORCA OPTIMIZATION COORDINATE SETUP
------------------------------------------------------------------------------

The optimization will be done in new redundant internal coordinates
Making redundant internal coordinates   ...  (new redundants) done
Evaluating the initial hessian          ...  (Almloef) done
Evaluating the coordinates              ...  done
Calculating the B-matrix                .... done
Calculating the G-matrix                .... done
Diagonalizing the G-matrix              .... done
Small eigenvalue found = 3.080e-03
Small eigenvalue found = 6.406e-03
Small eigenvalue found = 9.798e-03
Small eigenvalue found = 1.310e-02
Small eigenvalue found = 1.718e-02
The first mode is                       ....   95
The number of degrees of freedom        ....  117

    -----------------------------------------------------------------
                    Redundant Internal Coordinates


    -----------------------------------------------------------------
         Definition                    Initial Value    Approx d2E/dq
    -----------------------------------------------------------------
      1. B(C   1,C   0)                  1.3105         0.836622   
      2. B(H   3,C   0)                  1.0646         0.395308   
      3. B(H   4,C   1)                  1.1109         0.333499   
      4. B(N   5,C   2)                  1.4097         0.520476   
      5. B(N   5,C   0)                  1.3582         0.628910   
      6. B(N   6,C   2)                  1.3538         0.639279   
      7. B(N   6,C   1)                  1.3841         0.571888   
      8. B(C   7,N   5)                  1.4356         0.473264   
      9. B(C   8,C   7)                  1.4039         0.593669   
     10. B(C   9,C   7)                  1.4241         0.551136   
     11. B(C  10,C   8)                  1.4016         0.598627   
     12. B(C  11,C   9)                  1.3761         0.657638   
     13. B(C  12,C  11)                  1.4061         0.588996   
     14. B(C  12,C  10)                  1.3877         0.630067   
     15. B(H  13,C  10)                  1.0456         0.423954   
     16. B(H  14,C  11)                  1.0717         0.385133   
     17. B(H  15,C  12)                  1.0968         0.351258   
     18. B(C  16,N   6)                  1.3988         0.541718   
     19. B(C  17,C  16)                  1.3821         0.643173   
     20. B(C  18,C  16)                  1.3990         0.604456   
     21. B(C  19,C  17)                  1.3808         0.646206   
     22. B(C  20,C  18)                  1.3817         0.644026   
     23. B(C  21,C  20)                  1.4055         0.590109   
     24. B(C  21,C  19)                  1.3943         0.615027   
     25. B(H  22,C  19)                  1.1091         0.335713   
     26. B(H  23,C  20)                  1.0544         0.410436   
     27. B(H  24,C  21)                  1.0762         0.378860   
     28. B(C  25,C   9)                  1.5296         0.374134   
     29. B(H  26,C  25)                  1.0823         0.370447   
     30. B(H  27,C  25)                  1.0859         0.365615   
     31. B(H  28,C  25)                  1.1341         0.306285   
     32. B(C  29,C  18)                  1.4641         0.475825   
     33. B(H  30,C  29)                  1.0882         0.362492   
     34. B(H  31,C  29)                  1.0943         0.354473   
     35. B(H  32,C  29)                  1.0884         0.362268   
     36. B(C  33,C   8)                  1.5513         0.345500   
     37. B(H  34,C  33)                  1.0863         0.365002   
     38. B(H  35,C  33)                  1.0846         0.367380   
     39. B(H  36,C  33)                  1.0920         0.357502   
     40. B(C  37,C  17)                  1.5341         0.367947   
     41. B(H  38,C  37)                  1.1245         0.317253   
     42. B(H  39,C  37)                  1.0937         0.355195   
     43. B(H  40,C  37)                  1.0663         0.392831   
     44. A(C   1,C   0,N   5)          107.8654         0.456427   
     45. A(H   3,C   0,N   5)          127.4036         0.357187   
     46. A(C   1,C   0,H   3)          124.4996         0.377455   
     47. A(H   4,C   1,N   6)          128.1315         0.341570   
     48. A(C   0,C   1,H   4)          122.1259         0.366566   
     49. A(C   0,C   1,N   6)          109.6857         0.448608   
     50. A(N   5,C   2,N   6)          105.0724         0.417500   
     51. A(C   0,N   5,C   7)          131.2472         0.409318   
     52. A(C   0,N   5,C   2)          108.9709         0.416287   
     53. A(C   2,N   5,C   7)          118.9341         0.395887   
     54. A(C   2,N   6,C  16)          124.4633         0.420488   
     55. A(C   1,N   6,C  16)          127.1279         0.412235   
     56. A(C   1,N   6,C   2)          108.3835         0.424579   
     57. A(N   5,C   7,C   9)          117.5349         0.402468   
     58. A(C   8,C   7,C   9)          120.8773         0.421708   
     59. A(N   5,C   7,C   8)          121.2091         0.407787   
     60. A(C   7,C   8,C  33)          126.9802         0.388336   
     61. A(C   7,C   8,C  10)          118.7002         0.427991   
     62. A(C  10,C   8,C  33)          113.2544         0.388900   
     63. A(C   7,C   9,C  11)          117.9382         0.429504   
     64. A(C   7,C   9,C  25)          115.4318         0.388694   
     65. A(C  11,C   9,C  25)          126.6186         0.400921   
     66. A(C  12,C  10,H  13)          117.4666         0.363842   
     67. A(C   8,C  10,H  13)          119.8370         0.360677   
     68. A(C   8,C  10,C  12)          120.4214         0.432587   
     69. A(C   9,C  11,C  12)          121.7034         0.434663   
     70. A(C  12,C  11,H  14)          121.3254         0.353861   
     71. A(C   9,C  11,H  14)          116.9178         0.360552   
     72. A(C  11,C  12,H  15)          123.4734         0.348399   
     73. A(C  10,C  12,H  15)          117.8628         0.352387   
     74. A(C  10,C  12,C  11)          118.5610         0.431328   
     75. A(C  17,C  16,C  18)          122.8233         0.434950   
     76. A(N   6,C  16,C  18)          117.3927         0.419028   
     77. A(N   6,C  16,C  17)          118.9165         0.423698   
     78. A(C  16,C  17,C  19)          117.3122         0.440219   
     79. A(C  19,C  17,C  37)          123.4470         0.398515   
     80. A(C  16,C  17,C  37)          118.6006         0.398186   
     81. A(C  20,C  18,C  29)          120.3731         0.416811   
     82. A(C  16,C  18,C  29)          119.2000         0.412140   
     83. A(C  16,C  18,C  20)          119.5672         0.435054   
     84. A(C  21,C  19,H  22)          116.9328         0.348280   
     85. A(C  17,C  19,H  22)          122.0403         0.351199   
     86. A(C  17,C  19,C  21)          120.9296         0.436680   
     87. A(C  21,C  20,H  23)          121.6491         0.357818   
     88. A(C  18,C  20,H  23)          119.6704         0.363190   
     89. A(C  18,C  20,C  21)          117.8528         0.433177   
     90. A(C  20,C  21,H  24)          118.5841         0.352991   
     91. A(C  19,C  21,H  24)          120.0843         0.355474   
     92. A(C  19,C  21,C  20)          121.2119         0.429607   
     93. A(H  27,C  25,H  28)          109.6024         0.284249   
     94. A(H  26,C  25,H  28)          111.3638         0.284830   
     95. A(C   9,C  25,H  28)          114.8046         0.315930   
     96. A(H  26,C  25,H  27)          104.2403         0.292838   
     97. A(C   9,C  25,H  27)          107.8453         0.325210   
     98. A(C   9,C  25,H  26)          108.4005         0.325913   
     99. A(H  31,C  29,H  32)           99.3140         0.290395   
    100. A(H  30,C  29,H  32)          113.5681         0.291417   
    101. A(C  18,C  29,H  32)          113.9513         0.337902   
    102. A(H  30,C  29,H  31)          108.2651         0.290423   
    103. A(C  18,C  29,H  31)          108.2986         0.336679   
    104. A(C  18,C  29,H  30)          112.3638         0.337937   
    105. A(C   8,C  33,H  36)          119.6006         0.319816   
    106. A(H  34,C  33,H  35)          105.7178         0.292377   
    107. A(C   8,C  33,H  35)          109.0216         0.321244   
    108. A(C   8,C  33,H  34)          106.4523         0.320903   
    109. A(H  35,C  33,H  36)          106.4129         0.291424   
    110. A(H  34,C  33,H  36)          108.8529         0.291127   
    111. A(H  39,C  37,H  40)          104.5327         0.294215   
    112. A(H  38,C  37,H  40)          113.2279         0.289035   
    113. A(C  17,C  37,H  40)          113.2800         0.328175   
    114. A(H  38,C  37,H  39)          104.5334         0.284526   
    115. A(C  17,C  37,H  39)          107.8036         0.322785   
    116. A(C  17,C  37,H  38)          112.5724         0.316883   
    117. D(H   4,C   1,C   0,N   5)   -175.9209         0.051084   
    118. D(H   4,C   1,C   0,H   3)     -1.1010         0.051084   
    119. D(N   6,C   1,C   0,N   5)      1.5449         0.051084   
    120. D(N   6,C   1,C   0,H   3)    176.3648         0.051084   
    121. D(C   7,N   5,C   0,C   1)    167.7295         0.032101   
    122. D(C   2,N   5,C   0,H   3)   -175.9667         0.032101   
    123. D(C   2,N   5,C   0,C   1)     -1.3414         0.032101   
    124. D(C   0,N   5,C   2,N   6)      0.6057         0.019507   
    125. D(C   7,N   5,C   2,N   6)   -170.0201         0.019507   
    126. D(C   7,N   5,C   0,H   3)     -6.8959         0.032101   
    127. D(C   1,N   6,C   2,N   5)      0.3191         0.030123   
    128. D(C  16,N   6,C   1,C   0)    177.0433         0.026185   
    129. D(C  16,N   6,C   1,H   4)     -5.6852         0.026185   
    130. D(C  16,N   6,C   2,N   5)   -177.9620         0.030123   
    131. D(C   2,N   6,C   1,H   4)    176.0922         0.026185   
    132. D(C   2,N   6,C   1,C   0)     -1.1792         0.026185   
    133. D(C   9,C   7,N   5,C   2)     78.4194         0.017659   
    134. D(C   9,C   7,N   5,C   0)    -89.7588         0.017659   
    135. D(C   8,C   7,N   5,C   2)   -108.5861         0.017659   
    136. D(C   8,C   7,N   5,C   0)     83.2358         0.017659   
    137. D(C  33,C   8,C   7,C   9)    168.9514         0.024269   
    138. D(C  33,C   8,C   7,N   5)     -3.8095         0.024269   
    139. D(C  10,C   8,C   7,C   9)      1.6027         0.024269   
    140. D(C  10,C   8,C   7,N   5)   -171.1583         0.024269   
    141. D(C  25,C   9,C   7,C   8)    175.2195         0.020782   
    142. D(C  25,C   9,C   7,N   5)    -11.7615         0.020782   
    143. D(C  11,C   9,C   7,C   8)     -3.6323         0.020782   
    144. D(C  11,C   9,C   7,N   5)    169.3868         0.020782   
    145. D(H  13,C  10,C   8,C   7)    170.7897         0.024698   
    146. D(C  12,C  10,C   8,C  33)   -160.6723         0.024698   
    147. D(C  12,C  10,C   8,C   7)      8.3498         0.024698   
    148. D(H  13,C  10,C   8,C  33)      1.7676         0.024698   
    149. D(H  14,C  11,C   9,C  25)     -0.2841         0.030163   
    150. D(H  14,C  11,C   9,C   7)    178.4239         0.030163   
    151. D(C  12,C  11,C   9,C  25)    177.0913         0.030163   
    152. D(C  12,C  11,C   9,C   7)     -4.2008         0.030163   
    153. D(H  15,C  12,C  11,H  14)      7.4432         0.023870   
    154. D(C  10,C  12,C  11,H  14)   -168.7878         0.023870   
    155. D(C  10,C  12,C  11,C   9)     13.9519         0.023870   
    156. D(H  15,C  12,C  10,H  13)      4.7807         0.027525   
    157. D(C  11,C  12,C  10,H  13)   -178.7752         0.027525   
    158. D(H  15,C  12,C  11,C   9)   -169.8171         0.023870   
    159. D(H  15,C  12,C  10,C   8)    167.6255         0.027525   
    160. D(C  11,C  12,C  10,C   8)    -15.9304         0.027525   
    161. D(C  18,C  16,N   6,C   2)    -64.0122         0.023353   
    162. D(C  18,C  16,N   6,C   1)    118.0337         0.023353   
    163. D(C  17,C  16,N   6,C   2)    126.3441         0.023353   
    164. D(C  17,C  16,N   6,C   1)    -51.6100         0.023353   
    165. D(C  37,C  17,C  16,C  18)   -170.1103         0.028761   
    166. D(C  37,C  17,C  16,N   6)     -1.0593         0.028761   
    167. D(C  19,C  17,C  16,C  18)      1.0392         0.028761   
    168. D(C  19,C  17,C  16,N   6)    170.0901         0.028761   
    169. D(C  29,C  18,C  16,C  17)   -174.9222         0.025208   
    170. D(C  29,C  18,C  16,N   6)     15.8703         0.025208   
    171. D(C  20,C  18,C  16,C  17)     -5.4939         0.025208   
    172. D(C  20,C  18,C  16,N   6)   -174.7015         0.025208   
    173. D(H  22,C  19,C  17,C  37)    -10.7184         0.029051   
    174. D(H  22,C  19,C  17,C  16)    178.5985         0.029051   
    175. D(C  21,C  19,C  17,C  37)    172.9793         0.029051   
    176. D(C  21,C  19,C  17,C  16)      2.2962         0.029051   
    177. D(H  23,C  20,C  18,C  16)    176.0898         0.028842   
    178. D(C  21,C  20,C  18,C  29)    175.6347         0.028842   
    179. D(C  21,C  20,C  18,C  16)      6.3325         0.028842   
    180. D(H  23,C  20,C  18,C  29)    -14.6080         0.028842   
    181. D(H  24,C  21,C  20,H  23)     11.2784         0.023965   
    182. D(H  24,C  21,C  20,C  18)   -179.1786         0.023965   
    183. D(C  19,C  21,C  20,H  23)   -172.6968         0.023965   
    184. D(C  19,C  21,C  20,C  18)     -3.1538         0.023965   
    185. D(H  24,C  21,C  19,H  22)     -1.7653         0.026149   
    186. D(H  24,C  21,C  19,C  17)    174.7192         0.026149   
    187. D(C  20,C  21,C  19,H  22)   -177.7310         0.026149   
    188. D(C  20,C  21,C  19,C  17)     -1.2465         0.026149   
    189. D(H  28,C  25,C   9,C  11)     -6.7703         0.010466   
    190. D(H  28,C  25,C   9,C   7)    174.4936         0.010466   
    191. D(H  27,C  25,C   9,C  11)   -129.2537         0.010466   
    192. D(H  27,C  25,C   9,C   7)     52.0102         0.010466   
    193. D(H  26,C  25,C   9,C  11)    118.4471         0.010466   
    194. D(H  26,C  25,C   9,C   7)    -60.2889         0.010466   
    195. D(H  32,C  29,C  18,C  20)      1.8385         0.016693   
    196. D(H  32,C  29,C  18,C  16)    171.1796         0.016693   
    197. D(H  31,C  29,C  18,C  20)   -107.6382         0.016693   
    198. D(H  31,C  29,C  18,C  16)     61.7030         0.016693   
    199. D(H  30,C  29,C  18,C  20)    132.8231         0.016693   
    200. D(H  30,C  29,C  18,C  16)    -57.8357         0.016693   
    201. D(H  36,C  33,C   8,C  10)    -46.7195         0.009042   
    202. D(H  36,C  33,C   8,C   7)    145.3499         0.009042   
    203. D(H  35,C  33,C   8,C  10)   -169.3751         0.009042   
    204. D(H  35,C  33,C   8,C   7)     22.6943         0.009042   
    205. D(H  34,C  33,C   8,C  10)     77.0100         0.009042   
    206. D(H  34,C  33,C   8,C   7)    -90.9206         0.009042   
    207. D(H  40,C  37,C  17,C  19)     18.7961         0.010146   
    208. D(H  40,C  37,C  17,C  16)   -170.6336         0.010146   
    209. D(H  39,C  37,C  17,C  19)    -96.3598         0.010146   
    210. D(H  39,C  37,C  17,C  16)     74.2104         0.010146   
    211. D(H  38,C  37,C  17,C  19)    148.8733         0.010146   
    212. D(H  38,C  37,C  17,C  16)    -40.5564         0.010146   
    -----------------------------------------------------------------

Number of atoms                         .... 41
Number of degrees of freedom            .... 212

         *************************************************************
         *                GEOMETRY OPTIMIZATION CYCLE   1            *
         *************************************************************
---------------------------------
CARTESIAN COORDINATES (ANGSTROEM)
---------------------------------
  C     -0.172080    0.826310   -1.673290
  C     -0.200570   -0.480290   -1.770610
  C     -0.167400   -0.042050    0.405870
  H     -0.100780    1.491260   -2.501630
  H     -0.169060   -1.000430   -2.751700
  N     -0.131980    1.145070   -0.353620
  N     -0.214540   -1.041850   -0.505640
  C      0.139300    2.387710    0.312140
  C     -0.866510    3.350040    0.494440
  C      1.494130    2.674580    0.644310
  C     -0.507650    4.615230    0.979340
  C      1.796860    3.945620    1.075980
  C      0.829020    4.965050    1.108520
  H     -1.211350    5.388510    0.986200
  H      2.816240    4.136290    1.346280
  H      1.067500    6.020000    1.290470
  C     -0.302270   -2.400870   -0.186080
  C     -1.316140   -3.154980   -0.746090
  C      0.771270   -2.969560    0.507700
  C     -1.252730   -4.524380   -0.580530
  C      0.782710   -4.329880    0.749830
  C     -0.230030   -5.109520    0.164950
  H     -2.036050   -5.201920   -0.977300
  H      1.619070   -4.769750    1.217530
  H     -0.240180   -6.168430    0.356680
  C      2.467110    1.502700    0.504090
  H      2.143960    0.709340    1.165530
  H      2.345560    1.086570   -0.491480
  H      3.556740    1.765820    0.676050
  C      1.741970   -2.092420    1.165030
  H      2.212070   -1.400180    0.469340
  H      1.216700   -1.508830    1.927250
  H      2.450940   -2.617260    1.802560
  C     -2.325140    3.286140   -0.029720
  H     -2.322540    3.763240   -1.005660
  H     -2.590970    2.250210   -0.209820
  H     -3.132670    3.712260    0.569210
  C     -2.318840   -2.461370   -1.677250
  H     -2.618470   -1.442750   -1.306980
  H     -1.814580   -2.270150   -2.628780
  H     -3.150760   -3.076910   -1.934260

----------------------------
CARTESIAN COORDINATES (A.U.)
----------------------------
  NO LB      ZA    FRAG     MASS         X           Y           Z
   0 C     6.0000    0    12.011   -0.325184    1.561500   -3.162060
   1 C     6.0000    0    12.011   -0.379022   -0.907617   -3.345968
   2 C     6.0000    0    12.011   -0.316340   -0.079463    0.766983
   3 H     1.0000    0     1.008   -0.190447    2.818073   -4.727396
   4 H     1.0000    0     1.008   -0.319477   -1.890539   -5.199959
   5 N     7.0000    0    14.007   -0.249406    2.163869   -0.668245
   6 N     7.0000    0    14.007   -0.405422   -1.968811   -0.955521
   7 C     6.0000    0    12.011    0.263239    4.512118    0.589859
   8 C     6.0000    0    12.011   -1.637467    6.330658    0.934356
   9 C     6.0000    0    12.011    2.823497    5.054224    1.217569
  10 C     6.0000    0    12.011   -0.959319    8.721521    1.850684
  11 C     6.0000    0    12.011    3.395573    7.456141    2.033308
  12 C     6.0000    0    12.011    1.566621    9.382585    2.094799
  13 H     1.0000    0     1.008   -2.289120   10.182808    1.863648
  14 H     1.0000    0     1.008    5.321922    7.816455    2.544100
  15 H     1.0000    0     1.008    2.017283   11.376151    2.438635
  16 C     6.0000    0    12.011   -0.571208   -4.536987   -0.351640
  17 C     6.0000    0    12.011   -2.487144   -5.962048   -1.409906
  18 C     6.0000    0    12.011    1.457489   -5.611655    0.959414
  19 C     6.0000    0    12.011   -2.367317   -8.549839   -1.097043
  20 C     6.0000    0    12.011    1.479108   -8.182287    1.416973
  21 C     6.0000    0    12.011   -0.434694   -9.655593    0.311710
  22 H     1.0000    0     1.008   -3.847577   -9.830204   -1.846829
  23 H     1.0000    0     1.008    3.059599   -9.013521    2.300798
  24 H     1.0000    0     1.008   -0.453874  -11.656643    0.674028
  25 C     6.0000    0    12.011    4.662162    2.839691    0.952592
  26 H     1.0000    0     1.008    4.051497    1.340458    2.202533
  27 H     1.0000    0     1.008    4.432466    2.053320   -0.928763
  28 H     1.0000    0     1.008    6.721265    3.336916    1.277549
  29 C     6.0000    0    12.011    3.291846   -3.954101    2.201588
  30 H     1.0000    0     1.008    4.180206   -2.645957    0.886924
  31 H     1.0000    0     1.008    2.299230   -2.851275    3.641975
  32 H     1.0000    0     1.008    4.631605   -4.945905    3.406345
  33 C     6.0000    0    12.011   -4.393878    6.209905   -0.056163
  34 H     1.0000    0     1.008   -4.388965    7.111493   -1.900422
  35 H     1.0000    0     1.008   -4.896224    4.252281   -0.396502
  36 H     1.0000    0     1.008   -5.919888    7.015155    1.075651
  37 C     6.0000    0    12.011   -4.381973   -4.651315   -3.169543
  38 H     1.0000    0     1.008   -4.948191   -2.726402   -2.469834
  39 H     1.0000    0     1.008   -3.429059   -4.289962   -4.967674
  40 H     1.0000    0     1.008   -5.954074   -5.814517   -3.655222

--------------------------------
INTERNAL COORDINATES (ANGSTROEM)
--------------------------------
 C      0   0   0     0.000000000000     0.00000000     0.00000000
 C      1   0   0     1.310529062059     0.00000000     0.00000000
 C      2   1   0     2.220409812827    74.34210708     0.00000000
 H      1   2   3     1.064607602875   124.49957284   175.65628524
 H      2   1   3     1.110889773020   122.12594994   183.24270343
 N      1   2   3     1.358213847853   107.86537562     0.83636696
 N      3   2   1     1.353762423655    36.26606652   178.84690990
 C      6   1   2     1.435612547173   131.24718187   167.72947947
 C      8   6   1     1.403910992549   121.20906052    83.23576816
 C      8   6   1     1.424147336023   117.53488178   270.24124457
 C      9   8   6     1.401646976132   118.70015747   188.84174109
 C     10   8   6     1.376054912930   117.93819644   169.38676432
 C     11   9   8     1.387713296650   120.42142573     8.34980949
 H     11   9   8     1.045563344805   119.83704546   170.78968147
 H     12  10   8     1.071705520794   116.91783878   178.42385519
 H     13  11   9     1.096767074360   117.86284592   167.62550350
 C      7   3   2     1.398838985337   124.46331803   181.71882457
 C     17   7   3     1.382109065559   118.91650519   126.34408235
 C     17   7   3     1.399009340962   117.39267699   295.98779194
 C     18  17   7     1.380828483810   117.31220342   170.09011300
 C     19  17   7     1.381748281309   119.56721583   185.29852733
 C     20  18  17     1.394289977013   120.92960590     2.29617511
 H     20  18  17     1.109088412571   122.04029099   178.59845180
 H     21  19  17     1.054384634040   119.67036185   176.08978345
 H     22  20  18     1.076175544927   120.08428096   174.71917735
 C     10   8   6     1.529592907672   115.43176571   348.23850772
 H     26  10   8     1.082288725664   108.40045202   299.71105160
 H     26  10   8     1.085862884668   107.84527911    52.01023549
 H     26  10   8     1.134061688313   114.80462860   174.49362292
 C     19  17   7     1.464143366785   119.19998352    15.87025210
 H     30  19  17     1.088197961632   112.36377619   302.16431613
 H     30  19  17     1.094287525927   108.29863812    61.70300445
 H     30  19  17     1.088365741559   113.95129275   171.17963665
 C      9   8   6     1.551266705792   126.98024820   356.19045831
 H     34   9   8     1.086319498858   106.45231480   269.07936926
 H     34   9   8     1.084551780138   109.02159146    22.69429015
 H     34   9   8     1.091970741458   119.60063958   145.34992015
 C     18  17   7     1.534132024208   118.60060610   358.94066862
 H     38  18  17     1.124484199178   112.57240134   319.44356543
 H     38  18  17     1.093733320741   107.80364206    74.21043516
 H     38  18  17     1.066318206775   113.28004734   189.36640234

---------------------------
INTERNAL COORDINATES (A.U.)
---------------------------
 C      0   0   0     0.000000000000     0.00000000     0.00000000
 C      1   0   0     2.476541017835     0.00000000     0.00000000
 C      2   1   0     4.195966451315    74.34210708     0.00000000
 H      1   2   3     2.011816809525   124.49957284   175.65628524
 H      2   1   3     2.099277435981   122.12594994   183.24270343
 N      1   2   3     2.566652203742   107.86537562     0.83636696
 N      3   2   1     2.558240231101    36.26606652   178.84690990
 C      6   1   2     2.712914548578   131.24718187   167.72947947
 C      8   6   1     2.653007292319   121.20906052    83.23576816
 C      8   6   1     2.691248439436   117.53488178   270.24124457
 C      9   8   6     2.648728921328   118.70015747   188.84174109
 C     10   8   6     2.600366930675   117.93819644   169.38676432
 C     11   9   8     2.622398083070   120.42142573     8.34980949
 H     11   9   8     1.975828377348   119.83704546   170.78968147
 H     12  10   8     2.025229930512   116.91783878   178.42385519
 H     13  11   9     2.072589403242   117.86284592   167.62550350
 C      7   3   2     2.643422587740   124.46331803   181.71882457
 C     17   7   3     2.611807621116   118.91650519   126.34408235
 C     17   7   3     2.643744513217   117.39267699   295.98779194
 C     18  17   7     2.609387672318   117.31220342   170.09011300
 C     19  17   7     2.611125837690   119.56721583   185.29852733
 C     20  18  17     2.634826207827   120.92960590     2.29617511
 H     20  18  17     2.095873358065   122.04029099   178.59845180
 H     21  19  17     1.992498198151   119.67036185   176.08978345
 H     22  20  18     2.033677051936   120.08428096   174.71917735
 C     10   8   6     2.890511691888   115.43176571   348.23850772
 H     26  10   8     2.045229289336   108.40045202   299.71105160
 H     26  10   8     2.051983471013   107.84527911    52.01023549
 H     26  10   8     2.143066009884   114.80462860   174.49362292
 C     19  17   7     2.766829984021   119.19998352    15.87025210
 H     30  19  17     2.056396126976   112.36377619   302.16431613
 H     30  19  17     2.067903735769   108.29863812    61.70300445
 H     30  19  17     2.056713185089   113.95129275   171.17963665
 C      9   8   6     2.931469234618   126.98024820   356.19045831
 H     34   9   8     2.052846346781   106.45231480   269.07936926
 H     34   9   8     2.049505842517   109.02159146    22.69429015
 H     34   9   8     2.063525647610   119.60063958   145.34992015
 C     18  17   7     2.899089379031   118.60060610   358.94066862
 H     38  18  17     2.124967178367   112.57240134   319.44356543
 H     38  18  17     2.066856439745   107.80364206    74.21043516
 H     38  18  17     2.015049382419   113.28004734   189.36640234

---------------------
BASIS SET INFORMATION
---------------------
There are 3 groups of distinct atoms

 Group   1 Type C   : 7s4p1d contracted to 3s2p1d pattern {511/31/1}
 Group   2 Type H   : 4s1p contracted to 2s1p pattern {31/1}
 Group   3 Type N   : 7s4p1d contracted to 3s2p1d pattern {511/31/1}

Atom   0C    basis set group =>   1
Atom   1C    basis set group =>   1
Atom   2C    basis set group =>   1
Atom   3H    basis set group =>   2
Atom   4H    basis set group =>   2
Atom   5N    basis set group =>   3
Atom   6N    basis set group =>   3
Atom   7C    basis set group =>   1
Atom   8C    basis set group =>   1
Atom   9C    basis set group =>   1
Atom  10C    basis set group =>   1
Atom  11C    basis set group =>   1
Atom  12C    basis set group =>   1
Atom  13H    basis set group =>   2
Atom  14H    basis set group =>   2
Atom  15H    basis set group =>   2
Atom  16C    basis set group =>   1
Atom  17C    basis set group =>   1
Atom  18C    basis set group =>   1
Atom  19C    basis set group =>   1
Atom  20C    basis set group =>   1
Atom  21C    basis set group =>   1
Atom  22H    basis set group =>   2
Atom  23H    basis set group =>   2
Atom  24H    basis set group =>   2
Atom  25C    basis set group =>   1
Atom  26H    basis set group =>   2
Atom  27H    basis set group =>   2
Atom  28H    basis set group =>   2
Atom  29C    basis set group =>   1
Atom  30H    basis set group =>   2
Atom  31H    basis set group =>   2
Atom  32H    basis set group =>   2
Atom  33C    basis set group =>   1
Atom  34H    basis set group =>   2
Atom  35H    basis set group =>   2
Atom  36H    basis set group =>   2
Atom  37C    basis set group =>   1
Atom  38H    basis set group =>   2
Atom  39H    basis set group =>   2
Atom  40H    basis set group =>   2
---------------------------------
AUXILIARY/J BASIS SET INFORMATION
---------------------------------
There are 3 groups of distinct atoms

 Group   1 Type C   : 12s5p4d2f1g contracted to 6s4p3d1f1g pattern {711111/2111/211/2/1}
 Group   2 Type H   : 5s2p1d contracted to 3s1p1d pattern {311/2/1}
 Group   3 Type N   : 12s5p4d2f1g contracted to 6s4p3d1f1g pattern {711111/2111/211/2/1}

Atom   0C    basis set group =>   1
Atom   1C    basis set group =>   1
Atom   2C    basis set group =>   1
Atom   3H    basis set group =>   2
Atom   4H    basis set group =>   2
Atom   5N    basis set group =>   3
Atom   6N    basis set group =>   3
Atom   7C    basis set group =>   1
Atom   8C    basis set group =>   1
Atom   9C    basis set group =>   1
Atom  10C    basis set group =>   1
Atom  11C    basis set group =>   1
Atom  12C    basis set group =>   1
Atom  13H    basis set group =>   2
Atom  14H    basis set group =>   2
Atom  15H    basis set group =>   2
Atom  16C    basis set group =>   1
Atom  17C    basis set group =>   1
Atom  18C    basis set group =>   1
Atom  19C    basis set group =>   1
Atom  20C    basis set group =>   1
Atom  21C    basis set group =>   1
Atom  22H    basis set group =>   2
Atom  23H    basis set group =>   2
Atom  24H    basis set group =>   2
Atom  25C    basis set group =>   1
Atom  26H    basis set group =>   2
Atom  27H    basis set group =>   2
Atom  28H    basis set group =>   2
Atom  29C    basis set group =>   1
Atom  30H    basis set group =>   2
Atom  31H    basis set group =>   2
Atom  32H    basis set group =>   2
Atom  33C    basis set group =>   1
Atom  34H    basis set group =>   2
Atom  35H    basis set group =>   2
Atom  36H    basis set group =>   2
Atom  37C    basis set group =>   1
Atom  38H    basis set group =>   2
Atom  39H    basis set group =>   2
Atom  40H    basis set group =>   2


           ************************************************************
           *        Program running with 8 parallel MPI-processes     *
           *              working on a common directory               *
           ************************************************************
------------------------------------------------------------------------------
                           ORCA GTO INTEGRAL CALCULATION
                           -- RI-GTO INTEGRALS CHOSEN --
------------------------------------------------------------------------------
------------------------------------------------------------------------------
                   ___                                                        
                  /   \      - P O W E R E D   B Y -                         
                 /     \                                                     
                 |  |  |   _    _      __       _____    __    __             
                 |  |  |  | |  | |    /  \     |  _  \  |  |  /  |          
                  \  \/   | |  | |   /    \    | | | |  |  | /  /          
                 / \  \   | |__| |  /  /\  \   | |_| |  |  |/  /          
                |  |  |   |  __  | /  /__\  \  |    /   |      \           
                |  |  |   | |  | | |   __   |  |    \   |  |\   \          
                \     /   | |  | | |  |  |  |  | |\  \  |  | \   \       
                 \___/    |_|  |_| |__|  |__|  |_| \__\ |__|  \__/        
                                                                              
                      - O R C A' S   B I G   F R I E N D -                    
                                      &                                       
                       - I N T E G R A L  F E E D E R -                       
                                                                              
 v1 FN, 2020, v2 2021                                                         
------------------------------------------------------------------------------


Reading SHARK input file Min_496.SHARKINP.tmp ... ok
----------------------
SHARK INTEGRAL PACKAGE
----------------------

Number of atoms                             ...     41
Number of basis functions                   ...    394
Number of shells                            ...    186
Maximum angular momentum                    ...      2
Integral batch strategy                     ... SHARK/LIBINT Hybrid
RI-J (if used) integral strategy            ... SPLIT-RIJ (Revised 2003 algorithm where possible)
Printlevel                                  ...      1
Contraction scheme used                     ... SEGMENTED contraction
Coulomb Range Separation                    ... NOT USED
Exchange Range Separation                   ... Long Range
   Mu parameter                             ...  0.300000
   Scaling (regular/separated)              ...  0.157706  0.842294
Finite Nucleus Model                        ... NOT USED
Auxiliary Coulomb fitting basis             ... AVAILABLE
   # of basis functions in Aux-J            ...   1249
   # of shells in Aux-J                     ...    415
   Maximum angular momentum in Aux-J        ...      4
Auxiliary J/K fitting basis                 ... NOT available
Auxiliary Correlation fitting basis         ... NOT available
Auxiliary 'external' fitting basis          ... NOT available
Integral threshold                          ...     2.500000e-11
Primitive cut-off                           ...     2.500000e-12
Primitive pair pre-selection threshold      ...     2.500000e-12

Calculating pre-screening integrals         ... done (  0.0 sec) Dimension = 186
Organizing shell pair data                  ... done (  0.1 sec)
Shell pair information
Total number of shell pairs                 ...     17391
Shell pairs after pre-screening             ...     13145
Total number of primitive shell pairs       ...     62461
Primitive shell pairs kept                  ...     30489
          la=0 lb=0:   4165 shell pairs
          la=1 lb=0:   4903 shell pairs
          la=1 lb=1:   1481 shell pairs
          la=2 lb=0:   1529 shell pairs
          la=2 lb=1:    914 shell pairs
          la=2 lb=2:    153 shell pairs

Calculating one electron integrals          ... done (  0.0 sec)
Calculating RI/J V-Matrix + Cholesky decomp.... done (  0.4 sec)
Calculating Nuclear repulsion               ... done (  0.0 sec) ENN=   1600.073293408470 Eh

SHARK setup successfully completed in   1.3 seconds

Maximum memory used throughout the entire GTOINT-calculation: 22.3 MB


           ************************************************************
           *        Program running with 8 parallel MPI-processes     *
           *              working on a common directory               *
           ************************************************************
-------------------------------------------------------------------------------
                                 ORCA SCF
-------------------------------------------------------------------------------

------------
SCF SETTINGS
------------
Hamiltonian:
 Density Functional     Method          .... DFT(GTOs)
 Exchange Functional    Exchange        .... WB97X
 Correlation Functional Correlation     .... WB97X
 Gradients option       PostSCFGGA      .... off
 Hybrid DFT is turned on
   Fraction HF Exchange ScalHFX         ....  0.157706
   Scaling of DF-GGA-X  ScalDFX         ....  0.000000
   Scaling of DF-GGA-C  ScalDFC         ....  1.000000
   Scaling of DF-LDA-C  ScalLDAC        ....  1.000000
   Perturbative correction              ....  0.000000
   Density functional embedding theory  .... OFF
 Long-range corrected/Screened/Range-Separated Hybrid DFT is turned on
   Amount of maximum screened exact exchange              ....  0.842294
   Range separation parameter mu (erf(mu*r12)/r12)        ....  0.300000
 RI-approximation to the Coulomb term is turned on
   Number of AuxJ basis functions       .... 1249
   RIJ-COSX (HFX calculated with COS-X)).... on


General Settings:
 Integral files         IntName         .... Min_496
 Hartree-Fock type      HFTyp           .... RHF
 Total Charge           Charge          ....    0
 Multiplicity           Mult            ....    1
 Number of Electrons    NEL             ....  148
 Basis Dimension        Dim             ....  394
 Nuclear Repulsion      ENuc            ....   1600.0732934085 Eh

Convergence Acceleration:
 DIIS                   CNVDIIS         .... on
   Start iteration      DIISMaxIt       ....     0
   Startup error        DIISStart       ....  0.200000
   # of expansion vecs  DIISMaxEq       ....     5
   Bias factor          DIISBfac        ....   1.050
   Max. coefficient     DIISMaxC        ....  10.000
 Trust-Rad. Augm. Hess. CNVTRAH         .... auto
   Auto Start mean grad. ratio tolernc. ....  1.125000
   Auto Start start iteration           ....    20
   Auto Start num. interpolation iter.  ....    10
   Max. Number of Micro iterations      ....    16
   Max. Number of Macro iterations      .... Maxiter - #DIIS iter
   Number of Davidson start vectors     ....     2
   Converg. threshold I  (grad. norm)   ....   1.000e-05
   Converg. threshold II (energy diff.) ....   1.000e-08
   Grad. Scal. Fac. for Micro threshold ....   0.100
   Minimum threshold for Micro iter.    ....   0.010
   NR start threshold (gradient norm)   ....   0.001
   Initial trust radius                 ....   0.400
   Minimum AH scaling param. (alpha)    ....   1.000
   Maximum AH scaling param. (alpha)    .... 1000.000
   Orbital update algorithm             .... Taylor
   White noise on init. David. guess    .... on
   Maximum white noise                  ....   0.010
   Quad. conv. algorithm                .... NR
 SOSCF                  CNVSOSCF        .... on
   Start iteration      SOSCFMaxIt      ....   150
   Startup grad/error   SOSCFStart      ....  0.001000
 Level Shifting         CNVShift        .... on
   Level shift para.    LevelShift      ....    0.2500
   Turn off err/grad.   ShiftErr        ....    0.0000
 Zerner damping         CNVZerner       .... off
 Static damping         CNVDamp         .... on
   Fraction old density DampFac         ....    0.8500
   Max. Damping (<1)    DampMax         ....    0.9800
   Min. Damping (>=0)   DampMin         ....    0.0000
   Turn off err/grad.   DampErr         ....    0.0300
 Fernandez-Rico         CNVRico         .... off

SCF Procedure:
 Maximum # iterations   MaxIter         .... 20000
 SCF integral mode      SCFMode         .... Direct
   Integral package                     .... SHARK and LIBINT hybrid scheme
 Reset frequency        DirectResetFreq ....    20
 Integral Threshold     Thresh          ....  2.500e-11 Eh
 Primitive CutOff       TCut            ....  2.500e-12 Eh

Convergence Tolerance:
 Convergence Check Mode ConvCheckMode   .... Total+1el-Energy
 Convergence forced     ConvForced      .... 0
 Energy Change          TolE            ....  1.000e-08 Eh
 1-El. energy change                    ....  1.000e-05 Eh
 Orbital Gradient       TolG            ....  1.000e-05
 Orbital Rotation angle TolX            ....  1.000e-05
 DIIS Error             TolErr          ....  5.000e-07


Diagonalization of the overlap matrix:
Smallest eigenvalue                        ... 2.273e-04
Time for diagonalization                   ...    0.023 sec
Threshold for overlap eigenvalues          ... 1.000e-08
Number of eigenvalues below threshold      ... 0
Time for construction of square roots      ...    0.018 sec
Total time needed                          ...    0.043 sec

Time for model grid setup =    0.474 sec

------------------------------
INITIAL GUESS: MODEL POTENTIAL
------------------------------
Loading Hartree-Fock densities                     ... done
Calculating cut-offs                               ... done
Initializing the effective Hamiltonian             ... done
Setting up the integral package (SHARK)            ... done
Starting the Coulomb interaction                   ... done (   0.2 sec)
Reading the grid                                   ... done
Mapping shells                                     ... done
Starting the XC term evaluation                    ... done (   0.1 sec)
  promolecular density results
     # of electrons  =    147.980412729
     EX              =   -116.242811252
     EC              =     -4.947643544
     EX+EC           =   -121.190454796
Transforming the Hamiltonian                       ... done (   0.0 sec)
Diagonalizing the Hamiltonian                      ... done (   0.0 sec)
Back transforming the eigenvectors                 ... done (   0.0 sec)
Now organizing SCF variables                       ... done
                      ------------------
                      INITIAL GUESS DONE (   1.0 sec)
                      ------------------
-------------------
DFT GRID GENERATION
-------------------

General Integration Accuracy     IntAcc      ... 4.388
Radial Grid Type                 RadialGrid  ... OptM3 with GC (2021)
Angular Grid (max. ang.)         AngularGrid ... 4 (Lebedev-302)
Angular grid pruning method      GridPruning ... 4 (adaptive)
Weight generation scheme         WeightScheme... Becke
Basis function cutoff            BFCut       ... 1.0000e-11
Integration weight cutoff        WCut        ... 1.0000e-14
Angular grids for H and He will be reduced by one unit
Partially contracted basis set               ... off
Rotationally invariant grid construction     ... off

Total number of grid points                  ...   188609
Total number of batches                      ...     2969
Average number of points per batch           ...       63
Average number of grid points per atom       ...     4600
Time for grid setup =    1.254 sec

--------------------
COSX GRID GENERATION
--------------------

GRIDX 1
-------
General Integration Accuracy     IntAcc      ... 3.816
Radial Grid Type                 RadialGrid  ... OptM3 with GC (2021)
Angular Grid (max. ang.)         AngularGrid ... 1 (Lebedev-50)
Angular grid pruning method      GridPruning ... 4 (adaptive)
Weight generation scheme         WeightScheme... Becke
Basis function cutoff            BFCut       ... 1.0000e-11
Integration weight cutoff        WCut        ... 1.0000e-14
Angular grids for H and He will be reduced by one unit
Partially contracted basis set               ... on
Rotationally invariant grid construction     ... off

Total number of grid points                  ...    23991
Total number of batches                      ...      393
Average number of points per batch           ...       61
Average number of grid points per atom       ...      585
UseSFitting                                  ... on

GRIDX 2
-------
General Integration Accuracy     IntAcc      ... 4.020
Radial Grid Type                 RadialGrid  ... OptM3 with GC (2021)
Angular Grid (max. ang.)         AngularGrid ... 2 (Lebedev-110)
Angular grid pruning method      GridPruning ... 4 (adaptive)
Weight generation scheme         WeightScheme... Becke
Basis function cutoff            BFCut       ... 1.0000e-11
Integration weight cutoff        WCut        ... 1.0000e-14
Angular grids for H and He will be reduced by one unit
Partially contracted basis set               ... on
Rotationally invariant grid construction     ... off

Total number of grid points                  ...    51359
Total number of batches                      ...      822
Average number of points per batch           ...       62
Average number of grid points per atom       ...     1253
UseSFitting                                  ... on

GRIDX 3
-------
General Integration Accuracy     IntAcc      ... 4.338
Radial Grid Type                 RadialGrid  ... OptM3 with GC (2021)
Angular Grid (max. ang.)         AngularGrid ... 3 (Lebedev-194)
Angular grid pruning method      GridPruning ... 4 (adaptive)
Weight generation scheme         WeightScheme... Becke
Basis function cutoff            BFCut       ... 1.0000e-11
Integration weight cutoff        WCut        ... 1.0000e-14
Angular grids for H and He will be reduced by one unit
Partially contracted basis set               ... on
Rotationally invariant grid construction     ... off

Total number of grid points                  ...   112040
Total number of batches                      ...     1771
Average number of points per batch           ...       63
Average number of grid points per atom       ...     2733
UseSFitting                                  ... on

Time for X-Grid setup             =    1.586 sec

--------------
SCF ITERATIONS
--------------
ITER       Energy         Delta-E        Max-DP      RMS-DP      [F,P]     Damp
               ***  Starting incremental Fock matrix formation  ***
  0   -844.2653610874   0.000000000000 0.03331791  0.00065965  0.1516307 0.8500
  1   -844.3449097246  -0.079548637263 0.03023198  0.00062203  0.1225631 0.8500
                               ***Turning on DIIS***
  2   -844.4065371254  -0.061627400796 0.02661441  0.00051650  0.0945059 0.8500
  3   -844.4530100613  -0.046472935882 0.02204529  0.00039123  0.0719735 0.8500
  4   -844.4891855652  -0.036175503871 0.01833886  0.00031150  0.0574488 0.8500
  5   -844.5178498922  -0.028664327057 0.01544607  0.00025945  0.0475915 0.8500
  6   -844.5411962717  -0.023346379431 0.01312047  0.00022000  0.0400820 0.8500
  7   -844.5605247604  -0.019328488737 0.01122835  0.00018887  0.0339737 0.8500
  8   -844.5766860463  -0.016161285897 0.06444831  0.00108039  0.0287375 0.0000
  9   -844.6636923213  -0.087006275028 0.00138736  0.00003101  0.0012051 0.0000
                      *** Initiating the SOSCF procedure ***
                           *** Shutting down DIIS ***
                      *** Re-Reading the Fockian *** 
                      *** Removing any level shift *** 
ITER      Energy       Delta-E        Grad      Rot      Max-DP    RMS-DP
 10   -844.66372781  -0.0000354926  0.000361  0.000361  0.000532  0.000015
               *** Restarting incremental Fock matrix formation ***
 11   -844.66376915  -0.0000413357  0.000237  0.000521  0.000584  0.000015
 12   -844.66377150  -0.0000023538  0.000126  0.000447  0.000393  0.000011
 13   -844.66377219  -0.0000006862  0.000048  0.000081  0.000189  0.000005
 14   -844.66377232  -0.0000001296  0.000014  0.000041  0.000056  0.000002
 15   -844.66377233  -0.0000000121  0.000013  0.000024  0.000024  0.000001
 16   -844.66377233   0.0000000004  0.000003  0.000011  0.000010  0.000000
                  ***Gradient check signals convergence***
              ***Rediagonalizing the Fockian in SOSCF/NRSCF***

               *****************************************************
               *                     SUCCESS                       *
               *           SCF CONVERGED AFTER  17 CYCLES          *
               *****************************************************

Old exchange energy                            =    -38.178514332 Eh
New exchange energy                            =    -38.178581796 Eh
Exchange energy change after final integration =     -0.000067464 Eh
Total energy after final integration           =   -844.663839805 Eh
Final COS-X integration done in                =    19.352 sec

----------------
TOTAL SCF ENERGY
----------------

Total Energy       :         -844.66383981 Eh          -22984.47159 eV

Components:
Nuclear Repulsion  :         1600.07329341 Eh           43540.20786 eV
Electronic Energy  :        -2444.73713321 Eh          -66524.67944 eV
One Electron Energy:        -4318.69827030 Eh         -117517.75442 eV
Two Electron Energy:         1873.96113709 Eh           50993.07498 eV
Max COSX asymmetry :            0.00000239 Eh               0.00007 eV

Virial components:
Potential Energy   :        -1680.03849361 Eh          -45716.17158 eV
Kinetic Energy     :          835.37465381 Eh           22731.69999 eV
Virial Ratio       :            2.01111978


DFT components:
N(Alpha)           :       74.000049526271 electrons
N(Beta)            :       74.000049526271 electrons
N(Total)           :      148.000099052542 electrons
E(XC)              :      -85.963084517741 Eh       
DFET-embed. en.    :        0.000000000000 Eh       

---------------
SCF CONVERGENCE
---------------

  Last Energy change         ...   -1.0208e-08  Tolerance :   1.0000e-08
  Last MAX-Density change    ...    3.5527e-15  Tolerance :   1.0000e-07
  Last RMS-Density change    ...    3.3914e-17  Tolerance :   5.0000e-09
  Last Orbital Gradient      ...    1.5515e-06  Tolerance :   1.0000e-05
  Last Orbital Rotation      ...    5.2792e-06  Tolerance :   1.0000e-05

             **** THE GBW FILE WAS UPDATED (Min_496.gbw) ****
             **** DENSITY Min_496.scfp WAS UPDATED ****
             **** ENERGY FILE WAS UPDATED (Min_496.en.tmp) ****
             **** THE GBW FILE WAS UPDATED (Min_496.gbw) ****
             **** DENSITY Min_496.scfp WAS UPDATED ****
----------------
ORBITAL ENERGIES
----------------

  NO   OCC          E(Eh)            E(eV) 
   0   2.0000     -14.457637      -393.4123 
   1   2.0000     -14.451381      -393.2421 
   2   2.0000     -10.311378      -280.5868 
   3   2.0000     -10.303224      -280.3650 
   4   2.0000     -10.295652      -280.1589 
   5   2.0000     -10.294745      -280.1342 
   6   2.0000     -10.289268      -279.9852 
   7   2.0000     -10.285729      -279.8889 
   8   2.0000     -10.285173      -279.8738 
   9   2.0000     -10.277924      -279.6765 
  10   2.0000     -10.277183      -279.6564 
  11   2.0000     -10.276327      -279.6331 
  12   2.0000     -10.274492      -279.5831 
  13   2.0000     -10.273326      -279.5514 
  14   2.0000     -10.272339      -279.5245 
  15   2.0000     -10.271669      -279.5063 
  16   2.0000     -10.269143      -279.4376 
  17   2.0000     -10.267743      -279.3995 
  18   2.0000     -10.265639      -279.3422 
  19   2.0000     -10.264401      -279.3086 
  20   2.0000     -10.251110      -278.9469 
  21   2.0000      -1.157847       -31.5066 
  22   2.0000      -1.062806       -28.9204 
  23   2.0000      -0.996240       -27.1091 
  24   2.0000      -0.975596       -26.5473 
  25   2.0000      -0.917260       -24.9599 
  26   2.0000      -0.910897       -24.7868 
  27   2.0000      -0.905451       -24.6386 
  28   2.0000      -0.872596       -23.7445 
  29   2.0000      -0.862907       -23.4809 
  30   2.0000      -0.827348       -22.5133 
  31   2.0000      -0.814179       -22.1549 
  32   2.0000      -0.802771       -21.8445 
  33   2.0000      -0.800376       -21.7794 
  34   2.0000      -0.759979       -20.6801 
  35   2.0000      -0.737784       -20.0761 
  36   2.0000      -0.702925       -19.1276 
  37   2.0000      -0.694344       -18.8941 
  38   2.0000      -0.690275       -18.7833 
  39   2.0000      -0.682260       -18.5653 
  40   2.0000      -0.657761       -17.8986 
  41   2.0000      -0.621020       -16.8988 
  42   2.0000      -0.611542       -16.6409 
  43   2.0000      -0.596148       -16.2220 
  44   2.0000      -0.591417       -16.0933 
  45   2.0000      -0.566124       -15.4050 
  46   2.0000      -0.556189       -15.1347 
  47   2.0000      -0.552859       -15.0441 
  48   2.0000      -0.541087       -14.7237 
  49   2.0000      -0.535746       -14.5784 
  50   2.0000      -0.530073       -14.4240 
  51   2.0000      -0.528528       -14.3820 
  52   2.0000      -0.521778       -14.1983 
  53   2.0000      -0.520501       -14.1635 
  54   2.0000      -0.517465       -14.0809 
  55   2.0000      -0.514387       -13.9972 
  56   2.0000      -0.510912       -13.9026 
  57   2.0000      -0.508799       -13.8451 
  58   2.0000      -0.505074       -13.7438 
  59   2.0000      -0.482216       -13.1218 
  60   2.0000      -0.476047       -12.9539 
  61   2.0000      -0.462386       -12.5822 
  62   2.0000      -0.458789       -12.4843 
  63   2.0000      -0.449440       -12.2299 
  64   2.0000      -0.444713       -12.1013 
  65   2.0000      -0.442831       -12.0501 
  66   2.0000      -0.436328       -11.8731 
  67   2.0000      -0.399583       -10.8732 
  68   2.0000      -0.344306        -9.3690 
  69   2.0000      -0.335925        -9.1410 
  70   2.0000      -0.334258        -9.0956 
  71   2.0000      -0.330567        -8.9952 
  72   2.0000      -0.321407        -8.7459 
  73   2.0000      -0.304142        -8.2761 
  74   0.0000       0.061524         1.6742 
  75   0.0000       0.069683         1.8962 
  76   0.0000       0.076899         2.0925 
  77   0.0000       0.077718         2.1148 
  78   0.0000       0.122610         3.3364 
  79   0.0000       0.133910         3.6439 
  80   0.0000       0.143931         3.9165 
  81   0.0000       0.160500         4.3674 
  82   0.0000       0.164987         4.4895 
  83   0.0000       0.167497         4.5578 
  84   0.0000       0.173466         4.7203 
  85   0.0000       0.177576         4.8321 
  86   0.0000       0.192885         5.2487 
  87   0.0000       0.201190         5.4746 
  88   0.0000       0.204246         5.5578 
  89   0.0000       0.206777         5.6267 
  90   0.0000       0.215388         5.8610 
  91   0.0000       0.228345         6.2136 
  92   0.0000       0.235678         6.4131 
  93   0.0000       0.241021         6.5585 
  94   0.0000       0.242693         6.6040 
  95   0.0000       0.243891         6.6366 
  96   0.0000       0.251274         6.8375 
  97   0.0000       0.254975         6.9382 
  98   0.0000       0.260433         7.0867 
  99   0.0000       0.263730         7.1764 
 100   0.0000       0.275029         7.4839 
 101   0.0000       0.289322         7.8729 
 102   0.0000       0.302351         8.2274 
 103   0.0000       0.307522         8.3681 
 104   0.0000       0.313636         8.5345 
 105   0.0000       0.317699         8.6450 
 106   0.0000       0.333150         9.0655 
 107   0.0000       0.358251         9.7485 
 108   0.0000       0.363793         9.8993 
 109   0.0000       0.368085        10.0161 
 110   0.0000       0.388214        10.5638 
 111   0.0000       0.396587        10.7917 
 112   0.0000       0.402501        10.9526 
 113   0.0000       0.407500        11.0886 
 114   0.0000       0.420826        11.4513 
 115   0.0000       0.426643        11.6096 
 116   0.0000       0.431093        11.7306 
 117   0.0000       0.434038        11.8108 
 118   0.0000       0.440689        11.9918 
 119   0.0000       0.448993        12.2177 
 120   0.0000       0.453159        12.3311 
 121   0.0000       0.467978        12.7343 
 122   0.0000       0.477017        12.9803 
 123   0.0000       0.481716        13.1082 
 124   0.0000       0.491366        13.3708 
 125   0.0000       0.509420        13.8620 
 126   0.0000       0.514552        14.0017 
 127   0.0000       0.520365        14.1599 
 128   0.0000       0.526860        14.3366 
 129   0.0000       0.531011        14.4495 
 130   0.0000       0.532205        14.4820 
 131   0.0000       0.542957        14.7746 
 132   0.0000       0.546205        14.8630 
 133   0.0000       0.550894        14.9906 
 134   0.0000       0.555059        15.1039 
 135   0.0000       0.561729        15.2854 
 136   0.0000       0.570290        15.5184 
 137   0.0000       0.578234        15.7345 
 138   0.0000       0.589600        16.0438 
 139   0.0000       0.590777        16.0759 
 140   0.0000       0.599138        16.3034 
 141   0.0000       0.603018        16.4090 
 142   0.0000       0.608677        16.5629 
 143   0.0000       0.620634        16.8883 
 144   0.0000       0.623045        16.9539 
 145   0.0000       0.638314        17.3694 
 146   0.0000       0.646968        17.6049 
 147   0.0000       0.652215        17.7477 
 148   0.0000       0.667903        18.1746 
 149   0.0000       0.671409        18.2700 
 150   0.0000       0.685710        18.6591 
 151   0.0000       0.691669        18.8213 
 152   0.0000       0.699272        19.0282 
 153   0.0000       0.701900        19.0997 
 154   0.0000       0.708246        19.2724 
 155   0.0000       0.721452        19.6317 
 156   0.0000       0.728989        19.8368 
 157   0.0000       0.733937        19.9714 
 158   0.0000       0.739058        20.1108 
 159   0.0000       0.743976        20.2446 
 160   0.0000       0.748922        20.3792 
 161   0.0000       0.752211        20.4687 
 162   0.0000       0.756992        20.5988 
 163   0.0000       0.757531        20.6135 
 164   0.0000       0.764755        20.8100 
 165   0.0000       0.773463        21.0470 
 166   0.0000       0.776272        21.1234 
 167   0.0000       0.779034        21.1986 
 168   0.0000       0.781191        21.2573 
 169   0.0000       0.784909        21.3585 
 170   0.0000       0.788579        21.4583 
 171   0.0000       0.790836        21.5197 
 172   0.0000       0.796726        21.6800 
 173   0.0000       0.800348        21.7786 
 174   0.0000       0.808372        21.9969 
 175   0.0000       0.811622        22.0854 
 176   0.0000       0.816931        22.2298 
 177   0.0000       0.818335        22.2680 
 178   0.0000       0.826114        22.4797 
 179   0.0000       0.830796        22.6071 
 180   0.0000       0.839810        22.8524 
 181   0.0000       0.845052        22.9950 
 182   0.0000       0.849545        23.1173 
 183   0.0000       0.857208        23.3258 
 184   0.0000       0.864003        23.5107 
 185   0.0000       0.868348        23.6289 
 186   0.0000       0.869774        23.6678 
 187   0.0000       0.875419        23.8214 
 188   0.0000       0.880658        23.9639 
 189   0.0000       0.893997        24.3269 
 190   0.0000       0.904085        24.6014 
 191   0.0000       0.905842        24.6492 
 192   0.0000       0.914661        24.8892 
 193   0.0000       0.925426        25.1821 
 194   0.0000       0.933474        25.4011 
 195   0.0000       0.942949        25.6589 
 196   0.0000       0.950446        25.8630 
 197   0.0000       0.955888        26.0110 
 198   0.0000       0.964434        26.2436 
 199   0.0000       0.980937        26.6927 
 200   0.0000       0.994604        27.0646 
 201   0.0000       1.000383        27.2218 
 202   0.0000       1.013816        27.5873 
 203   0.0000       1.016035        27.6477 
 204   0.0000       1.031898        28.0794 
 205   0.0000       1.041318        28.3357 
 206   0.0000       1.059872        28.8406 
 207   0.0000       1.074007        29.2252 
 208   0.0000       1.104486        30.0546 
 209   0.0000       1.141307        31.0566 
 210   0.0000       1.162321        31.6284 
 211   0.0000       1.171817        31.8868 
 212   0.0000       1.179598        32.0985 
 213   0.0000       1.193770        32.4841 
 214   0.0000       1.211293        32.9610 
 215   0.0000       1.213064        33.0091 
 216   0.0000       1.234541        33.5936 
 217   0.0000       1.252601        34.0850 
 218   0.0000       1.262432        34.3525 
 219   0.0000       1.273309        34.6485 
 220   0.0000       1.283005        34.9124 
 221   0.0000       1.300237        35.3813 
 222   0.0000       1.312269        35.7087 
 223   0.0000       1.326604        36.0987 
 224   0.0000       1.351343        36.7719 
 225   0.0000       1.363357        37.0988 
 226   0.0000       1.370464        37.2922 
 227   0.0000       1.375001        37.4157 
 228   0.0000       1.386081        37.7172 
 229   0.0000       1.392735        37.8983 
 230   0.0000       1.398816        38.0637 
 231   0.0000       1.410895        38.3924 
 232   0.0000       1.428641        38.8753 
 233   0.0000       1.452257        39.5179 
 234   0.0000       1.482335        40.3364 
 235   0.0000       1.484623        40.3986 
 236   0.0000       1.512790        41.1651 
 237   0.0000       1.540371        41.9156 
 238   0.0000       1.575229        42.8642 
 239   0.0000       1.582400        43.0593 
 240   0.0000       1.584797        43.1245 
 241   0.0000       1.609172        43.7878 
 242   0.0000       1.621333        44.1187 
 243   0.0000       1.633261        44.4433 
 244   0.0000       1.638696        44.5912 
 245   0.0000       1.656670        45.0803 
 246   0.0000       1.662463        45.2379 
 247   0.0000       1.677629        45.6506 
 248   0.0000       1.682635        45.7868 
 249   0.0000       1.687933        45.9310 
 250   0.0000       1.703631        46.3582 
 251   0.0000       1.711084        46.5610 
 252   0.0000       1.728326        47.0301 
 253   0.0000       1.734274        47.1920 
 254   0.0000       1.744708        47.4759 
 255   0.0000       1.770535        48.1787 
 256   0.0000       1.777650        48.3723 
 257   0.0000       1.781840        48.4863 
 258   0.0000       1.793762        48.8107 
 259   0.0000       1.798964        48.9523 
 260   0.0000       1.814947        49.3872 
 261   0.0000       1.820886        49.5488 
 262   0.0000       1.824842        49.6565 
 263   0.0000       1.827604        49.7316 
 264   0.0000       1.843671        50.1688 
 265   0.0000       1.849994        50.3409 
 266   0.0000       1.857241        50.5381 
 267   0.0000       1.862502        50.6813 
 268   0.0000       1.870517        50.8994 
 269   0.0000       1.883281        51.2467 
 270   0.0000       1.889541        51.4170 
 271   0.0000       1.895716        51.5851 
 272   0.0000       1.901387        51.7394 
 273   0.0000       1.909087        51.9489 
 274   0.0000       1.913908        52.0801 
 275   0.0000       1.929499        52.5043 
 276   0.0000       1.936063        52.6829 
 277   0.0000       1.937730        52.7283 
 278   0.0000       1.939955        52.7889 
 279   0.0000       1.945506        52.9399 
 280   0.0000       1.952865        53.1402 
 281   0.0000       1.955686        53.2169 
 282   0.0000       1.966271        53.5050 
 283   0.0000       1.976700        53.7887 
 284   0.0000       1.984203        53.9929 
 285   0.0000       1.992116        54.2082 
 286   0.0000       2.001720        54.4696 
 287   0.0000       2.010582        54.7107 
 288   0.0000       2.019359        54.9496 
 289   0.0000       2.036959        55.4285 
 290   0.0000       2.038196        55.4621 
 291   0.0000       2.043879        55.6168 
 292   0.0000       2.053976        55.8915 
 293   0.0000       2.068388        56.2837 
 294   0.0000       2.074520        56.4505 
 295   0.0000       2.080831        56.6223 
 296   0.0000       2.084555        56.7236 
 297   0.0000       2.089951        56.8705 
 298   0.0000       2.103577        57.2412 
 299   0.0000       2.111021        57.4438 
 300   0.0000       2.125416        57.8355 
 301   0.0000       2.136306        58.1318 
 302   0.0000       2.150110        58.5075 
 303   0.0000       2.161057        58.8053 
 304   0.0000       2.170455        59.0611 
 305   0.0000       2.185778        59.4780 
 306   0.0000       2.190261        59.6000 
 307   0.0000       2.193909        59.6993 
 308   0.0000       2.200893        59.8893 
 309   0.0000       2.208719        60.1023 
 310   0.0000       2.215314        60.2818 
 311   0.0000       2.222570        60.4792 
 312   0.0000       2.235488        60.8307 
 313   0.0000       2.240023        60.9541 
 314   0.0000       2.256064        61.3906 
 315   0.0000       2.262585        61.5681 
 316   0.0000       2.279143        62.0186 
 317   0.0000       2.322345        63.1942 
 318   0.0000       2.334931        63.5367 
 319   0.0000       2.351654        63.9917 
 320   0.0000       2.358389        64.1750 
 321   0.0000       2.371056        64.5197 
 322   0.0000       2.375531        64.6415 
 323   0.0000       2.385197        64.9045 
 324   0.0000       2.395194        65.1765 
 325   0.0000       2.398348        65.2624 
 326   0.0000       2.408131        65.5286 
 327   0.0000       2.418568        65.8126 
 328   0.0000       2.431350        66.1604 
 329   0.0000       2.437725        66.3339 
 330   0.0000       2.442057        66.4518 
 331   0.0000       2.454900        66.8012 
 332   0.0000       2.481873        67.5352 
 333   0.0000       2.488881        67.7259 
 334   0.0000       2.531429        68.8837 
 335   0.0000       2.545565        69.2683 
 336   0.0000       2.555820        69.5474 
 337   0.0000       2.572510        70.0015 
 338   0.0000       2.585358        70.3512 
 339   0.0000       2.587762        70.4166 
 340   0.0000       2.600156        70.7539 
 341   0.0000       2.601729        70.7966 
 342   0.0000       2.612388        71.0867 
 343   0.0000       2.624241        71.4092 
 344   0.0000       2.643205        71.9253 
 345   0.0000       2.645168        71.9787 
 346   0.0000       2.663626        72.4810 
 347   0.0000       2.686347        73.0992 
 348   0.0000       2.688843        73.1672 
 349   0.0000       2.695840        73.3575 
 350   0.0000       2.704365        73.5895 
 351   0.0000       2.716624        73.9231 
 352   0.0000       2.728032        74.2335 
 353   0.0000       2.742105        74.6165 
 354   0.0000       2.775873        75.5354 
 355   0.0000       2.785808        75.8057 
 356   0.0000       2.805167        76.3325 
 357   0.0000       2.829049        76.9823 
 358   0.0000       2.844009        77.3894 
 359   0.0000       2.853226        77.6402 
 360   0.0000       2.860733        77.8445 
 361   0.0000       2.864158        77.9377 
 362   0.0000       2.872445        78.1632 
 363   0.0000       2.890725        78.6606 
 364   0.0000       2.925857        79.6166 
 365   0.0000       2.943252        80.0900 
 366   0.0000       2.956342        80.4461 
 367   0.0000       2.977414        81.0195 
 368   0.0000       2.991382        81.3996 
 369   0.0000       3.000699        81.6532 
 370   0.0000       3.021808        82.2276 
 371   0.0000       3.055084        83.1331 
 372   0.0000       3.058884        83.2365 
 373   0.0000       3.065424        83.4144 
 374   0.0000       3.078786        83.7780 
 375   0.0000       3.087920        84.0266 
 376   0.0000       3.098308        84.3093 
 377   0.0000       3.099519        84.3422 
 378   0.0000       3.111566        84.6700 
 379   0.0000       3.126664        85.0808 
 380   0.0000       3.135656        85.3255 
 381   0.0000       3.139314        85.4251 
 382   0.0000       3.174425        86.3805 
 383   0.0000       3.188876        86.7737 
 384   0.0000       3.218467        87.5790 
 385   0.0000       3.221106        87.6508 
 386   0.0000       3.258360        88.6645 
 387   0.0000       3.355309        91.3026 
 388   0.0000       3.392655        92.3188 
 389   0.0000       3.422417        93.1287 
 390   0.0000       3.496725        95.1507 
 391   0.0000       3.618093        98.4533 
 392   0.0000       3.713347       101.0453 
 393   0.0000       3.756799       102.2277 

                    ********************************
                    * MULLIKEN POPULATION ANALYSIS *
                    ********************************

-----------------------
MULLIKEN ATOMIC CHARGES
-----------------------
   0 C :    0.074398
   1 C :    0.014266
   2 C :   -0.064879
   3 H :    0.016152
   4 H :    0.041633
   5 N :   -0.249214
   6 N :   -0.202286
   7 C :    0.094318
   8 C :   -0.113867
[...]
 10:     71.63   0.000558    2.82  0.002431  (-0.044182  0.006388 -0.020941)
 11:     90.15   0.000002    0.01  0.000008  (-0.002239 -0.001398 -0.000803)
 12:     95.31   0.000031    0.15  0.000100  (-0.002328  0.009257  0.002985)
 13:    133.36   0.000528    2.67  0.001236  ( 0.015318  0.006529 -0.030968)
 14:    148.03   0.000116    0.58  0.000244  ( 0.002267  0.012759  0.008695)
 15:    166.13   0.000025    0.13  0.000047  ( 0.003081 -0.002881 -0.005408)
 16:    182.99   0.000156    0.79  0.000265  (-0.003429 -0.015222  0.004679)
 17:    199.37   0.001008    5.09  0.001577  (-0.007935 -0.038387 -0.006372)
 18:    208.00   0.000418    2.11  0.000627  ( 0.007391 -0.000941 -0.023915)
 19:    238.05   0.000014    0.07  0.000018  ( 0.003934  0.001028 -0.001144)
 20:    239.88   0.000013    0.06  0.000017  ( 0.003059 -0.000739  0.002570)
 21:    283.54   0.000623    3.15  0.000686  (-0.000042 -0.025931 -0.003702)
 22:    307.79   0.001748    8.84  0.001773  (-0.040421 -0.000173 -0.011781)
 23:    335.46   0.000953    4.81  0.000886  ( 0.010621  0.003079 -0.027641)
 24:    359.38   0.000613    3.10  0.000532  ( 0.006880  0.001104 -0.021988)
 25:    360.15   0.000022    0.11  0.000019  ( 0.000616  0.003131 -0.002927)
 26:    398.97   0.000624    3.15  0.000488  ( 0.000651 -0.022070 -0.000689)
 27:    437.46   0.000019    0.10  0.000013  (-0.001848  0.003148 -0.000293)
 28:    483.90   0.000088    0.44  0.000057  (-0.007418  0.000162 -0.001237)
 29:    493.77   0.000018    0.09  0.000011  ( 0.000140  0.003346  0.000132)
 30:    535.99   0.000080    0.40  0.000047  ( 0.005940 -0.002664  0.002043)
 31:    536.73   0.000020    0.10  0.000011  ( 0.003248  0.000022  0.000943)
 32:    545.03   0.000077    0.39  0.000044  ( 0.005844 -0.001912  0.002502)
 33:    548.70   0.000004    0.02  0.000002  (-0.000430  0.000993  0.000987)
 34:    579.21   0.000172    0.87  0.000093  (-0.002145 -0.000467  0.009383)
 35:    596.36   0.000053    0.27  0.000028  (-0.001274 -0.000292  0.005098)
 36:    602.61   0.000093    0.47  0.000048  ( 0.000249  0.006897  0.000655)
 37:    629.36   0.001867    9.43  0.000926  ( 0.002226  0.030232  0.002597)
 38:    678.97   0.001165    5.89  0.000535  (-0.021182  0.007297 -0.005788)
 39:    684.42   0.000015    0.08  0.000007  (-0.002327  0.000130  0.001222)
 40:    741.89   0.006057   30.61  0.002548  (-0.049496  0.006122 -0.007773)
 41:    770.95   0.000020    0.10  0.000008  ( 0.000115  0.000056  0.002877)
 42:    782.80   0.000915    4.62  0.000365  (-0.002042 -0.018919 -0.001602)
 43:    789.11   0.000242    1.22  0.000096  (-0.001767 -0.001764  0.009453)
 44:    796.80   0.000672    3.40  0.000263  (-0.001108 -0.016139  0.001272)
 45:    804.39   0.010737   54.26  0.004165  (-0.020124  0.001456  0.061305)
 46:    805.34   0.002355   11.90  0.000912  ( 0.012136  0.027164 -0.005217)
 47:    870.44   0.000009    0.04  0.000003  (-0.000435 -0.001362 -0.001027)
 48:    936.14   0.000007    0.04  0.000002  (-0.000439  0.001100  0.000958)
 49:    938.08   0.000021    0.11  0.000007  ( 0.002590 -0.000039  0.000543)
 50:    945.52   0.000377    1.91  0.000124  ( 0.010829  0.000528  0.002631)
 51:    946.35   0.000549    2.78  0.000181  ( 0.011520 -0.004926  0.004916)
 52:    965.82   0.007770   39.26  0.002510  (-0.004582 -0.049665 -0.004774)
 53:    972.77   0.000390    1.97  0.000125  (-0.002261 -0.000297  0.010946)
 54:   1007.65   0.000763    3.85  0.000236  ( 0.001648  0.015280 -0.000191)
 55:   1009.74   0.000525    2.65  0.000162  (-0.001005 -0.012195 -0.003519)
 56:   1027.94   0.000014    0.07  0.000004  ( 0.000141  0.001131 -0.001745)
 57:   1029.10   0.000045    0.23  0.000014  (-0.000226 -0.000115 -0.003705)
 58:   1059.46   0.000181    0.91  0.000053  (-0.000298  0.001632  0.007104)
 59:   1060.58   0.000380    1.92  0.000112  ( 0.000509  0.002333 -0.010301)
 60:   1062.29   0.000147    0.74  0.000043  (-0.006079 -0.002182  0.001175)
 61:   1063.46   0.000757    3.83  0.000222  ( 0.002390 -0.000198 -0.014709)
 62:   1064.77   0.000864    4.37  0.000253  ( 0.001024  0.004445 -0.015248)
 63:   1066.08   0.000867    4.38  0.000254  (-0.005366  0.000915  0.014975)
 64:   1088.60   0.003432   17.35  0.000984  (-0.007413 -0.001354  0.030449)
 65:   1095.50   0.000115    0.58  0.000033  (-0.001399 -0.005280  0.001723)
 66:   1103.21   0.000122    0.62  0.000035  ( 0.000737 -0.000432 -0.005811)
 67:   1131.40   0.004172   21.09  0.001151  (-0.002950 -0.033594 -0.003682)
 68:   1143.91   0.000101    0.51  0.000028  ( 0.001095  0.003708 -0.003543)
 69:   1178.71   0.000379    1.92  0.000100  (-0.009106  0.000436 -0.004158)
 70:   1182.26   0.000417    2.11  0.000110  (-0.010217  0.000975 -0.002205)
 71:   1266.31   0.004513   22.81  0.001112  (-0.002933 -0.033065 -0.003215)
 72:   1280.17   0.000131    0.66  0.000032  (-0.002479 -0.004995 -0.000919)
 73:   1282.84   0.000017    0.09  0.000004  ( 0.001854 -0.000507  0.000707)
 74:   1301.15   0.000004    0.02  0.000001  (-0.000010  0.000547  0.000824)
 75:   1304.37   0.000308    1.56  0.000074  (-0.000899 -0.008460 -0.001112)
 76:   1326.56   0.002320   11.72  0.000546  (-0.003122 -0.023040 -0.002265)
 77:   1336.59   0.000187    0.94  0.000044  ( 0.004280 -0.004991  0.000601)
 78:   1336.88   0.000902    4.56  0.000211  ( 0.014017 -0.002596  0.002724)
 79:   1371.70   0.000872    4.41  0.000198  ( 0.000550 -0.001917  0.013941)
 80:   1400.61   0.000054    0.27  0.000012  ( 0.000812  0.003369 -0.000152)
 81:   1403.15   0.000534    2.70  0.000119  ( 0.009283 -0.001795  0.005422)
 82:   1404.68   0.000081    0.41  0.000018  ( 0.003090  0.002730  0.000996)
 83:   1408.77   0.000518    2.62  0.000115  ( 0.000997 -0.010591 -0.001261)
 84:   1425.24   0.000136    0.69  0.000030  (-0.002335 -0.000715  0.004881)
 85:   1443.88   0.011657   58.91  0.002519  (-0.003685 -0.050038 -0.001435)
 86:   1453.59   0.002224   11.24  0.000477  (-0.002270  0.012677  0.017653)
 87:   1458.61   0.000513    2.59  0.000110  (-0.000967 -0.000644  0.010414)
 88:   1459.54   0.001046    5.29  0.000224  ( 0.009341  0.004716 -0.010686)
 89:   1460.40   0.004146   20.95  0.000886  ( 0.003026  0.001589 -0.029567)
 90:   1461.79   0.001216    6.15  0.000260  ( 0.005417  0.000737 -0.015159)
 91:   1467.79   0.003861   19.51  0.000821  ( 0.028350  0.001269  0.003935)
 92:   1471.73   0.000685    3.46  0.000145  (-0.002219 -0.000456  0.011833)
 93:   1475.79   0.000543    2.75  0.000115  ( 0.002173 -0.010493 -0.000258)
 94:   1538.19   0.001100    5.56  0.000223  (-0.012943  0.002304 -0.007098)
 95:   1538.77   0.004897   24.75  0.000993  (-0.030266  0.003510 -0.008047)
 96:   1560.70   0.039547  199.85  0.007907  ( 0.007321  0.088002  0.010461)
 97:   1567.00   0.001603    8.10  0.000319  (-0.004042 -0.008647  0.015103)
 98:   1655.44   0.000144    0.73  0.000027  ( 0.001621 -0.000623 -0.004912)
 99:   1705.02   0.000337    1.70  0.000062  (-0.001142 -0.007722 -0.000874)
100:   1706.62   0.000002    0.01  0.000000  ( 0.000462 -0.000317 -0.000271)
101:   1709.15   0.000045    0.23  0.000008  (-0.001524  0.001267 -0.002077)
102:   1709.96   0.001933    9.77  0.000353  (-0.017770  0.003070 -0.005254)
103:   3067.79   0.001688    8.53  0.000172  ( 0.012036  0.004980  0.001410)
104:   3068.05   0.006740   34.06  0.000686  (-0.025177  0.005701 -0.004375)
105:   3068.69   0.002382   12.04  0.000242  ( 0.011273 -0.004469  0.009757)
106:   3069.29   0.000856    4.32  0.000087  ( 0.004413  0.005983  0.005634)
107:   3157.07   0.001801    9.10  0.000178  ( 0.005450  0.000573 -0.012167)
108:   3157.21   0.001269    6.42  0.000125  (-0.003612 -0.001423  0.010507)
109:   3158.39   0.000255    1.29  0.000025  (-0.000233  0.002295 -0.004456)
110:   3158.49   0.000681    3.44  0.000067  ( 0.002268 -0.003031 -0.007277)
111:   3182.50   0.002666   13.47  0.000261  ( 0.006304  0.013799  0.005588)
112:   3182.76   0.003972   20.07  0.000389  (-0.017327  0.006468 -0.006882)
113:   3183.23   0.001548    7.83  0.000152  ( 0.009534  0.007211 -0.002986)
114:   3183.58   0.002608   13.18  0.000256  ( 0.002887 -0.015659 -0.001463)
115:   3203.98   0.000029    0.15  0.000003  (-0.000860  0.001418 -0.000208)
116:   3204.15   0.000052    0.27  0.000005  (-0.000744  0.002111  0.000317)
117:   3211.60   0.002624   13.26  0.000255  (-0.014492  0.003247 -0.005869)
118:   3211.99   0.002746   13.88  0.000267  (-0.015828  0.001836 -0.003594)
119:   3227.87   0.003704   18.72  0.000358  ( 0.002722  0.018588 -0.002281)
120:   3228.71   0.003117   15.75  0.000301  ( 0.000871  0.016128  0.006354)
121:   3285.95   0.000944    4.77  0.000090  ( 0.001168  0.009333  0.001096)
122:   3308.74   0.000094    0.48  0.000009  (-0.000980  0.000087  0.002817)

* The epsilon (eps) is given for a Dirac delta lineshape.
** The dipole moment derivative (T) already includes vibrational overlap.

The first frequency considered to be a vibration is 6
The total number of vibrations considered is 117


--------------------------
THERMOCHEMISTRY AT 298.15K
--------------------------

Temperature         ... 298.15 K
Pressure            ... 1.00 atm
Total Mass          ... 276.38 AMU

Throughout the following assumptions are being made:
  (1) The electronic state is orbitally nondegenerate
  (2) There are no thermally accessible electronically excited states
  (3) Hindered rotations indicated by low frequency modes are not
      treated as such but are treated as vibrations and this may
      cause some error
  (4) All equations used are the standard statistical mechanics
      equations for an ideal gas
  (5) All vibrations are strictly harmonic

freq.      12.63  E(vib)   ...       0.57 
freq.      15.95  E(vib)   ...       0.57 
freq.      40.44  E(vib)   ...       0.54 
freq.      57.23  E(vib)   ...       0.51 
freq.      71.63  E(vib)   ...       0.50 
freq.      90.15  E(vib)   ...       0.47 
freq.      95.31  E(vib)   ...       0.47 
freq.     133.36  E(vib)   ...       0.42 
freq.     148.03  E(vib)   ...       0.41 
freq.     166.13  E(vib)   ...       0.39 
freq.     182.99  E(vib)   ...       0.37 
freq.     199.37  E(vib)   ...       0.35 
freq.     208.00  E(vib)   ...       0.34 
freq.     238.05  E(vib)   ...       0.32 
freq.     239.88  E(vib)   ...       0.31 
freq.     283.54  E(vib)   ...       0.28 
freq.     307.79  E(vib)   ...       0.26 
freq.     335.46  E(vib)   ...       0.24 
freq.     359.38  E(vib)   ...       0.22 
freq.     360.15  E(vib)   ...       0.22 
freq.     398.97  E(vib)   ...       0.19 
freq.     437.46  E(vib)   ...       0.17 
freq.     483.90  E(vib)   ...       0.15 
freq.     493.77  E(vib)   ...       0.14 
freq.     535.99  E(vib)   ...       0.12 
freq.     536.73  E(vib)   ...       0.12 
freq.     545.03  E(vib)   ...       0.12 
freq.     548.70  E(vib)   ...       0.12 
freq.     579.21  E(vib)   ...       0.11 
freq.     596.36  E(vib)   ...       0.10 
freq.     602.61  E(vib)   ...       0.10 
freq.     629.36  E(vib)   ...       0.09 
freq.     678.97  E(vib)   ...       0.08 
freq.     684.42  E(vib)   ...       0.07 
freq.     741.89  E(vib)   ...       0.06 
freq.     770.95  E(vib)   ...       0.05 
freq.     782.80  E(vib)   ...       0.05 
freq.     789.11  E(vib)   ...       0.05 
freq.     796.80  E(vib)   ...       0.05 
freq.     804.39  E(vib)   ...       0.05 
freq.     805.34  E(vib)   ...       0.05 
freq.     870.44  E(vib)   ...       0.04 
freq.     936.14  E(vib)   ...       0.03 
freq.     938.08  E(vib)   ...       0.03 
freq.     945.52  E(vib)   ...       0.03 
freq.     946.35  E(vib)   ...       0.03 
freq.     965.82  E(vib)   ...       0.03 
freq.     972.77  E(vib)   ...       0.03 
freq.    1007.65  E(vib)   ...       0.02 
freq.    1009.74  E(vib)   ...       0.02 
freq.    1027.94  E(vib)   ...       0.02 
freq.    1029.10  E(vib)   ...       0.02 
freq.    1059.46  E(vib)   ...       0.02 
freq.    1060.58  E(vib)   ...       0.02 
freq.    1062.29  E(vib)   ...       0.02 
freq.    1063.46  E(vib)   ...       0.02 
freq.    1064.77  E(vib)   ...       0.02 
freq.    1066.08  E(vib)   ...       0.02 
freq.    1088.60  E(vib)   ...       0.02 
freq.    1095.50  E(vib)   ...       0.02 
freq.    1103.21  E(vib)   ...       0.02 
freq.    1131.40  E(vib)   ...       0.01 
freq.    1143.91  E(vib)   ...       0.01 
freq.    1178.71  E(vib)   ...       0.01 
freq.    1182.26  E(vib)   ...       0.01 
freq.    1266.31  E(vib)   ...       0.01 
freq.    1280.17  E(vib)   ...       0.01 
freq.    1282.84  E(vib)   ...       0.01 
freq.    1301.15  E(vib)   ...       0.01 
freq.    1304.37  E(vib)   ...       0.01 
freq.    1326.56  E(vib)   ...       0.01 
freq.    1336.59  E(vib)   ...       0.01 
freq.    1336.88  E(vib)   ...       0.01 
freq.    1371.70  E(vib)   ...       0.01 
freq.    1400.61  E(vib)   ...       0.00 
freq.    1403.15  E(vib)   ...       0.00 
freq.    1404.68  E(vib)   ...       0.00 
freq.    1408.77  E(vib)   ...       0.00 
freq.    1425.24  E(vib)   ...       0.00 
freq.    1443.88  E(vib)   ...       0.00 
freq.    1453.59  E(vib)   ...       0.00 
freq.    1458.61  E(vib)   ...       0.00 
freq.    1459.54  E(vib)   ...       0.00 
freq.    1460.40  E(vib)   ...       0.00 
freq.    1461.79  E(vib)   ...       0.00 
freq.    1467.79  E(vib)   ...       0.00 
freq.    1471.73  E(vib)   ...       0.00 
freq.    1475.79  E(vib)   ...       0.00 
freq.    1538.19  E(vib)   ...       0.00 
freq.    1538.77  E(vib)   ...       0.00 
freq.    1560.70  E(vib)   ...       0.00 
freq.    1567.00  E(vib)   ...       0.00 
freq.    1655.44  E(vib)   ...       0.00 
freq.    1705.02  E(vib)   ...       0.00 
freq.    1706.62  E(vib)   ...       0.00 
freq.    1709.15  E(vib)   ...       0.00 
freq.    1709.96  E(vib)   ...       0.00 
freq.    3067.79  E(vib)   ...       0.00 
freq.    3068.05  E(vib)   ...       0.00 
freq.    3068.69  E(vib)   ...       0.00 
freq.    3069.29  E(vib)   ...       0.00 
freq.    3157.07  E(vib)   ...       0.00 
freq.    3157.21  E(vib)   ...       0.00 
freq.    3158.39  E(vib)   ...       0.00 
freq.    3158.49  E(vib)   ...       0.00 
freq.    3182.50  E(vib)   ...       0.00 
freq.    3182.76  E(vib)   ...       0.00 
freq.    3183.23  E(vib)   ...       0.00 
freq.    3183.58  E(vib)   ...       0.00 
freq.    3203.98  E(vib)   ...       0.00 
freq.    3204.15  E(vib)   ...       0.00 
freq.    3211.60  E(vib)   ...       0.00 
freq.    3211.99  E(vib)   ...       0.00 
freq.    3227.87  E(vib)   ...       0.00 
freq.    3228.71  E(vib)   ...       0.00 
freq.    3285.95  E(vib)   ...       0.00 
freq.    3308.74  E(vib)   ...       0.00 

------------
INNER ENERGY
------------

The inner energy is: U= E(el) + E(ZPE) + E(vib) + E(rot) + E(trans)
    E(el)   - is the total energy from the electronic structure calculation
              = E(kin-el) + E(nuc-el) + E(el-el) + E(nuc-nuc)
    E(ZPE)  - the the zero temperature vibrational energy from the frequency calculation
    E(vib)  - the the finite temperature correction to E(ZPE) due to population
              of excited vibrational states
    E(rot)  - is the rotational thermal energy
    E(trans)- is the translational thermal energy

Summary of contributions to the inner energy U:
Electronic energy                ...   -844.73290232 Eh
Zero point energy                ...      0.34616997 Eh     217.22 kcal/mol
Thermal vibrational correction   ...      0.01665059 Eh      10.45 kcal/mol
Thermal rotational correction    ...      0.00141627 Eh       0.89 kcal/mol
Thermal translational correction ...      0.00141627 Eh       0.89 kcal/mol
-----------------------------------------------------------------------
Total thermal energy                   -844.36724921 Eh


Summary of corrections to the electronic energy:
(perhaps to be used in another calculation)
Total thermal correction                  0.01948314 Eh      12.23 kcal/mol
Non-thermal (ZPE) correction              0.34616997 Eh     217.22 kcal/mol
-----------------------------------------------------------------------
Total correction                          0.36565311 Eh     229.45 kcal/mol


--------
ENTHALPY
--------

The enthalpy is H = U + kB*T
                kB is Boltzmann's constant
Total free energy                 ...   -844.36724921 Eh 
Thermal Enthalpy correction       ...      0.00094421 Eh       0.59 kcal/mol
-----------------------------------------------------------------------
Total Enthalpy                    ...   -844.36630500 Eh


Note: Only C1 symmetry has been detected, increase convergence thresholds 
      if your molecule has a higher symmetry. Symmetry factor of 1.0 is   
      used for the rotational entropy correction. 
 

Note: Rotational entropy computed according to Herzberg 
Infrared and Raman Spectra, Chapter V,1, Van Nostrand Reinhold, 1945 
Point Group:  C1, Symmetry Number:   1  
Rotational constants in cm-1:     0.023864     0.005959     0.005187 

Vibrational entropy computed according to the QRRHO of S. Grimme
Chem.Eur.J. 2012 18 9955


-------
ENTROPY
-------

The entropy contributions are T*S = T*(S(el)+S(vib)+S(rot)+S(trans))
     S(el)   - electronic entropy
     S(vib)  - vibrational entropy
     S(rot)  - rotational entropy
     S(trans)- translational entropy
The entropies will be listed as multiplied by the temperature to get
units of energy

Electronic entropy                ...      0.00000000 Eh      0.00 kcal/mol
Vibrational entropy               ...      0.02999183 Eh     18.82 kcal/mol
Rotational entropy                ...      0.01617670 Eh     10.15 kcal/mol
Translational entropy             ...      0.02031105 Eh     12.75 kcal/mol
-----------------------------------------------------------------------
Final entropy term                ...      0.06647958 Eh     41.72 kcal/mol

In case the symmetry of your molecule has not been determined correctly
or in case you have a reason to use a different symmetry number we print 
out the resulting rotational entropy values for sn=1,12 :
 --------------------------------------------------------
|  sn= 1 | S(rot)=       0.01617670 Eh     10.15 kcal/mol|
|  sn= 2 | S(rot)=       0.01552224 Eh      9.74 kcal/mol|
|  sn= 3 | S(rot)=       0.01513941 Eh      9.50 kcal/mol|
|  sn= 4 | S(rot)=       0.01486779 Eh      9.33 kcal/mol|
|  sn= 5 | S(rot)=       0.01465710 Eh      9.20 kcal/mol|
|  sn= 6 | S(rot)=       0.01448496 Eh      9.09 kcal/mol|
|  sn= 7 | S(rot)=       0.01433941 Eh      9.00 kcal/mol|
|  sn= 8 | S(rot)=       0.01421333 Eh      8.92 kcal/mol|
|  sn= 9 | S(rot)=       0.01410212 Eh      8.85 kcal/mol|
|  sn=10 | S(rot)=       0.01400264 Eh      8.79 kcal/mol|
|  sn=11 | S(rot)=       0.01391265 Eh      8.73 kcal/mol|
|  sn=12 | S(rot)=       0.01383050 Eh      8.68 kcal/mol|
 --------------------------------------------------------


-------------------
GIBBS FREE ENERGY
-------------------

The Gibbs free energy is G = H - T*S

Total enthalpy                    ...   -844.36630500 Eh 
Total entropy correction          ...     -0.06647958 Eh    -41.72 kcal/mol
-----------------------------------------------------------------------
Final Gibbs free energy         ...   -844.43278458 Eh

For completeness - the Gibbs free energy minus the electronic energy
G-E(el)                           ...      0.30011774 Eh    188.33 kcal/mol


Timings for individual modules:

Sum of individual times         ...     3030.672 sec (=  50.511 min)
GTO integral calculation        ...       17.512 sec (=   0.292 min)   0.6 %
SCF iterations                  ...     1907.841 sec (=  31.797 min)  63.0 %
SCF Gradient evaluation         ...      469.679 sec (=   7.828 min)  15.5 %
Geometry relaxation             ...        2.340 sec (=   0.039 min)   0.1 %
Analytical frequency calculation...      633.299 sec (=  10.555 min)  20.9 %
                             ****ORCA TERMINATED NORMALLY****
TOTAL RUN TIME: 0 days 0 hours 51 minutes 11 seconds 605 msec
