22
Properties=species:S:1:pos:R:3 energy=-8360.907063802084 free_energy=-8360.907063802084 pbc="F F F"
C       -0.00000000       0.68478200      -0.65926500
C       -0.00000000      -0.68478200      -0.65926500
N       -0.00000000       1.08013400       0.66963600
N        0.00000000      -1.08013400       0.66963700
C       -0.00000000       0.00000000       1.44380100
C       -0.00000000       2.45996800       1.13455200
C        0.00000100      -2.45996800       1.13455200
H       -0.89760400       2.97247000       0.76401100
H       -0.89760300      -2.97247100       0.76401200
H        0.89760500      -2.97247000       0.76401200
H        0.89760400       2.97247000       0.76401300
H       -0.00000100       2.46509600       2.23064000
H        0.00000000      -2.46509700       2.23064000
H       -0.00000000       0.00000000       2.53389000
C        0.00000000       1.66834900      -1.77687800
C       -0.00000100      -1.66834900      -1.77687700
H        0.89115000       2.31355100      -1.73718200
H        0.89114800      -2.31355100      -1.73718200
H       -0.89115000      -2.31355100      -1.73718100
H       -0.89114900       2.31355100      -1.73718200
H        0.00000000       1.14106100      -2.73933000
H       -0.00000100      -1.14106100      -2.73932900
