
                                 *****************
                                 * O   R   C   A *
                                 *****************

                                            #,                                       
                                            ###                                      
                                            ####                                     
                                            #####                                    
                                            ######                                   
                                           ########,                                 
                                     ,,################,,,,,                         
                               ,,#################################,,                 
                          ,,##########################################,,             
                       ,#########################################, ''#####,          
                    ,#############################################,,   '####,        
                  ,##################################################,,,,####,       
                ,###########''''           ''''###############################       
              ,#####''   ,,,,##########,,,,          '''####'''          '####       
            ,##' ,,,,###########################,,,                        '##       
           ' ,,###''''                  '''############,,,                           
         ,,##''                                '''############,,,,        ,,,,,,###''
      ,#''                                            '''#######################'''  
     '                                                          ''''####''''         
             ,#######,   #######,   ,#######,      ##                                
            ,#'     '#,  ##    ##  ,#'     '#,    #''#        ######   ,####,        
            ##       ##  ##   ,#'  ##            #'  '#       #        #'  '#        
            ##       ##  #######   ##           ,######,      #####,   #    #        
            '#,     ,#'  ##    ##  '#,     ,#' ,#      #,         ##   #,  ,#        
             '#######'   ##     ##  '#######'  #'      '#     #####' # '####'        



                  #######################################################
                  #                        -***-                        #
                  #          Department of theory and spectroscopy      #
                  #    Directorship and core code : Frank Neese         #
                  #        Max Planck Institute fuer Kohlenforschung    #
                  #                Kaiser Wilhelm Platz 1               #
                  #                 D-45470 Muelheim/Ruhr               #
                  #                      Germany                        #
                  #                                                     #
                  #                  All rights reserved                #
                  #                        -***-                        #
                  #######################################################


                         Program Version 5.0.4 -  RELEASE  -


 With contributions from (in alphabetic order):
   Daniel Aravena         : Magnetic Suceptibility
   Michael Atanasov       : Ab Initio Ligand Field Theory (pilot matlab implementation)
   Alexander A. Auer      : GIAO ZORA, VPT2 properties, NMR spectrum
   Ute Becker             : Parallelization
   Giovanni Bistoni       : ED, misc. LED, open-shell LED, HFLD
   Martin Brehm           : Molecular dynamics
   Dmytro Bykov           : SCF Hessian
   Vijay G. Chilkuri      : MRCI spin determinant printing, contributions to CSF-ICE
   Dipayan Datta          : RHF DLPNO-CCSD density
   Achintya Kumar Dutta   : EOM-CC, STEOM-CC
   Dmitry Ganyushin       : Spin-Orbit,Spin-Spin,Magnetic field MRCI
   Miquel Garcia          : C-PCM and meta-GGA Hessian, CC/C-PCM, Gaussian charge scheme
   Yang Guo               : DLPNO-NEVPT2, F12-NEVPT2, CIM, IAO-localization
   Andreas Hansen         : Spin unrestricted coupled pair/coupled cluster methods
   Benjamin Helmich-Paris : MC-RPA, TRAH-SCF, COSX integrals
   Lee Huntington         : MR-EOM, pCC
   Robert Izsak           : Overlap fitted RIJCOSX, COSX-SCS-MP3, EOM
   Marcus Kettner         : VPT2
   Christian Kollmar      : KDIIS, OOCD, Brueckner-CCSD(T), CCSD density, CASPT2, CASPT2-K
   Simone Kossmann        : Meta GGA functionals, TD-DFT gradient, OOMP2, MP2 Hessian
   Martin Krupicka        : Initial AUTO-CI
   Lucas Lang             : DCDCAS
   Marvin Lechner         : AUTO-CI (C++ implementation), FIC-MRCC
   Dagmar Lenk            : GEPOL surface, SMD
   Dimitrios Liakos       : Extrapolation schemes; Compound Job, initial MDCI parallelization
   Dimitrios Manganas     : Further ROCIS development; embedding schemes
   Dimitrios Pantazis     : SARC Basis sets
   Anastasios Papadopoulos: AUTO-CI, single reference methods and gradients
   Taras Petrenko         : DFT Hessian,TD-DFT gradient, ASA, ECA, R-Raman, ABS, FL, XAS/XES, NRVS
   Peter Pinski           : DLPNO-MP2, DLPNO-MP2 Gradient
   Christoph Reimann      : Effective Core Potentials
   Marius Retegan         : Local ZFS, SOC
   Christoph Riplinger    : Optimizer, TS searches, QM/MM, DLPNO-CCSD(T), (RO)-DLPNO pert. Triples
   Tobias Risthaus        : Range-separated hybrids, TD-DFT gradient, RPA, STAB
   Michael Roemelt        : Original ROCIS implementation
   Masaaki Saitow         : Open-shell DLPNO-CCSD energy and density
   Barbara Sandhoefer     : DKH picture change effects
   Avijit Sen             : IP-ROCIS
   Kantharuban Sivalingam : CASSCF convergence, NEVPT2, FIC-MRCI
   Bernardo de Souza      : ESD, SOC TD-DFT
   Georgi Stoychev        : AutoAux, RI-MP2 NMR, DLPNO-MP2 response
   Willem Van den Heuvel  : Paramagnetic NMR
   Boris Wezisla          : Elementary symmetry handling
   Frank Wennmohs         : Technical directorship


 We gratefully acknowledge several colleagues who have allowed us to
 interface, adapt or use parts of their codes:
   Stefan Grimme, W. Hujo, H. Kruse, P. Pracht,  : VdW corrections, initial TS optimization,
                  C. Bannwarth, S. Ehlert          DFT functionals, gCP, sTDA/sTD-DF
   Ed Valeev, F. Pavosevic, A. Kumar             : LibInt (2-el integral package), F12 methods
   Garnet Chan, S. Sharma, J. Yang, R. Olivares  : DMRG
   Ulf Ekstrom                                   : XCFun DFT Library
   Mihaly Kallay                                 : mrcc  (arbitrary order and MRCC methods)
   Jiri Pittner, Ondrej Demel                    : Mk-CCSD
   Frank Weinhold                                : gennbo (NPA and NBO analysis)
   Christopher J. Cramer and Donald G. Truhlar   : smd solvation model
   Lars Goerigk                                  : TD-DFT with DH, B97 family of functionals
   V. Asgeirsson, H. Jonsson                     : NEB implementation
   FAccTs GmbH                                   : IRC, NEB, NEB-TS, DLPNO-Multilevel, CI-OPT
                                                   MM, QMMM, 2- and 3-layer-ONIOM, Crystal-QMMM,
                                                   LR-CPCM, SF, NACMEs, symmetry and pop. for TD-DFT,
                                                   nearIR, NL-DFT gradient (VV10), updates on ESD,
                                                   ML-optimized integration grids
   S Lehtola, MJT Oliveira, MAL Marques          : LibXC Library
   Liviu Ungur et al                             : ANISO software


 Your calculation uses the libint2 library for the computation of 2-el integrals
 For citations please refer to: http://libint.valeyev.net

 Your ORCA version has been built with support for libXC version: 5.1.0
 For citations please refer to: https://tddft.org/programs/libxc/

 This ORCA versions uses:
   CBLAS   interface :  Fast vector & matrix operations
   LAPACKE interface :  Fast linear algebra routines
   SCALAPACK package :  Parallel linear algebra routines
   Shared memory     :  Shared parallel matrices
   BLAS/LAPACK       :  OpenBLAS 0.3.15  USE64BITINT DYNAMIC_ARCH NO_AFFINITY SkylakeX SINGLE_THREADED
        Core in use  :  SkylakeX
   Copyright (c) 2011-2014, The OpenBLAS Project




***************************************
The coordinates will be read from file: 10_deprot_aq_1.xyz
***************************************


Your calculation utilizes the atom-pairwise dispersion correction
based on tight binding partial charges (D4)
Cite in your paper:
E.Caldeweyher, C.Bannwarth, S.Grimme, J.Chem.Phys., (2017), 147, 034112.
E.Caldeweyher, S.Ehlert, A.Hansen, H.Neugebauer, S.Grimme, J.Chem.Phys., (2018), in progress.
   

XCFun DFT library Copyright 2009-2010 Ulf Ekstrom and contributors.
See http://admol.org/xcfun for more information.
This is free software; see the source code for copying conditions.
There is ABSOLUTELY NO WARRANTY; not even for MERCHANTABILITY or FITNESS FOR A PARTICULAR PURPOSE.
For details see the documentation.
Scientific users of this library should cite U. Ekstrom, L. Visscher, R. Bast, A. J. Thorvaldsen and K. Ruud;
J.Chem.Theor.Comp. 2010, DOI: 10.1021/ct100117s
XCFun Version 0.99 

================================================================================

----- Orbital basis set information -----
Your calculation utilizes the basis: def2-SVP
   F. Weigend and R. Ahlrichs, Phys. Chem. Chem. Phys. 7, 3297 (2005).

----- AuxJ basis set information -----
Your calculation utilizes the auxiliary basis: def2/J
   F. Weigend, Phys. Chem. Chem. Phys. 8, 1057 (2006).

================================================================================
                                        WARNINGS
                       Please study these warnings very carefully!
================================================================================


WARNING: Geometry Optimization
  ===> : Switching off AutoStart
         For restart on a previous wavefunction, please use MOREAD

INFO   : the flag for use of the SHARK integral package has been found!

================================================================================
                                       INPUT FILE
================================================================================
NAME = 10_deprot_aq_1.inp
|  1> # ORCA 5.0.4 - /users/bwb16179/postgrad/2024_03/DFT_Crest_Conformers/Opt/deprot/10_deprot_aq_1.inp # write input file
|  2> # Basic Mode
|  3> #
|  4> ! Opt Freq wB97X Def2-SVP D4 SlowConv TightSCF Defgrid2 Def2/J RIJCOSX CPCM(Water)
|  5> 
|  6> 
|  7> 
|  8> %maxcore 4500
|  9> 
| 10> %geom
| 11> Maxiter 150
| 12> END
| 13> 
| 14> * xyzfile 0 1 10_deprot_aq_1.xyz
| 15> 
| 16>                          ****END OF INPUT****
================================================================================

                       *****************************
                       * Geometry Optimization Run *
                       *****************************

Geometry optimization settings:
Update method            Update   .... BFGS
Choice of coordinates    CoordSys .... Z-matrix Internals
Initial Hessian          InHess   .... Almoef's Model

Convergence Tolerances:
Energy Change            TolE     ....  5.0000e-06 Eh
Max. Gradient            TolMAXG  ....  3.0000e-04 Eh/bohr
RMS Gradient             TolRMSG  ....  1.0000e-04 Eh/bohr
Max. Displacement        TolMAXD  ....  4.0000e-03 bohr
RMS Displacement         TolRMSD  ....  2.0000e-03 bohr
Strict Convergence                ....  False
------------------------------------------------------------------------------
                        ORCA OPTIMIZATION COORDINATE SETUP
------------------------------------------------------------------------------

The optimization will be done in new redundant internal coordinates
Making redundant internal coordinates   ...  (new redundants) done
Evaluating the initial hessian          ...  (Almloef) done
Evaluating the coordinates              ...  done
Calculating the B-matrix                .... done
Calculating the G-matrix                .... done
Diagonalizing the G-matrix              .... done
The first mode is                       ....   49
The number of degrees of freedom        ....   54

    -----------------------------------------------------------------
                    Redundant Internal Coordinates


    -----------------------------------------------------------------
         Definition                    Initial Value    Approx d2E/dq
    -----------------------------------------------------------------
      1. B(C   1,N   0)                  1.3327         0.690632   
      2. B(N   2,C   1)                  1.3327         0.690611   
      3. B(C   3,N   0)                  1.4391         0.467232   
      4. B(C   4,N   2)                  1.4391         0.467217   
      5. B(H   5,C   3)                  1.0952         0.353267   
      6. B(H   6,C   3)                  1.0873         0.363712   
      7. B(H   7,C   3)                  1.0952         0.353255   
      8. B(H   8,C   4)                  1.0952         0.353277   
      9. B(H   9,C   4)                  1.0952         0.353238   
     10. B(H  10,C   4)                  1.0873         0.363727   
     11. B(C  11,N   0)                  1.4550         0.440791   
     12. B(C  12,N   2)                  1.4550         0.440805   
     13. B(C  13,C  12)                  1.5239         0.382007   
     14. B(C  13,C  11)                  1.5240         0.381944   
     15. B(H  14,C  11)                  1.0954         0.353086   
     16. B(H  15,C  11)                  1.0998         0.347354   
     17. B(H  16,C  13)                  1.0927         0.356587   
     18. B(H  17,C  13)                  1.0908         0.359032   
     19. B(H  18,C  12)                  1.0998         0.347361   
     20. B(H  19,C  12)                  1.0954         0.353082   
     21. A(C   1,N   0,C  11)          125.9075         0.410956   
     22. A(C   3,N   0,C  11)          115.4271         0.383702   
     23. A(C   1,N   0,C   3)          118.6166         0.415229   
     24. A(N   0,C   1,N   2)          116.4498         0.445396   
     25. A(C   4,N   2,C  12)          115.4268         0.383703   
     26. A(C   1,N   2,C  12)          125.9089         0.410956   
     27. A(C   1,N   2,C   4)          118.6153         0.415225   
     28. A(N   0,C   3,H   7)          110.7901         0.333440   
     29. A(N   0,C   3,H   6)          108.4124         0.335059   
     30. A(H   5,C   3,H   7)          108.2739         0.289095   
     31. A(H   5,C   3,H   6)          109.2236         0.290421   
     32. A(H   6,C   3,H   7)          109.1719         0.290419   
     33. A(N   0,C   3,H   5)          110.9413         0.333442   
     34. A(H   9,C   4,H  10)          109.1723         0.290419   
     35. A(H   8,C   4,H  10)          109.2192         0.290424   
     36. A(H   8,C   4,H   9)          108.2714         0.289094   
     37. A(N   2,C   4,H   9)          110.7973         0.333435   
     38. A(N   2,C   4,H  10)          108.4110         0.335059   
     39. A(N   2,C   4,H   8)          110.9417         0.333441   
     40. A(C  13,C  11,H  15)          110.2714         0.323581   
     41. A(N   0,C  11,H  15)          110.1303         0.329320   
     42. A(C  13,C  11,H  14)          110.2854         0.324451   
     43. A(N   0,C  11,H  14)          109.0267         0.330212   
     44. A(N   0,C  11,C  13)          109.1206         0.372897   
     45. A(H  14,C  11,H  15)          107.9884         0.288310   
     46. A(N   2,C  12,C  13)          109.1233         0.372909   
     47. A(H  18,C  12,H  19)          107.9901         0.288311   
     48. A(C  13,C  12,H  19)          110.2812         0.324459   
     49. A(N   2,C  12,H  19)          109.0271         0.330213   
     50. A(C  13,C  12,H  18)          110.2643         0.323590   
     51. A(N   2,C  12,H  18)          110.1368         0.329323   
     52. A(C  12,C  13,H  17)          110.7857         0.325352   
     53. A(C  11,C  13,H  17)          110.7905         0.325343   
     54. A(C  12,C  13,H  16)          108.9789         0.324986   
     55. A(C  11,C  13,H  16)          108.9969         0.324978   
     56. A(C  11,C  13,C  12)          108.6361         0.366127   
     57. A(H  16,C  13,H  17)          108.6157         0.290257   
     58. D(N   2,C   1,N   0,C   3)    177.1912         0.035628   
     59. D(N   2,C   1,N   0,C  11)     -0.1457         0.035628   
     60. D(C  12,N   2,C   1,N   0)      0.1540         0.035625   
     61. D(C   4,N   2,C   1,N   0)   -177.1753         0.035625   
     62. D(H   5,C   3,N   0,C  11)    -61.4337         0.018647   
     63. D(H   6,C   3,N   0,C   1)      1.0234         0.018647   
     64. D(H   7,C   3,N   0,C   1)   -118.7531         0.018647   
     65. D(H   7,C   3,N   0,C  11)     58.8587         0.018647   
     66. D(H   6,C   3,N   0,C  11)    178.6352         0.018647   
     67. D(H   5,C   3,N   0,C   1)    120.9545         0.018647   
     68. D(H   9,C   4,N   2,C  12)    -58.9274         0.018646   
     69. D(H   9,C   4,N   2,C   1)    118.6776         0.018646   
     70. D(H   8,C   4,N   2,C  12)     61.3670         0.018646   
     71. D(H  10,C   4,N   2,C   1)     -1.1030         0.018646   
     72. D(H   8,C   4,N   2,C   1)   -121.0280         0.018646   
     73. D(H  10,C   4,N   2,C  12)   -178.7080         0.018646   
     74. D(H  14,C  11,N   0,C   3)     34.6484         0.016568   
     75. D(H  14,C  11,N   0,C   1)   -147.9400         0.016568   
     76. D(H  15,C  11,N   0,C   1)     93.7444         0.016568   
     77. D(H  15,C  11,N   0,C   3)    -83.6672         0.016568   
     78. D(C  13,C  11,N   0,C   3)    155.1592         0.016568   
     79. D(C  13,C  11,N   0,C   1)    -27.4293         0.016568   
     80. D(H  19,C  12,N   2,C   4)    -34.6728         0.016569   
     81. D(H  19,C  12,N   2,C   1)    147.9231         0.016569   
     82. D(H  18,C  12,N   2,C   4)     83.6490         0.016569   
     83. D(H  18,C  12,N   2,C   1)    -93.7551         0.016569   
     84. D(C  13,C  12,N   2,C   4)   -155.1804         0.016569   
     85. D(C  13,C  12,N   2,C   1)     27.4155         0.016569   
     86. D(C  12,C  13,C  11,H  15)    -68.9351         0.011621   
     87. D(C  12,C  13,C  11,H  14)    171.8884         0.011621   
     88. D(C  12,C  13,C  11,N   0)     52.1525         0.011621   
     89. D(H  17,C  13,C  12,H  19)     66.2016         0.011624   
     90. D(H  17,C  13,C  12,H  18)    -52.9700         0.011624   
     91. D(H  17,C  13,C  12,N   2)   -174.0629         0.011624   
     92. D(H  16,C  13,C  12,H  18)   -172.4166         0.011624   
     93. D(H  16,C  13,C  12,N   2)     66.4905         0.011624   
     94. D(C  11,C  13,C  12,H  19)   -171.8821         0.011624   
     95. D(C  11,C  13,C  12,H  18)     68.9463         0.011624   
     96. D(C  11,C  13,C  12,N   2)    -52.1466         0.011624   
     97. D(H  17,C  13,C  11,H  15)     52.9782         0.011621   
     98. D(H  17,C  13,C  11,H  14)    -66.1983         0.011621   
     99. D(H  16,C  13,C  12,H  19)    -53.2451         0.011624   
    100. D(H  17,C  13,C  11,N   0)    174.0658         0.011621   
    101. D(H  16,C  13,C  11,H  15)    172.4391         0.011621   
    102. D(H  16,C  13,C  11,H  14)     53.2626         0.011621   
    103. D(H  16,C  13,C  11,N   0)    -66.4732         0.011621   
    -----------------------------------------------------------------

Number of atoms                         .... 20
Number of degrees of freedom            .... 103

         *************************************************************
         *                GEOMETRY OPTIMIZATION CYCLE   1            *
         *************************************************************
---------------------------------
CARTESIAN COORDINATES (ANGSTROEM)
---------------------------------
  N     -1.132987   -0.367610   -0.014179
  C     -0.000004   -1.062042    0.087226
  N      1.132985   -0.367592   -0.014096
  C     -2.383376   -1.078842    0.027027
  C      2.383362   -1.078875    0.026856
  H     -3.006254   -0.727761    0.856641
  H     -2.172316   -2.137034    0.160698
  H     -2.941443   -0.938298   -0.904813
  H      3.006848   -0.727115    0.855716
  H      2.940876   -0.939295   -0.905475
  H      2.172306   -2.136906    0.161713
  C     -1.237838    1.068781   -0.220817
  C      1.237866    1.068815   -0.220557
  C     -0.000028    1.747394    0.353459
  H     -2.139635    1.436761    0.280337
  H     -1.330956    1.291011   -1.293908
  H      0.000066    1.626947    1.439469
  H      0.000043    2.813216    0.121326
  H      1.331188    1.291282   -1.293575
  H      2.139508    1.436771    0.280898

----------------------------
CARTESIAN COORDINATES (A.U.)
----------------------------
  NO LB      ZA    FRAG     MASS         X           Y           Z
   0 N     7.0000    0    14.007   -2.141034   -0.694683   -0.026795
   1 C     6.0000    0    12.011   -0.000007   -2.006968    0.164834
   2 N     7.0000    0    14.007    2.141030   -0.694647   -0.026638
   3 C     6.0000    0    12.011   -4.503928   -2.038716    0.051074
   4 C     6.0000    0    12.011    4.503902   -2.038779    0.050751
   5 H     1.0000    0     1.008   -5.680997   -1.375269    1.618818
   6 H     1.0000    0     1.008   -4.105082   -4.038409    0.303676
   7 H     1.0000    0     1.008   -5.558521   -1.773125   -1.709848
   8 H     1.0000    0     1.008    5.682120   -1.374047    1.617068
   9 H     1.0000    0     1.008    5.557450   -1.775010   -1.711099
  10 H     1.0000    0     1.008    4.105063   -4.038168    0.305593
  11 C     6.0000    0    12.011   -2.339174    2.019704   -0.417284
  12 C     6.0000    0    12.011    2.339227    2.019767   -0.416792
  13 C     6.0000    0    12.011   -0.000052    3.302096    0.667942
  14 H     1.0000    0     1.008   -4.043323    2.715085    0.529759
  15 H     1.0000    0     1.008   -2.515142    2.439656   -2.445133
  16 H     1.0000    0     1.008    0.000124    3.074484    2.720203
  17 H     1.0000    0     1.008    0.000080    5.316208    0.229272
  18 H     1.0000    0     1.008    2.515581    2.440169   -2.444503
  19 H     1.0000    0     1.008    4.043085    2.715105    0.530821

--------------------------------
INTERNAL COORDINATES (ANGSTROEM)
--------------------------------
 N      0   0   0     0.000000000000     0.00000000     0.00000000
 C      1   0   0     1.332729494685     0.00000000     0.00000000
 N      2   1   0     1.332737826627   116.44978139     0.00000000
 C      1   2   3     1.439104542205   118.61661659   177.19123717
 C      3   2   1     1.439113072133   118.61534088   182.82470580
 H      4   1   2     1.095214685468   110.94126536   120.95448046
 H      4   1   2     1.087282862825   108.41236830     1.02338509
 H      4   1   2     1.095224515468   110.79005255   241.24689972
 H      5   3   2     1.095207048871   110.94167583   238.97198470
 H      5   3   2     1.095237441898   110.79731699   118.67756977
 H      5   3   2     1.087272009055   108.41098217   358.89704757
 C      1   2   3     1.454962083708   125.90753730   359.85427625
 C      3   2   1     1.454953316543   125.90887465     0.15398884
 C     13   3   2     1.523924133526   109.12329157    27.41552962
 H     12   1   2     1.095354568647   109.02669163   212.05998476
 H     12   1   2     1.099809769083   110.13031597    93.74435431
 H     14  13   3     1.092668705413   108.97893828    66.49046196
 H     14  13   3     1.090808351038   110.78566810   185.93714935
 H     13   3   2     1.099804433314   110.13678338   266.24492642
 H     13   3   2     1.095357773588   109.02714939   147.92306344

---------------------------
INTERNAL COORDINATES (A.U.)
---------------------------
 N      0   0   0     0.000000000000     0.00000000     0.00000000
 C      1   0   0     2.518493755553     0.00000000     0.00000000
 N      2   1   0     2.518509500643   116.44978139     0.00000000
 C      1   2   3     2.719513462850   118.61661659   177.19123717
 C      3   2   1     2.719529582078   118.61534088   182.82470580
 H      4   1   2     2.069655813383   110.94126536   120.95448046
 H      4   1   2     2.054666840844   108.41236830     1.02338509
 H      4   1   2     2.069674389391   110.79005255   241.24689972
 H      5   3   2     2.069641382307   110.94167583   238.97198470
 H      5   3   2     2.069698816803   110.79731699   118.67756977
 H      5   3   2     2.054646330193   108.41098217   358.89704757
 C      1   2   3     2.749479873448   125.90753730   359.85427625
 C      3   2   1     2.749463305908   125.90887465     0.15398884
 C     13   3   2     2.879799261238   109.12329157    27.41552962
 H     12   1   2     2.069920154283   109.02669163   212.05998476
 H     12   1   2     2.078339262978   110.13031597    93.74435431
 H     14  13   3     2.064844608337   108.97893828    66.49046196
 H     14  13   3     2.061329048057   110.78566810   185.93714935
 H     13   3   2     2.078329179837   110.13678338   266.24492642
 H     13   3   2     2.069926210744   109.02714939   147.92306344

---------------------
BASIS SET INFORMATION
---------------------
There are 3 groups of distinct atoms

 Group   1 Type N   : 7s4p1d contracted to 3s2p1d pattern {511/31/1}
 Group   2 Type C   : 7s4p1d contracted to 3s2p1d pattern {511/31/1}
 Group   3 Type H   : 4s1p contracted to 2s1p pattern {31/1}

Atom   0N    basis set group =>   1
Atom   1C    basis set group =>   2
Atom   2N    basis set group =>   1
Atom   3C    basis set group =>   2
Atom   4C    basis set group =>   2
Atom   5H    basis set group =>   3
Atom   6H    basis set group =>   3
Atom   7H    basis set group =>   3
Atom   8H    basis set group =>   3
Atom   9H    basis set group =>   3
Atom  10H    basis set group =>   3
Atom  11C    basis set group =>   2
Atom  12C    basis set group =>   2
Atom  13C    basis set group =>   2
Atom  14H    basis set group =>   3
Atom  15H    basis set group =>   3
Atom  16H    basis set group =>   3
Atom  17H    basis set group =>   3
Atom  18H    basis set group =>   3
Atom  19H    basis set group =>   3
---------------------------------
AUXILIARY/J BASIS SET INFORMATION
---------------------------------
There are 3 groups of distinct atoms

 Group   1 Type N   : 12s5p4d2f1g contracted to 6s4p3d1f1g pattern {711111/2111/211/2/1}
 Group   2 Type C   : 12s5p4d2f1g contracted to 6s4p3d1f1g pattern {711111/2111/211/2/1}
 Group   3 Type H   : 5s2p1d contracted to 3s1p1d pattern {311/2/1}

Atom   0N    basis set group =>   1
Atom   1C    basis set group =>   2
Atom   2N    basis set group =>   1
Atom   3C    basis set group =>   2
Atom   4C    basis set group =>   2
Atom   5H    basis set group =>   3
Atom   6H    basis set group =>   3
Atom   7H    basis set group =>   3
Atom   8H    basis set group =>   3
Atom   9H    basis set group =>   3
Atom  10H    basis set group =>   3
Atom  11C    basis set group =>   2
Atom  12C    basis set group =>   2
Atom  13C    basis set group =>   2
Atom  14H    basis set group =>   3
Atom  15H    basis set group =>   3
Atom  16H    basis set group =>   3
Atom  17H    basis set group =>   3
Atom  18H    basis set group =>   3
Atom  19H    basis set group =>   3
------------------------------------------------------------------------------
                           ORCA GTO INTEGRAL CALCULATION
                           -- RI-GTO INTEGRALS CHOSEN --
------------------------------------------------------------------------------
------------------------------------------------------------------------------
                   ___                                                        
                  /   \      - P O W E R E D   B Y -                         
                 /     \                                                     
                 |  |  |   _    _      __       _____    __    __             
                 |  |  |  | |  | |    /  \     |  _  \  |  |  /  |          
                  \  \/   | |  | |   /    \    | | | |  |  | /  /          
                 / \  \   | |__| |  /  /\  \   | |_| |  |  |/  /          
                |  |  |   |  __  | /  /__\  \  |    /   |      \           
                |  |  |   | |  | | |   __   |  |    \   |  |\   \          
                \     /   | |  | | |  |  |  |  | |\  \  |  | \   \       
                 \___/    |_|  |_| |__|  |__|  |_| \__\ |__|  \__/        
                                                                              
                      - O R C A' S   B I G   F R I E N D -                    
                                      &                                       
                       - I N T E G R A L  F E E D E R -                       
                                                                              
 v1 FN, 2020, v2 2021                                                         
------------------------------------------------------------------------------


Reading SHARK input file 10_deprot_aq_1.SHARKINP.tmp ... ok
----------------------
SHARK INTEGRAL PACKAGE
----------------------

Number of atoms                             ...     20
Number of basis functions                   ...    172
Number of shells                            ...     84
Maximum angular momentum                    ...      2
Integral batch strategy                     ... SHARK/LIBINT Hybrid
RI-J (if used) integral strategy            ... SPLIT-RIJ (Revised 2003 algorithm where possible)
Printlevel                                  ...      1
Contraction scheme used                     ... SEGMENTED contraction
Coulomb Range Separation                    ... NOT USED
Exchange Range Separation                   ... Long Range
   Mu parameter                             ...  0.300000
   Scaling (regular/separated)              ...  0.157706  0.842294
Finite Nucleus Model                        ... NOT USED
Auxiliary Coulomb fitting basis             ... AVAILABLE
   # of basis functions in Aux-J            ...    524
   # of shells in Aux-J                     ...    180
   Maximum angular momentum in Aux-J        ...      4
Auxiliary J/K fitting basis                 ... NOT available
Auxiliary Correlation fitting basis         ... NOT available
Auxiliary 'external' fitting basis          ... NOT available
Integral threshold                          ...     2.500000e-11
Primitive cut-off                           ...     2.500000e-12
Primitive pair pre-selection threshold      ...     2.500000e-12

Calculating pre-screening integrals         ... done (  0.0 sec) Dimension = 84
Organizing shell pair data                  ... done (  0.0 sec)
Shell pair information
Total number of shell pairs                 ...      3570
Shell pairs after pre-screening             ...      3379
Total number of primitive shell pairs       ...     12386
Primitive shell pairs kept                  ...      8702
          la=0 lb=0:   1126 shell pairs
          la=1 lb=0:   1261 shell pairs
          la=1 lb=1:    374 shell pairs
          la=2 lb=0:    366 shell pairs
          la=2 lb=1:    216 shell pairs
          la=2 lb=2:     36 shell pairs

Calculating one electron integrals          ... done (  0.0 sec)
Calculating RI/J V-Matrix + Cholesky decomp.... done (  0.0 sec)
Calculating Nuclear repulsion               ... done (  0.0 sec) ENN=    397.854359945799 Eh

SHARK setup successfully completed in   0.2 seconds

Maximum memory used throughout the entire GTOINT-calculation: 23.3 MB
-------------------------------------------------------------------------------
                                 ORCA SCF
-------------------------------------------------------------------------------

------------
SCF SETTINGS
------------
Hamiltonian:
 Density Functional     Method          .... DFT(GTOs)
 Exchange Functional    Exchange        .... WB97X
 Correlation Functional Correlation     .... WB97X
 Gradients option       PostSCFGGA      .... off
 Hybrid DFT is turned on
   Fraction HF Exchange ScalHFX         ....  0.157706
   Scaling of DF-GGA-X  ScalDFX         ....  0.000000
   Scaling of DF-GGA-C  ScalDFC         ....  1.000000
   Scaling of DF-LDA-C  ScalLDAC        ....  1.000000
   Perturbative correction              ....  0.000000
   Density functional embedding theory  .... OFF
 Long-range corrected/Screened/Range-Separated Hybrid DFT is turned on
   Amount of maximum screened exact exchange              ....  0.842294
   Range separation parameter mu (erf(mu*r12)/r12)        ....  0.300000
 RI-approximation to the Coulomb term is turned on
   Number of AuxJ basis functions       .... 524
   RIJ-COSX (HFX calculated with COS-X)).... on


General Settings:
 Integral files         IntName         .... 10_deprot_aq_1
 Hartree-Fock type      HFTyp           .... RHF
 Total Charge           Charge          ....    0
 Multiplicity           Mult            ....    1
 Number of Electrons    NEL             ....   62
 Basis Dimension        Dim             ....  172
 Nuclear Repulsion      ENuc            ....    397.8543599458 Eh

Convergence Acceleration:
 DIIS                   CNVDIIS         .... on
   Start iteration      DIISMaxIt       ....     0
   Startup error        DIISStart       ....  0.200000
   # of expansion vecs  DIISMaxEq       ....     5
   Bias factor          DIISBfac        ....   1.050
   Max. coefficient     DIISMaxC        ....  10.000
 Trust-Rad. Augm. Hess. CNVTRAH         .... auto
   Auto Start mean grad. ratio tolernc. ....  1.125000
   Auto Start start iteration           ....    20
   Auto Start num. interpolation iter.  ....    10
   Max. Number of Micro iterations      ....    16
   Max. Number of Macro iterations      .... Maxiter - #DIIS iter
   Number of Davidson start vectors     ....     2
   Converg. threshold I  (grad. norm)   ....   1.000e-05
   Converg. threshold II (energy diff.) ....   1.000e-08
   Grad. Scal. Fac. for Micro threshold ....   0.100
   Minimum threshold for Micro iter.    ....   0.010
   NR start threshold (gradient norm)   ....   0.001
   Initial trust radius                 ....   0.400
   Minimum AH scaling param. (alpha)    ....   1.000
   Maximum AH scaling param. (alpha)    .... 1000.000
   Orbital update algorithm             .... Taylor
   White noise on init. David. guess    .... on
   Maximum white noise                  ....   0.010
   Quad. conv. algorithm                .... NR
 SOSCF                  CNVSOSCF        .... on
   Start iteration      SOSCFMaxIt      ....   150
   Startup grad/error   SOSCFStart      ....  0.001000
 Level Shifting         CNVShift        .... on
   Level shift para.    LevelShift      ....    0.2500
   Turn off err/grad.   ShiftErr        ....    0.0000
 Zerner damping         CNVZerner       .... off
 Static damping         CNVDamp         .... on
   Fraction old density DampFac         ....    0.8500
   Max. Damping (<1)    DampMax         ....    0.9800
   Min. Damping (>=0)   DampMin         ....    0.0000
   Turn off err/grad.   DampErr         ....    0.0300
 Fernandez-Rico         CNVRico         .... off

SCF Procedure:
 Maximum # iterations   MaxIter         ....   125
 SCF integral mode      SCFMode         .... Direct
   Integral package                     .... SHARK and LIBINT hybrid scheme
 Reset frequency        DirectResetFreq ....    20
 Integral Threshold     Thresh          ....  2.500e-11 Eh
 Primitive CutOff       TCut            ....  2.500e-12 Eh

Convergence Tolerance:
 Convergence Check Mode ConvCheckMode   .... Total+1el-Energy
 Convergence forced     ConvForced      .... 0
 Energy Change          TolE            ....  1.000e-08 Eh
 1-El. energy change                    ....  1.000e-05 Eh
 Orbital Gradient       TolG            ....  1.000e-05
 Orbital Rotation angle TolX            ....  1.000e-05
 DIIS Error             TolErr          ....  5.000e-07


Diagonalization of the overlap matrix:
Smallest eigenvalue                        ... 2.111e-03
Time for diagonalization                   ...    0.006 sec
Threshold for overlap eigenvalues          ... 1.000e-08
Number of eigenvalues below threshold      ... 0
Time for construction of square roots      ...    0.003 sec
Total time needed                          ...    0.009 sec

Time for model grid setup =    0.261 sec

------------------------------
INITIAL GUESS: MODEL POTENTIAL
------------------------------
Loading Hartree-Fock densities                     ... done
Calculating cut-offs                               ... done
Initializing the effective Hamiltonian             ... done
Setting up the integral package (SHARK)            ... done
Starting the Coulomb interaction                   ... done (   0.2 sec)
Reading the grid                                   ... done
Mapping shells                                     ... done
Starting the XC term evaluation                    ... done (   0.3 sec)
  promolecular density results
     # of electrons  =     61.994915189
     EX              =    -47.351458678
     EC              =     -2.055686867
     EX+EC           =    -49.407145545
Transforming the Hamiltonian                       ... done (   0.0 sec)
Diagonalizing the Hamiltonian                      ... done (   0.0 sec)
Back transforming the eigenvectors                 ... done (   0.0 sec)
Now organizing SCF variables                       ... done
                      ------------------
                      INITIAL GUESS DONE (   0.8 sec)
                      ------------------
-------------------
DFT GRID GENERATION
-------------------

General Integration Accuracy     IntAcc      ... 4.388
Radial Grid Type                 RadialGrid  ... OptM3 with GC (2021)
Angular Grid (max. ang.)         AngularGrid ... 4 (Lebedev-302)
Angular grid pruning method      GridPruning ... 4 (adaptive)
Weight generation scheme         WeightScheme... Becke
Basis function cutoff            BFCut       ... 1.0000e-11
Integration weight cutoff        WCut        ... 1.0000e-14
Angular grids for H and He will be reduced by one unit
Partially contracted basis set               ... off
Rotationally invariant grid construction     ... off

Total number of grid points                  ...    86434
Total number of batches                      ...     1359
Average number of points per batch           ...       63
Average number of grid points per atom       ...     4322
Time for grid setup =    1.021 sec

--------------------
COSX GRID GENERATION
--------------------

GRIDX 1
-------
General Integration Accuracy     IntAcc      ... 3.816
Radial Grid Type                 RadialGrid  ... OptM3 with GC (2021)
Angular Grid (max. ang.)         AngularGrid ... 1 (Lebedev-50)
Angular grid pruning method      GridPruning ... 4 (adaptive)
Weight generation scheme         WeightScheme... Becke
Basis function cutoff            BFCut       ... 1.0000e-11
Integration weight cutoff        WCut        ... 1.0000e-14
Angular grids for H and He will be reduced by one unit
Partially contracted basis set               ... on
Rotationally invariant grid construction     ... off

Total number of grid points                  ...    11105
Total number of batches                      ...      185
Average number of points per batch           ...       60
Average number of grid points per atom       ...      555
UseSFitting                                  ... on

GRIDX 2
-------
General Integration Accuracy     IntAcc      ... 4.020
Radial Grid Type                 RadialGrid  ... OptM3 with GC (2021)
Angular Grid (max. ang.)         AngularGrid ... 2 (Lebedev-110)
Angular grid pruning method      GridPruning ... 4 (adaptive)
Weight generation scheme         WeightScheme... Becke
Basis function cutoff            BFCut       ... 1.0000e-11
Integration weight cutoff        WCut        ... 1.0000e-14
Angular grids for H and He will be reduced by one unit
Partially contracted basis set               ... on
Rotationally invariant grid construction     ... off

Total number of grid points                  ...    23323
Total number of batches                      ...      377
Average number of points per batch           ...       61
Average number of grid points per atom       ...     1166
UseSFitting                                  ... on

GRIDX 3
-------
General Integration Accuracy     IntAcc      ... 4.338
Radial Grid Type                 RadialGrid  ... OptM3 with GC (2021)
Angular Grid (max. ang.)         AngularGrid ... 3 (Lebedev-194)
Angular grid pruning method      GridPruning ... 4 (adaptive)
Weight generation scheme         WeightScheme... Becke
Basis function cutoff            BFCut       ... 1.0000e-11
Integration weight cutoff        WCut        ... 1.0000e-14
Angular grids for H and He will be reduced by one unit
Partially contracted basis set               ... on
Rotationally invariant grid construction     ... off

Total number of grid points                  ...    50945
Total number of batches                      ...      805
Average number of points per batch           ...       63
Average number of grid points per atom       ...     2547
UseSFitting                                  ... on

Time for X-Grid setup             =    1.282 sec


--------------------
CPCM SOLVATION MODEL
--------------------
CPCM parameters:
  Epsilon                                         ...      80.4000
  Refrac                                          ...       1.3300
  Rsolv                                           ...       1.3000
  Surface type                                    ... GAUSSIAN VDW
  Epsilon function type                           ...         CPCM
Radii:
 Radius for N  used is    3.5149 Bohr (=   1.8600 Ang.)
 Radius for C  used is    3.8550 Bohr (=   2.0400 Ang.)
 Radius for H  used is    2.4944 Bohr (=   1.3200 Ang.)
Calculating surface                               ...        done! (  0.0s)
GEPOL surface points                              ...         1087
GEPOL Volume                                      ...    1039.6497
GEPOL Surface-area                                ...     592.0409
Calculating surface distance matrix               ...        done! (  0.0s)
Performing Cholesky decomposition & store         ...        done! (  0.0s)
Overall time for CPCM initialization              ...                 0.0s
--------------
SCF ITERATIONS
--------------
ITER       Energy         Delta-E        Max-DP      RMS-DP      [F,P]     Damp
               ***  Starting incremental Fock matrix formation  ***
  0   -344.8249120556   0.000000000000 0.03922312  0.00083594  0.1312046 0.8500
  1   -344.8579759086  -0.033063852957 0.04204673  0.00080687  0.1071822 0.8500
                               ***Turning on DIIS***
  2   -344.8834542772  -0.025478368602 0.03690286  0.00066618  0.0837413 0.8500
  3   -344.9025953023  -0.019141025149 0.02958944  0.00047649  0.0647004 0.8500
  4   -344.9174783434  -0.014883041056 0.02405717  0.00036294  0.0519846 0.8500
  5   -344.9292663714  -0.011788027964 0.02008214  0.00029655  0.0431414 0.8500
  6   -344.9388789010  -0.009612529601 0.01703726  0.00025005  0.0363653 0.8500
  7   -344.9468504416  -0.007971540643 0.01466301  0.00021584  0.0308564 0.8500
  8   -344.9535279971  -0.006677555531 0.08463481  0.00124213  0.0261615 0.0000
  9   -344.9896328241  -0.036104826975 0.00138595  0.00005040  0.0013440 0.0000
                      *** Initiating the SOSCF procedure ***
                           *** Shutting down DIIS ***
                      *** Re-Reading the Fockian *** 
                      *** Removing any level shift *** 
ITER      Energy       Delta-E        Grad      Rot      Max-DP    RMS-DP
 10   -344.98964983  -0.0000170040  0.000305  0.000305  0.000702  0.000025
               *** Restarting incremental Fock matrix formation ***
 11   -344.98964264   0.0000071877  0.000284  0.000530  0.001226  0.000020
 12   -344.98964354  -0.0000009027  0.000070  0.000240  0.000447  0.000013
 13   -344.98964373  -0.0000001908  0.000023  0.000037  0.000167  0.000003
 14   -344.98964376  -0.0000000302  0.000004  0.000006  0.000009  0.000000
                  ***Gradient check signals convergence***
              ***Rediagonalizing the Fockian in SOSCF/NRSCF***

               *****************************************************
               *                     SUCCESS                       *
               *           SCF CONVERGED AFTER  15 CYCLES          *
               *****************************************************

Old exchange energy                            =    -15.824247427 Eh
New exchange energy                            =    -15.824206577 Eh
Exchange energy change after final integration =      0.000040849 Eh
Total energy after final integration           =   -344.989602919 Eh
Final COS-X integration done in                =    27.778 sec

----------------
TOTAL SCF ENERGY
----------------

Total Energy       :         -344.98960292 Eh           -9387.64435 eV

Components:
Nuclear Repulsion  :          397.85435995 Eh           10826.16753 eV
Electronic Energy  :         -742.84396286 Eh          -20213.81188 eV
One Electron Energy:        -1253.38257961 Eh          -34106.27392 eV
Two Electron Energy:          510.53861674 Eh           13892.46204 eV
Max COSX asymmetry :            0.00000245 Eh               0.00007 eV
CPCM Dielectric    :           -0.01353657 Eh              -0.36835 eV

Virial components:
Potential Energy   :         -686.10051020 Eh          -18669.74403 eV
Kinetic Energy     :          341.11090728 Eh            9282.09968 eV
Virial Ratio       :            2.01137078


DFT components:
N(Alpha)           :       31.000063615520 electrons
N(Beta)            :       31.000063615520 electrons
N(Total)           :       62.000127231039 electrons
E(XC)              :      -34.977492132269 Eh       
DFET-embed. en.    :        0.000000000000 Eh       
CPCM Solvation Model Properties:
Surface-charge          :           -0.02367393
Charge-correction       :           -0.00059244 Eh              -0.01612 eV
Free-energy (cav+disp)  :  This term is not implemented in the current solvation scheme

---------------
SCF CONVERGENCE
---------------

  Last Energy change         ...   -4.2499e-09  Tolerance :   1.0000e-08
  Last MAX-Density change    ...    1.7998e-15  Tolerance :   1.0000e-07
  Last RMS-Density change    ...    3.6593e-17  Tolerance :   5.0000e-09
  Last Orbital Gradient      ...    1.6120e-06  Tolerance :   1.0000e-05
  Last Orbital Rotation      ...    2.9904e-06  Tolerance :   1.0000e-05

             **** THE GBW FILE WAS UPDATED (10_deprot_aq_1.gbw) ****
             **** DENSITY 10_deprot_aq_1.scfp WAS UPDATED ****
             **** ENERGY FILE WAS UPDATED (10_deprot_aq_1.en.tmp) ****
             **** THE GBW FILE WAS UPDATED (10_deprot_aq_1.gbw) ****
             **** DENSITY 10_deprot_aq_1.scfp WAS UPDATED ****
----------------
ORBITAL ENERGIES
----------------

  NO   OCC          E(Eh)            E(eV) 
   0   2.0000     -14.418401      -392.3446 
   1   2.0000     -14.418393      -392.3444 
   2   2.0000     -10.294509      -280.1278 
   3   2.0000     -10.294499      -280.1276 
   4   2.0000     -10.283930      -279.8400 
   5   2.0000     -10.283907      -279.8393 
   6   2.0000     -10.273788      -279.5640 
   7   2.0000     -10.267383      -279.3897 
   8   2.0000      -1.100353       -29.9421 
   9   2.0000      -1.031672       -28.0732 
  10   2.0000      -0.911710       -24.8089 
  11   2.0000      -0.841032       -22.8857 
  12   2.0000      -0.822604       -22.3842 
  13   2.0000      -0.750517       -20.4226 
  14   2.0000      -0.745370       -20.2826 
  15   2.0000      -0.637449       -17.3459 
  16   2.0000      -0.608160       -16.5489 
  17   2.0000      -0.608042       -16.5457 
  18   2.0000      -0.578827       -15.7507 
  19   2.0000      -0.563741       -15.3402 
  20   2.0000      -0.537709       -14.6318 
  21   2.0000      -0.534014       -14.5313 
  22   2.0000      -0.515348       -14.0233 
  23   2.0000      -0.500635       -13.6230 
  24   2.0000      -0.480512       -13.0754 
  25   2.0000      -0.465243       -12.6599 
  26   2.0000      -0.453427       -12.3384 
  27   2.0000      -0.435192       -11.8422 
  28   2.0000      -0.407979       -11.1017 
  29   2.0000      -0.310775        -8.4566 
  30   2.0000      -0.297574        -8.0974 
  31   0.0000       0.129011         3.5106 
  32   0.0000       0.150570         4.0972 
  33   0.0000       0.170795         4.6476 
  34   0.0000       0.191969         5.2238 
  35   0.0000       0.203954         5.5499 
  36   0.0000       0.217969         5.9312 
  37   0.0000       0.225176         6.1274 
  38   0.0000       0.233957         6.3663 
  39   0.0000       0.236782         6.4432 
  40   0.0000       0.242762         6.6059 
  41   0.0000       0.244147         6.6436 
  42   0.0000       0.249682         6.7942 
  43   0.0000       0.264591         7.1999 
  44   0.0000       0.271386         7.3848 
  45   0.0000       0.277830         7.5601 
  46   0.0000       0.308942         8.4067 
  47   0.0000       0.336591         9.1591 
  48   0.0000       0.342933         9.3317 
  49   0.0000       0.356306         9.6956 
  50   0.0000       0.407145        11.0790 
  51   0.0000       0.469271        12.7695 
  52   0.0000       0.505097        13.7444 
  53   0.0000       0.520782        14.1712 
  54   0.0000       0.525926        14.3112 
  55   0.0000       0.541418        14.7327 
  56   0.0000       0.571133        15.5413 
  57   0.0000       0.575482        15.6596 
  58   0.0000       0.590758        16.0753 
  59   0.0000       0.620148        16.8751 
  60   0.0000       0.648826        17.6555 
  61   0.0000       0.649904        17.6848 
  62   0.0000       0.680975        18.5303 
  63   0.0000       0.690613        18.7925 
  64   0.0000       0.729349        19.8466 
  65   0.0000       0.736075        20.0296 
  66   0.0000       0.741248        20.1704 
  67   0.0000       0.746585        20.3156 
  68   0.0000       0.750911        20.4333 
  69   0.0000       0.766557        20.8591 
  70   0.0000       0.768749        20.9187 
  71   0.0000       0.783295        21.3145 
  72   0.0000       0.788255        21.4495 
  73   0.0000       0.794972        21.6323 
  74   0.0000       0.797700        21.7065 
  75   0.0000       0.800864        21.7926 
  76   0.0000       0.806652        21.9501 
  77   0.0000       0.813598        22.1391 
  78   0.0000       0.816138        22.2082 
  79   0.0000       0.821566        22.3559 
  80   0.0000       0.828460        22.5436 
  81   0.0000       0.830466        22.5981 
  82   0.0000       0.844121        22.9697 
  83   0.0000       0.901737        24.5375 
  84   0.0000       0.932516        25.3750 
  85   0.0000       0.997767        27.1506 
  86   0.0000       1.057699        28.7815 
  87   0.0000       1.065819        29.0024 
  88   0.0000       1.095217        29.8024 
  89   0.0000       1.108499        30.1638 
  90   0.0000       1.164753        31.6945 
  91   0.0000       1.235447        33.6182 
  92   0.0000       1.249612        34.0037 
  93   0.0000       1.304951        35.5095 
  94   0.0000       1.321384        35.9567 
  95   0.0000       1.338407        36.4199 
  96   0.0000       1.345870        36.6230 
  97   0.0000       1.398794        38.0631 
  98   0.0000       1.430924        38.9374 
  99   0.0000       1.495516        40.6951 
 100   0.0000       1.517265        41.2869 
 101   0.0000       1.613675        43.9103 
 102   0.0000       1.631091        44.3842 
 103   0.0000       1.649204        44.8771 
 104   0.0000       1.650815        44.9210 
 105   0.0000       1.683277        45.8043 
 106   0.0000       1.708145        46.4810 
 107   0.0000       1.740845        47.3708 
 108   0.0000       1.771764        48.2121 
 109   0.0000       1.780032        48.4371 
 110   0.0000       1.851694        50.3871 
 111   0.0000       1.855547        50.4920 
 112   0.0000       1.883352        51.2486 
 113   0.0000       1.884248        51.2730 
 114   0.0000       1.885967        51.3198 
 115   0.0000       1.902253        51.7629 
 116   0.0000       1.919369        52.2287 
 117   0.0000       1.923942        52.3531 
 118   0.0000       1.937289        52.7163 
 119   0.0000       1.951238        53.0959 
 120   0.0000       1.955408        53.2094 
 121   0.0000       1.963482        53.4291 
 122   0.0000       1.984543        54.0022 
 123   0.0000       1.996441        54.3259 
 124   0.0000       2.023425        55.0602 
 125   0.0000       2.024748        55.0962 
 126   0.0000       2.028220        55.1907 
 127   0.0000       2.080445        56.6118 
 128   0.0000       2.092056        56.9277 
 129   0.0000       2.107692        57.3532 
 130   0.0000       2.147957        58.4489 
 131   0.0000       2.162703        58.8502 
 132   0.0000       2.177460        59.2517 
 133   0.0000       2.191439        59.6321 
 134   0.0000       2.243393        61.0458 
 135   0.0000       2.295311        62.4586 
 136   0.0000       2.303280        62.6754 
 137   0.0000       2.307975        62.8032 
 138   0.0000       2.378446        64.7208 
 139   0.0000       2.386047        64.9276 
 140   0.0000       2.435901        66.2842 
 141   0.0000       2.437783        66.3355 
 142   0.0000       2.468039        67.1588 
 143   0.0000       2.479978        67.4836 
 144   0.0000       2.553786        69.4920 
 145   0.0000       2.558569        69.6222 
 146   0.0000       2.577586        70.1397 
 147   0.0000       2.620967        71.3201 
 148   0.0000       2.663202        72.4694 
 149   0.0000       2.702028        73.5259 
 150   0.0000       2.748976        74.8034 
 151   0.0000       2.762751        75.1783 
 152   0.0000       2.779069        75.6223 
 153   0.0000       2.795709        76.0751 
 154   0.0000       2.845825        77.4388 
 155   0.0000       2.875191        78.2379 
 156   0.0000       2.900312        78.9215 
 157   0.0000       2.939463        79.9868 
 158   0.0000       2.997789        81.5740 
 159   0.0000       3.015190        82.0475 
 160   0.0000       3.029906        82.4479 
 161   0.0000       3.049425        82.9791 
 162   0.0000       3.056494        83.1714 
 163   0.0000       3.067703        83.4764 
 164   0.0000       3.082236        83.8719 
 165   0.0000       3.133702        85.2724 
 166   0.0000       3.147058        85.6358 
 167   0.0000       3.173868        86.3653 
 168   0.0000       3.219677        87.6119 
 169   0.0000       3.279607        89.2427 
 170   0.0000       3.410310        92.7992 
 171   0.0000       3.555704        96.7556 

                    ********************************
                    * MULLIKEN POPULATION ANALYSIS *
                    ********************************

-----------------------
MULLIKEN ATOMIC CHARGES
-----------------------
   0 N :   -0.325124
   1 C :   -0.198818
   2 N :   -0.325132
   3 C :    0.123744
   4 C :    0.123763
   5 H :    0.034413
   6 H :    0.025269
   7 H :    0.030652
   8 H :    0.034394
   9 H :    0.030649
  10 H :    0.025258
  11 C :    0.120022
  12 C :    0.120012
  13 C :   -0.063475
  14 H :    0.040851
  15 H :    0.038075
  16 H :    0.039125
  17 H :    0.047433
  18 H :    0.038048
  19 H :    0.040843
Sum of atomic charges:    0.0000000

--------------------------------
MULLIKEN REDUCED ORBITAL CHARGES
--------------------------------
  0 N s       :     3.404005  s :     3.404005
      pz      :     1.616306  p :     3.891159
      px      :     1.145346
      py      :     1.129507
      dz2     :     0.002329  d :     0.029959
      dxz     :     0.004037
      dyz     :     0.003355
      dx2y2   :     0.010587
      dxy     :     0.009652
  1 C s       :     3.553278  s :     3.553278
      pz      :     0.630091  p :     2.574836
      px      :     0.708232
      py      :     1.236514
      dz2     :     0.007681  d :     0.070704
      dxz     :     0.020626
      dyz     :     0.007844
      dx2y2   :     0.008813
      dxy     :     0.025739
  2 N s       :     3.404007  s :     3.404007
      pz      :     1.616335  p :     3.891167
      px      :     1.145350
      py      :     1.129482
      dz2     :     0.002328  d :     0.029958
      dxz     :     0.004037
      dyz     :     0.003355
      dx2y2   :     0.010586
      dxy     :     0.009652
  3 C s       :     2.976900  s :     2.976900
      pz      :     1.025415  p :     2.858272
      px      :     0.850377
      py      :     0.982480
      dz2     :     0.006633  d :     0.041083
      dxz     :     0.013746
      dyz     :     0.002671
      dx2y2   :     0.008724
      dxy     :     0.009309
  4 C s       :     2.976884  s :     2.976884
      pz      :     1.025425  p :     2.858270
      px      :     0.850378
      py      :     0.982468
      dz2     :     0.006632  d :     0.041083
      dxz     :     0.013743
      dyz     :     0.002675
      dx2y2   :     0.008721
      dxy     :     0.009312
  5 H s       :     0.942466  s :     0.942466
      pz      :     0.011146  p :     0.023121
      px      :     0.006789
      py      :     0.005186
  6 H s       :     0.951226  s :     0.951226
      pz      :     0.005022  p :     0.023505
      px      :     0.003747
      py      :     0.014736
  7 H s       :     0.946198  s :     0.946198
      pz      :     0.012623  p :     0.023150
      px      :     0.006094
      py      :     0.004432
  8 H s       :     0.942484  s :     0.942484
      pz      :     0.011136  p :     0.023123
      px      :     0.006797
      py      :     0.005190
  9 H s       :     0.946202  s :     0.946202
      pz      :     0.012631  p :     0.023149
      px      :     0.006088
      py      :     0.004430
 10 H s       :     0.951236  s :     0.951236
      pz      :     0.005025  p :     0.023506
      px      :     0.003747
      py      :     0.014733
 11 C s       :     2.986003  s :     2.986003
      pz      :     1.018999  p :     2.845549
      px      :     1.019924
      py      :     0.806626
      dz2     :     0.011028  d :     0.048427
      dxz     :     0.005703
      dyz     :     0.009842
      dx2y2   :     0.013998
      dxy     :     0.007855
 12 C s       :     2.985980  s :     2.985980
      pz      :     1.019017  p :     2.845577
      px      :     1.019933
      py      :     0.806627
      dz2     :     0.011026  d :     0.048431
      dxz     :     0.005706
      dyz     :     0.009844
      dx2y2   :     0.013998
      dxy     :     0.007856
 13 C s       :     3.040829  s :     3.040829
      pz      :     1.013754  p :     2.988217
      px      :     0.959729
      py      :     1.014733
      dz2     :     0.010240  d :     0.034429
      dxz     :     0.006503
      dyz     :     0.003045
      dx2y2   :     0.008590
      dxy     :     0.006051
 14 H s       :     0.936882  s :     0.936882
      pz      :     0.006857  p :     0.022268
      px      :     0.011464
      py      :     0.003947
 15 H s       :     0.940071  s :     0.940071
      pz      :     0.014861  p :     0.021854
      px      :     0.004005
      py      :     0.002989
 16 H s       :     0.938157  s :     0.938157
      pz      :     0.014971  p :     0.022718
      px      :     0.003516
      py      :     0.004231
 17 H s       :     0.929508  s :     0.929508
      pz      :     0.004790  p :     0.023058
      px      :     0.003649
      py      :     0.014619
 18 H s       :     0.940097  s :     0.940097
      pz      :     0.014859  p :     0.021855
      px      :     0.004006
      py      :     0.002990
 19 H s       :     0.936890  s :     0.936890
      pz      :     0.006859  p :     0.022268
      px      :     0.011462
      py      :     0.003946


                     *******************************
                     * LOEWDIN POPULATION ANALYSIS *
                     *******************************

----------------------
LOEWDIN ATOMIC CHARGES
----------------------
   0 N :   -0.048152
   1 C :   -0.275666
   2 N :   -0.048158
   3 C :    0.024689
   4 C :    0.024688
   5 H :    0.019897
   6 H :    0.020777
   7 H :    0.019739
   8 H :    0.019898
   9 H :    0.019732
  10 H :    0.020773
  11 C :    0.035236
  12 C :    0.035227
  13 C :   -0.042975
  14 H :    0.029698
  15 H :    0.023610
  16 H :    0.030159
  17 H :    0.037538
  18 H :    0.023594
  19 H :    0.029695

-------------------------------
LOEWDIN REDUCED ORBITAL CHARGES
-------------------------------
  0 N s       :     3.058124  s :     3.058124
      pz      :     1.545117  p :     3.919351
      px      :     1.195609
      py      :     1.178625
      dz2     :     0.004195  d :     0.070677
      dxz     :     0.007299
      dyz     :     0.006086
      dx2y2   :     0.026575
      dxy     :     0.026523
  1 C s       :     3.145098  s :     3.145098
      pz      :     0.682709  p :     2.970151
      px      :     0.876395
      py      :     1.411046
      dz2     :     0.017857  d :     0.160417
      dxz     :     0.045599
      dyz     :     0.011256
      dx2y2   :     0.026438
      dxy     :     0.059268
  2 N s       :     3.058125  s :     3.058125
      pz      :     1.545143  p :     3.919358
      px      :     1.195608
      py      :     1.178607
      dz2     :     0.004195  d :     0.070676
      dxz     :     0.007297
      dyz     :     0.006086
      dx2y2   :     0.026574
      dxy     :     0.026524
  3 C s       :     2.828632  s :     2.828632
      pz      :     1.074957  p :     3.044254
      px      :     0.936088
      py      :     1.033208
      dz2     :     0.016825  d :     0.102425
      dxz     :     0.035848
      dyz     :     0.005644
      dx2y2   :     0.021695
      dxy     :     0.022414
  4 C s       :     2.828629  s :     2.828629
      pz      :     1.074967  p :     3.044259
      px      :     0.936092
      py      :     1.033199
      dz2     :     0.016823  d :     0.102424
      dxz     :     0.035837
      dyz     :     0.005655
      dx2y2   :     0.021688
      dxy     :     0.022421
  5 H s       :     0.915341  s :     0.915341
      pz      :     0.029802  p :     0.064762
      px      :     0.020506
      py      :     0.014454
  6 H s       :     0.912184  s :     0.912184
      pz      :     0.013275  p :     0.067039
      px      :     0.011351
      py      :     0.042413
  7 H s       :     0.915379  s :     0.915379
      pz      :     0.033949  p :     0.064882
      px      :     0.018526
      py      :     0.012408
  8 H s       :     0.915339  s :     0.915339
      pz      :     0.029773  p :     0.064763
      px      :     0.020525
      py      :     0.014465
  9 H s       :     0.915387  s :     0.915387
      pz      :     0.033969  p :     0.064881
      px      :     0.018509
      py      :     0.012402
 10 H s       :     0.912186  s :     0.912186
      pz      :     0.013284  p :     0.067041
      px      :     0.011351
      py      :     0.042405
 11 C s       :     2.828055  s :     2.828055
      pz      :     1.068684  p :     3.019818
      px      :     1.051024
      py      :     0.900111
      dz2     :     0.027215  d :     0.116891
      dxz     :     0.013791
      dyz     :     0.022905
      dx2y2   :     0.033588
      dxy     :     0.019392
 12 C s       :     2.828043  s :     2.828043
      pz      :     1.068695  p :     3.019830
      px      :     1.051027
      py      :     0.900107
      dz2     :     0.027209  d :     0.116900
      dxz     :     0.013798
      dyz     :     0.022911
      dx2y2   :     0.033589
      dxy     :     0.019393
 13 C s       :     2.830923  s :     2.830923
      pz      :     1.057865  p :     3.124705
      px      :     1.017526
      py      :     1.049314
      dz2     :     0.026207  d :     0.087347
      dxz     :     0.015396
      dyz     :     0.007056
      dx2y2   :     0.022252
      dxy     :     0.016436
 14 H s       :     0.904203  s :     0.904203
      pz      :     0.019204  p :     0.066099
      px      :     0.033113
      py      :     0.013783
 15 H s       :     0.910657  s :     0.910657
      pz      :     0.040969  p :     0.065733
      px      :     0.013124
      py      :     0.011640
 16 H s       :     0.902416  s :     0.902416
      pz      :     0.041131  p :     0.067425
      px      :     0.013267
      py      :     0.013027
 17 H s       :     0.895016  s :     0.895016
      pz      :     0.014015  p :     0.067446
      px      :     0.013471
      py      :     0.039960
 18 H s       :     0.910672  s :     0.910672
      pz      :     0.040965  p :     0.065734
      px      :     0.013127
      py      :     0.011643
 19 H s       :     0.904207  s :     0.904207
      pz      :     0.019211  p :     0.066098
      px      :     0.033106
      py      :     0.013781


                      *****************************
                      * MAYER POPULATION ANALYSIS *
                      *****************************

  NA   - Mulliken gross atomic population
  ZA   - Total nuclear charge
  QA   - Mulliken gross atomic charge
  VA   - Mayer's total valence
  BVA  - Mayer's bonded valence
  FA   - Mayer's free valence

  ATOM       NA         ZA         QA         VA         BVA        FA
  0 N      7.3251     7.0000    -0.3251     3.2770     3.2770     0.0000
  1 C      6.1988     6.0000    -0.1988     2.7648     2.7648    -0.0000
  2 N      7.3251     7.0000    -0.3251     3.2770     3.2770     0.0000
  3 C      5.8763     6.0000     0.1237     3.8905     3.8905    -0.0000
  4 C      5.8762     6.0000     0.1238     3.8905     3.8905     0.0000
  5 H      0.9656     1.0000     0.0344     0.9917     0.9917    -0.0000
  6 H      0.9747     1.0000     0.0253     1.0346     1.0346    -0.0000
  7 H      0.9693     1.0000     0.0307     0.9904     0.9904    -0.0000
  8 H      0.9656     1.0000     0.0344     0.9917     0.9917    -0.0000
  9 H      0.9694     1.0000     0.0306     0.9904     0.9904    -0.0000
 10 H      0.9747     1.0000     0.0253     1.0346     1.0346    -0.0000
 11 C      5.8800     6.0000     0.1200     3.9618     3.9618    -0.0000
 12 C      5.8800     6.0000     0.1200     3.9618     3.9618     0.0000
 13 C      6.0635     6.0000    -0.0635     4.0943     4.0943     0.0000
 14 H      0.9591     1.0000     0.0409     0.9875     0.9875    -0.0000
 15 H      0.9619     1.0000     0.0381     0.9845     0.9845    -0.0000
 16 H      0.9609     1.0000     0.0391     0.9834     0.9834     0.0000
 17 H      0.9526     1.0000     0.0474     0.9842     0.9842    -0.0000
 18 H      0.9620     1.0000     0.0380     0.9845     0.9845    -0.0000
 19 H      0.9592     1.0000     0.0408     0.9875     0.9875     0.0000

  Mayer bond orders larger than 0.100000
B(  0-N ,  1-C ) :   1.2918 B(  0-N ,  3-C ) :   0.9782 B(  0-N , 11-C ) :   0.9216 
B(  1-C ,  2-N ) :   1.2917 B(  2-N ,  4-C ) :   0.9782 B(  2-N , 12-C ) :   0.9216 
B(  3-C ,  5-H ) :   0.9755 B(  3-C ,  6-H ) :   0.9687 B(  3-C ,  7-H ) :   0.9736 
B(  4-C ,  8-H ) :   0.9755 B(  4-C ,  9-H ) :   0.9736 B(  4-C , 10-H ) :   0.9687 
B( 11-C , 13-C ) :   1.0695 B( 11-C , 14-H ) :   0.9539 B( 11-C , 15-H ) :   0.9556 
B( 12-C , 13-C ) :   1.0695 B( 12-C , 18-H ) :   0.9556 B( 12-C , 19-H ) :   0.9539 
B( 13-C , 16-H ) :   0.9512 B( 13-C , 17-H ) :   0.9504 

-------
TIMINGS
-------

Total SCF time: 0 days 0 hours 3 min 14 sec 

Total time                  ....     194.384 sec
Sum of individual times     ....     193.990 sec  ( 99.8%)

Fock matrix formation       ....     190.742 sec  ( 98.1%)
  Split-RI-J                ....       7.079 sec  (  3.7% of F)
  Chain of spheres X        ....     150.939 sec  ( 79.1% of F)
  XC integration            ....      20.961 sec  ( 11.0% of F)
    Basis function eval.    ....       7.456 sec  ( 35.6% of XC)
    Density eval.           ....       4.605 sec  ( 22.0% of XC)
    XC-Functional eval.     ....       3.158 sec  ( 15.1% of XC)
    XC-Potential eval.      ....       5.122 sec  ( 24.4% of XC)
Diagonalization             ....       0.063 sec  (  0.0%)
Density matrix formation    ....       0.008 sec  (  0.0%)
Population analysis         ....       0.007 sec  (  0.0%)
Initial guess               ....       0.565 sec  (  0.3%)
Orbital Transformation      ....       0.000 sec  (  0.0%)
Orbital Orthonormalization  ....       0.000 sec  (  0.0%)
DIIS solution               ....       0.021 sec  (  0.0%)
SOSCF solution              ....       0.019 sec  (  0.0%)
Grid generation             ....       2.564 sec  (  1.3%)

Maximum memory used throughout the entire SCF-calculation: 72.7 MB


-------------------------------------------------------------------------------
                          DFT DISPERSION CORRECTION                            
                                                                               
                                 DFTD4 V2.5                                    
-------------------------------------------------------------------------------
The WB97X functional is recognized
Active option DFTDOPT                   ...         5   

Starting D4
-------------------------   ----------------
Dispersion correction           -0.002589737
-------------------------   ----------------


-------------------------   --------------------
FINAL SINGLE POINT ENERGY      -344.992192656245
-------------------------   --------------------

------------------------------------------------------------------------------
                         ORCA SCF GRADIENT CALCULATION
------------------------------------------------------------------------------

 ... reading COSX grid (gridx3)
Gradient of the Kohn-Sham DFT energy:
Kohn-Sham wavefunction type      ... RKS
Hartree-Fock exchange scaling    ...    0.158
Number of operators              ...    1
Number of atoms                  ...   20
Basis set dimensions             ...  172
Integral neglect threshold       ... 2.5e-11
Integral primitive cutoff        ... 2.5e-12
SHARK Integral package           ... ON

Nuc. rep. gradient       (SHARK) ... done (  0.0 sec)
HCore & Overlap gradient (SHARK) ... done (  0.3 sec)
RI-J gradient            (SHARK) ... done (  1.6 sec)
COSX-gradient                    ... done ( 30.3 sec)
Exchange-correlation gradient    ... done
Dispersion correction            ... Starting D4


------------------- 
Dispersion Gradient 
------------------- 
   1  :   -0.000018606   -0.000004102   -0.000000667
   2  :   -0.000000000   -0.000013286    0.000000830
   3  :    0.000018605   -0.000004102   -0.000000664
   4  :   -0.000051387   -0.000023840    0.000000489
   5  :    0.000051386   -0.000023842    0.000000486
   6  :   -0.000008664   -0.000005977   -0.000000537
   7  :   -0.000010195   -0.000004480    0.000000019
   8  :   -0.000008913   -0.000005584    0.000000649
   9  :    0.000008663   -0.000005978   -0.000000537
  10  :    0.000008914   -0.000005584    0.000000649
  11  :    0.000010195   -0.000004480    0.000000017
  12  :   -0.000024829    0.000024770   -0.000006157
  13  :    0.000024830    0.000024773   -0.000006151
  14  :    0.000000001    0.000036436    0.000008643
  15  :   -0.000003257    0.000000484    0.000000123
  16  :   -0.000002692    0.000000649    0.000002716
  17  :   -0.000000001    0.000003959   -0.000003211
  18  :   -0.000000000    0.000009052    0.000000464
  19  :    0.000002692    0.000000649    0.000002716
  20  :    0.000003257    0.000000484    0.000000122

  |G| =    0.000109242

done

------------------
CARTESIAN GRADIENT
------------------

   1   N   :    0.005789034   -0.002255223   -0.000027762
   2   C   :    0.000001101    0.008973591   -0.000973916
   3   N   :   -0.005805351   -0.002258106   -0.000027825
   4   C   :    0.001119299   -0.002021107    0.000039177
   5   C   :   -0.001121931   -0.002020551    0.000035656
   6   H   :    0.004303409   -0.001502443   -0.003983534
   7   H   :   -0.000174207    0.006438430   -0.000506713
   8   H   :    0.004002982   -0.000460519    0.004696159
   9   H   :   -0.004302905   -0.001512669   -0.003983102
  10   H   :   -0.003990348   -0.000458956    0.004697072
  11   H   :    0.000176818    0.006447178   -0.000505558
  12   C   :   -0.009728557   -0.002995633   -0.003851606
  13   C   :    0.009718112   -0.003001541   -0.003819991
  14   C   :    0.000000442    0.007692624    0.008645658
  15   H   :    0.004030965   -0.000882454   -0.001058733
  16   H   :    0.001822476   -0.001353711    0.003670802
  17   H   :    0.000023789   -0.001029985   -0.006705765
  18   H   :    0.000003665   -0.005800491    0.001101298
  19   H   :   -0.001835598   -0.001339964    0.003677971
  20   H   :   -0.004033501   -0.000878714   -0.001054129

Difference to translation invariance:
           :   -0.0000003061   -0.0002202420    0.0000651584

Difference to rotation invariance:
           :   -0.0004714891   -0.0000047599   -0.0000008549

Norm of the cartesian gradient     ...    0.0304611226
RMS gradient                       ...    0.0039325140
MAX gradient                       ...    0.0097285575

-------
TIMINGS
-------

Total SCF gradient time            ...       40.645 sec

One electron gradient       ....       0.286 sec  (  0.7%)
RI-J Coulomb gradient       ....       1.570 sec  (  3.9%)
COSX gradient               ....      30.290 sec  ( 74.5%)
XC gradient                 ....       6.738 sec  ( 16.6%)
CPCM gradient               ....       0.639 sec  (  1.6%)
   A-Matrix (El+Nuc)        ....       0.059 sec  (  0.1%)
   Potential                ....       0.580 sec  (  1.4%)

Maximum memory used throughout the entire SCFGRAD-calculation: 58.7 MB
------------------------------------------------------------------------------
                         ORCA GEOMETRY RELAXATION STEP
------------------------------------------------------------------------------

Reading the OPT-File                    .... done
Getting information on internals        .... done
Copying old internal coords+grads       .... done
Making the new internal coordinates     .... (new redundants).... done
Validating the new internal coordinates .... (new redundants).... done
Calculating the B-matrix                .... done
Calculating the G,G- and P matrices     .... done
Transforming gradient to internals      .... done
Projecting the internal gradient        .... done
Number of atoms                         ....  20
Number of internal coordinates          .... 103
Current Energy                          ....  -344.992192656 Eh
Current gradient norm                   ....     0.030461123 Eh/bohr
Maximum allowed component of the step   ....  0.300
Current trust radius                    ....  0.300
Evaluating the initial hessian          ....  (Almloef) done
Projecting the Hessian                  .... done
Forming the augmented Hessian           .... done
Diagonalizing the augmented Hessian     .... done
Last element of RFO vector              ....  0.995060421
Lowest eigenvalues of augmented Hessian:
 -0.002534780  0.016571144  0.017472302  0.018646297  0.018648450
Length of the computed step             ....  0.099763929
The final length of the internal step   ....  0.099763929
Converting the step to cartesian space:
 Initial RMS(Int)=    0.0098300320
Transforming coordinates:
 Iter   0:  RMS(Cart)=    0.0267120259 RMS(Int)=    0.0098396549
 Iter   1:  RMS(Cart)=    0.0001849262 RMS(Int)=    0.0000948722
 Iter   2:  RMS(Cart)=    0.0000023238 RMS(Int)=    0.0000013000
 Iter   3:  RMS(Cart)=    0.0000000368 RMS(Int)=    0.0000000219
done
Storing new coordinates                 .... done

                                .--------------------.
          ----------------------|Geometry convergence|-------------------------
          Item                value                   Tolerance       Converged
          ---------------------------------------------------------------------
          RMS gradient        0.0032596526            0.0001000000      NO
          MAX gradient        0.0132044652            0.0003000000      NO
          RMS step            0.0098300320            0.0020000000      NO
          MAX step            0.0210704695            0.0040000000      NO
          ........................................................
          Max(Bonds)      0.0105      Max(Angles)    0.70
          Max(Dihed)        1.21      Max(Improp)    0.00
          ---------------------------------------------------------------------

The optimization has not yet converged - more geometry cycles are needed


    ---------------------------------------------------------------------------
                         Redundant Internal Coordinates
                            (Angstroem and degrees)

        Definition                    Value    dE/dq     Step     New-Value
    ----------------------------------------------------------------------------
     1. B(C   1,N   0)                1.3327 -0.013202  0.0105    1.3432   
     2. B(N   2,C   1)                1.3327 -0.013204  0.0105    1.3432   
     3. B(C   3,N   0)                1.4391 -0.009267  0.0104    1.4495   
     4. B(C   4,N   2)                1.4391 -0.009256  0.0104    1.4495   
     5. B(H   5,C   3)                1.0952 -0.005950  0.0088    1.1041   
     6. B(H   6,C   3)                1.0873 -0.006374  0.0092    1.0965   
     7. B(H   7,C   3)                1.0952 -0.006085  0.0091    1.1043   
     8. B(H   8,C   4)                1.0952 -0.005954  0.0089    1.1041   
     9. B(H   9,C   4)                1.0952 -0.006079  0.0090    1.1043   
    10. B(H  10,C   4)                1.0873 -0.006383  0.0092    1.0965   
    11. B(C  11,N   0)                1.4550 -0.004562  0.0055    1.4605   
    12. B(C  12,N   2)                1.4550 -0.004564  0.0055    1.4605   
    13. B(C  13,C  12)                1.5239  0.002015 -0.0035    1.5204   
    14. B(C  13,C  11)                1.5240  0.002056 -0.0035    1.5204   
    15. B(H  14,C  11)                1.0954 -0.004095  0.0061    1.1014   
    16. B(H  15,C  11)                1.0998 -0.004009  0.0061    1.1059   
    17. B(H  16,C  13)                1.0927 -0.006547  0.0096    1.1023   
    18. B(H  17,C  13)                1.0908 -0.005894  0.0086    1.0994   
    19. B(H  18,C  12)                1.0998 -0.004015  0.0061    1.1059   
    20. B(H  19,C  12)                1.0954 -0.004093  0.0061    1.1014   
    21. A(C   1,N   0,C  11)          125.91  0.003307   -0.41    125.50   
    22. A(C   3,N   0,C  11)          115.43  0.001964   -0.31    115.12   
    23. A(C   1,N   0,C   3)          118.62 -0.005266    0.70    119.32   
    24. A(N   0,C   1,N   2)          116.45  0.001345   -0.00    116.45   
    25. A(C   4,N   2,C  12)          115.43  0.001964   -0.31    115.12   
    26. A(C   1,N   2,C  12)          125.91  0.003305   -0.41    125.50   
    27. A(C   1,N   2,C   4)          118.62 -0.005263    0.70    119.32   
    28. A(N   0,C   3,H   7)          110.79 -0.000902    0.14    110.93   
    29. A(N   0,C   3,H   6)          108.41 -0.001261    0.25    108.67   
    30. A(H   5,C   3,H   7)          108.27  0.001354   -0.31    107.97   
    31. A(H   5,C   3,H   6)          109.22  0.000864   -0.10    109.12   
    32. A(H   6,C   3,H   7)          109.17  0.001056   -0.19    108.99   
    33. A(N   0,C   3,H   5)          110.94 -0.001050    0.19    111.13   
    34. A(H   9,C   4,H  10)          109.17  0.001055   -0.19    108.99   
    35. A(H   8,C   4,H  10)          109.22  0.000856   -0.10    109.12   
[...]
     31       0.245872  -0.238320  -0.000855  -0.061811   0.000219  -0.013368
     32      -0.025144   0.024309  -0.000186   0.006595  -0.000131  -0.005672
     33      -0.000280  -0.006911   0.024515   0.023967  -0.007693  -0.019782
     34       0.000027   0.003843  -0.016112  -0.015894   0.004180   0.006756
     35      -0.000290  -0.010571   0.042902   0.041473   0.008837   0.019898
     36      -0.000286   0.006916   0.024551  -0.023931   0.007695  -0.019853
     37      -0.000030   0.003845   0.016135  -0.015869   0.004180  -0.006780
     38       0.000298  -0.010577  -0.042963   0.041407   0.008840  -0.019964
     39      -0.000137  -0.000000  -0.002452  -0.000002   0.000002   0.000564
     40      -0.000000   0.000028  -0.000003   0.003677  -0.037163  -0.000010
     41      -0.000001   0.001494   0.000003  -0.004982  -0.060707  -0.000010
     42       0.003366   0.061554  -0.212273  -0.203358   0.108322   0.245735
     43      -0.000038  -0.022810   0.086222   0.081782  -0.047680  -0.099410
     44      -0.002238  -0.038265   0.133529   0.126113  -0.063505  -0.139684
     45       0.000970   0.017479  -0.066623  -0.065218  -0.006231  -0.013449
     46       0.000690  -0.028189   0.121373   0.117895   0.008025   0.021409
     47       0.005823   0.162611  -0.637795  -0.615385  -0.036114  -0.097963
     48      -0.000120   0.000000  -0.001425  -0.000002  -0.000024  -0.000954
     49      -0.000000   0.000324   0.000001  -0.001354  -0.046966  -0.000006
     50       0.000010  -0.016867  -0.000028   0.042381   0.846436   0.000145
     51       0.000966   0.000001   0.005746   0.000004   0.000004  -0.000761
     52       0.000001   0.004159   0.000031  -0.043138   0.467398   0.000121
     53      -0.000001  -0.000439  -0.000009   0.012279  -0.135963  -0.000032
     54       0.000985  -0.017497  -0.066753   0.065148   0.006234  -0.013497
     55      -0.000670  -0.028210  -0.121547   0.117709   0.008027  -0.021475
     56      -0.005954   0.162709   0.638709  -0.614416  -0.036125   0.098257
     57       0.003426  -0.061585  -0.212553   0.203014  -0.108346   0.246594
     58       0.000060  -0.022826  -0.086337   0.081644  -0.047690   0.099761
     59       0.002275  -0.038288  -0.133717   0.125911  -0.063526   0.140187
                 54         55         56         57         58         59    
      0      -0.000045  -0.000139  -0.000010  -0.000194  -0.000707  -0.000574
      1       0.000006  -0.000094  -0.000126  -0.000412   0.000159   0.000450
      2      -0.000447  -0.000019  -0.000117   0.000122  -0.000085  -0.000116
      3       0.000001   0.000637   0.000001   0.000000  -0.000024  -0.000827
      4      -0.000169   0.000001  -0.000509  -0.000121   0.000010  -0.000000
      5       0.000785  -0.000001   0.000473  -0.000159  -0.000032   0.000001
      6       0.000043  -0.000139   0.000009   0.000194   0.000673  -0.000613
      7       0.000006   0.000095  -0.000125  -0.000412   0.000133  -0.000458
      8      -0.000445   0.000019  -0.000117   0.000122  -0.000078   0.000121
      9      -0.003304   0.001541   0.000513  -0.000231  -0.023746  -0.022389
     10       0.005199  -0.002884  -0.002018   0.000048   0.062691   0.059241
     11       0.063599  -0.029849  -0.019764   0.000522  -0.006050  -0.005723
     12       0.003325   0.001559  -0.000517   0.000232   0.022436  -0.023702
     13       0.005190   0.002899  -0.002010   0.000048   0.059222  -0.062705
     14       0.063300   0.029922  -0.019639   0.000522  -0.005735   0.006080
     15       0.277130  -0.127274  -0.080094   0.003206   0.098067   0.092359
     16      -0.157512   0.075255   0.048565  -0.001804  -0.053569  -0.050389
     17      -0.367272   0.170527   0.108205  -0.004210  -0.140270  -0.132114
     18      -0.002327   0.001199   0.000672  -0.000033   0.118085   0.111636
     19       0.014490  -0.002421   0.001539   0.000334  -0.667054  -0.630375
     20       0.006224  -0.004236  -0.003405   0.000073   0.066943   0.063270
     21      -0.235995   0.109949   0.074910  -0.000627   0.080628   0.076050
     22       0.080439  -0.038045  -0.025935   0.000565  -0.023139  -0.021795
     23      -0.394094   0.185473   0.126811  -0.001703   0.145822   0.137487
     24      -0.276076  -0.127677   0.079631  -0.003206  -0.092769   0.097896
     25      -0.157000  -0.075537   0.048313  -0.001804  -0.050714   0.053451
     26      -0.365526  -0.170907   0.107480  -0.004206  -0.132557   0.139891
     27       0.234672   0.110133  -0.074387   0.000624  -0.076071   0.080396
     28       0.079845   0.038042  -0.025709   0.000563  -0.021774   0.022980
     29      -0.392237  -0.185955   0.126042  -0.001700   0.137717  -0.145490
     30       0.002362   0.001224  -0.000682   0.000033  -0.111552   0.118166
     31       0.014668   0.002532   0.001469   0.000335  -0.630128   0.667223
     32       0.006164   0.004237  -0.003381   0.000073   0.063568  -0.067318
     33      -0.013203  -0.038223  -0.041131   0.001176  -0.000012  -0.000086
     34       0.004422   0.012590   0.012938   0.000128  -0.000322  -0.000265
     35       0.012203   0.042048   0.043568  -0.006720   0.000532   0.000488
     36       0.013096  -0.038403   0.040959  -0.001174   0.000007  -0.000086
     37       0.004386  -0.012647   0.012882   0.000129  -0.000307   0.000283
     38       0.012094  -0.042242   0.043382  -0.006718   0.000503  -0.000517
     39       0.000001   0.000768   0.000001   0.000002  -0.000002  -0.000074
     40       0.003698  -0.000030   0.013328   0.072021  -0.000100   0.000003
     41       0.003515  -0.000020   0.007938  -0.059782  -0.000180   0.000005
     42       0.159724   0.479278   0.503967  -0.027677   0.000568   0.001318
     43      -0.064744  -0.190658  -0.199126   0.010254  -0.001894  -0.001732
     44      -0.090552  -0.272796  -0.286542   0.016882  -0.000580  -0.000789
     45      -0.008008  -0.031248  -0.032851   0.009303  -0.000658  -0.000630
     46       0.012915   0.044863   0.045847  -0.010739   0.000274   0.000486
     47      -0.057047  -0.226363  -0.234563   0.059227  -0.004515  -0.004233
     48      -0.000001  -0.001804  -0.000001  -0.000014   0.000003   0.000108
     49       0.002070  -0.000012   0.004907  -0.018773  -0.000020   0.000001
     50      -0.051716   0.000311  -0.126465   0.496364   0.001607  -0.000045
     51      -0.000002  -0.000655  -0.000003  -0.000007   0.000015   0.000512
     52      -0.044743   0.000346  -0.156163  -0.827939   0.001397  -0.000041
     53       0.011923  -0.000092   0.041175   0.221660  -0.000061   0.000002
     54       0.007937  -0.031404   0.032723  -0.009305   0.000621  -0.000666
     55       0.012795  -0.045064   0.045645  -0.010736   0.000246  -0.000501
     56      -0.056497   0.227389  -0.233544   0.059214  -0.004264   0.004479
     57      -0.158394   0.481498  -0.501826   0.027663  -0.000487   0.001344
     58      -0.064208   0.191539  -0.198277   0.010248  -0.001791   0.001835
     59      -0.089806   0.274088  -0.285353   0.016876  -0.000531   0.000818


-----------
IR SPECTRUM
-----------

 Mode   freq       eps      Int      T**2         TX        TY        TZ
       cm**-1   L/(mol*cm) km/mol    a.u.
----------------------------------------------------------------------------
  6:     97.19   0.000007    0.04  0.000022  ( 0.004741 -0.000028 -0.000117)
  7:    113.54   0.001232    6.23  0.003386  ( 0.000160  0.010050  0.057317)
  8:    136.46   0.000128    0.65  0.000293  (-0.017102  0.000082  0.000484)
  9:    204.12   0.001941    9.81  0.002967  (-0.000030 -0.005470 -0.054199)
 10:    279.81   0.002155   10.89  0.002403  (-0.000010  0.000238 -0.049022)
 11:    293.76   0.000008    0.04  0.000008  (-0.002869  0.000007  0.000055)
 12:    329.85   0.000818    4.13  0.000774  ( 0.000001  0.019949  0.019394)
 13:    438.15   0.000286    1.45  0.000204  ( 0.014278  0.000003  0.000007)
 14:    459.33   0.000121    0.61  0.000083  ( 0.000003 -0.008159 -0.003995)
 15:    485.22   0.005701   28.81  0.003667  (-0.060555  0.000003  0.000004)
 16:    527.18   0.000784    3.96  0.000464  (-0.000012 -0.021507 -0.001260)
 17:    622.16   0.000059    0.30  0.000030  (-0.000001  0.004122  0.003545)
 18:    810.97   0.000778    3.93  0.000299  ( 0.000000 -0.017254 -0.001282)
 19:    886.04   0.001740    8.79  0.000613  (-0.024753 -0.000000  0.000003)
 20:    912.54   0.001344    6.79  0.000460  (-0.021438  0.000000  0.000002)
 21:    950.80   0.000190    0.96  0.000062  (-0.000001  0.000940 -0.007847)
 22:   1040.97   0.005291   26.74  0.001586  (-0.000000 -0.037523  0.013353)
 23:   1075.84   0.000157    0.79  0.000045  (-0.006738  0.000000  0.000003)
 24:   1086.99   0.000330    1.67  0.000095  ( 0.000009  0.009700  0.000857)
 25:   1114.00   0.001623    8.20  0.000455  ( 0.000072 -0.010960 -0.018293)
 26:   1120.74   0.005632   28.46  0.001568  ( 0.039602  0.000017  0.000036)
 27:   1143.55   0.000010    0.05  0.000003  (-0.001621 -0.000003 -0.000025)
 28:   1159.07   0.001369    6.92  0.000369  (-0.000035 -0.006469 -0.018077)
 29:   1210.30   0.000481    2.43  0.000124  (-0.011137 -0.000002  0.000003)
 30:   1240.52   0.017788   89.89  0.004475  (-0.066894  0.000000  0.000003)
 31:   1275.82   0.004806   24.29  0.001176  (-0.000013 -0.031482 -0.013580)
 32:   1278.86   0.003331   16.84  0.000813  (-0.028511  0.000015  0.000008)
 33:   1333.95   0.001126    5.69  0.000263  ( 0.000004  0.013750 -0.008619)
 34:   1352.70   0.017683   89.37  0.004080  (-0.063871  0.000002 -0.000001)
 35:   1395.97   0.012657   63.96  0.002829  (-0.053191  0.000004  0.000003)
 36:   1412.57   0.005341   26.99  0.001180  ( 0.000008  0.034198 -0.003240)
 37:   1419.02   0.007187   36.32  0.001581  ( 0.039756  0.000005 -0.000014)
 38:   1429.19   0.002478   12.52  0.000541  (-0.000019  0.022449 -0.006096)
 39:   1444.93   0.002072   10.47  0.000448  (-0.000034 -0.001094 -0.021126)
 40:   1450.43   0.001675    8.47  0.000360  (-0.018984  0.000052 -0.000190)
 41:   1452.26   0.003454   17.46  0.000742  ( 0.000107  0.004537 -0.026865)
 42:   1460.36   0.006783   34.28  0.001449  ( 0.023714 -0.028666 -0.008088)
 43:   1460.37   0.007184   36.30  0.001535  ( 0.032694  0.020784  0.005847)
 44:   1466.44   0.001932    9.77  0.000411  (-0.020279 -0.000030  0.000003)
 45:   1475.54   0.000090    0.45  0.000019  (-0.000012 -0.002118  0.003810)
 46:   1509.50   0.003721   18.81  0.000769  (-0.000016 -0.025964  0.009757)
 47:   1598.96   0.096794  489.16  0.018891  (-0.137444  0.000003  0.000003)
 48:   3038.13   0.038936  196.77  0.003999  ( 0.063240 -0.000012 -0.000018)
 49:   3040.27   0.002748   13.89  0.000282  ( 0.000052  0.015269 -0.006994)
 50:   3043.77   0.010499   53.06  0.001076  ( 0.032808  0.000015 -0.000029)
 51:   3048.29   0.017201   86.93  0.001761  ( 0.000031 -0.020550  0.036588)
 52:   3087.27   0.003763   19.02  0.000380  ( 0.000002 -0.011556 -0.015711)
 53:   3117.03   0.002104   10.63  0.000211  (-0.014514 -0.000028 -0.000127)
 54:   3117.57   0.025757  130.17  0.002578  (-0.000026  0.008970  0.049978)
 55:   3122.84   0.004317   21.82  0.000431  (-0.020770 -0.000026 -0.000038)
 56:   3125.04   0.003520   17.79  0.000352  (-0.000049  0.012063  0.014352)
 57:   3161.17   0.005270   26.63  0.000520  ( 0.000001  0.015800 -0.016449)
 58:   3202.24   0.004261   21.54  0.000415  (-0.000219  0.020315 -0.001596)
 59:   3202.29   0.000615    3.11  0.000060  (-0.007722 -0.000576  0.000050)

* The epsilon (eps) is given for a Dirac delta lineshape.
** The dipole moment derivative (T) already includes vibrational overlap.

The first frequency considered to be a vibration is 6
The total number of vibrations considered is 54


--------------------------
THERMOCHEMISTRY AT 298.15K
--------------------------

Temperature         ... 298.15 K
Pressure            ... 1.00 atm
Total Mass          ... 112.18 AMU

Throughout the following assumptions are being made:
  (1) The electronic state is orbitally nondegenerate
  (2) There are no thermally accessible electronically excited states
  (3) Hindered rotations indicated by low frequency modes are not
      treated as such but are treated as vibrations and this may
      cause some error
  (4) All equations used are the standard statistical mechanics
      equations for an ideal gas
  (5) All vibrations are strictly harmonic

freq.      97.19  E(vib)   ...       0.46 
freq.     113.54  E(vib)   ...       0.44 
freq.     136.46  E(vib)   ...       0.42 
freq.     204.12  E(vib)   ...       0.35 
freq.     279.81  E(vib)   ...       0.28 
freq.     293.76  E(vib)   ...       0.27 
freq.     329.85  E(vib)   ...       0.24 
freq.     438.15  E(vib)   ...       0.17 
freq.     459.33  E(vib)   ...       0.16 
freq.     485.22  E(vib)   ...       0.15 
freq.     527.18  E(vib)   ...       0.13 
freq.     622.16  E(vib)   ...       0.09 
freq.     810.97  E(vib)   ...       0.05 
freq.     886.04  E(vib)   ...       0.04 
freq.     912.54  E(vib)   ...       0.03 
freq.     950.80  E(vib)   ...       0.03 
freq.    1040.97  E(vib)   ...       0.02 
freq.    1075.84  E(vib)   ...       0.02 
freq.    1086.99  E(vib)   ...       0.02 
freq.    1114.00  E(vib)   ...       0.01 
freq.    1120.74  E(vib)   ...       0.01 
freq.    1143.55  E(vib)   ...       0.01 
freq.    1159.07  E(vib)   ...       0.01 
freq.    1210.30  E(vib)   ...       0.01 
freq.    1240.52  E(vib)   ...       0.01 
freq.    1275.82  E(vib)   ...       0.01 
freq.    1278.86  E(vib)   ...       0.01 
freq.    1333.95  E(vib)   ...       0.01 
freq.    1352.70  E(vib)   ...       0.01 
freq.    1395.97  E(vib)   ...       0.00 
freq.    1412.57  E(vib)   ...       0.00 
freq.    1419.02  E(vib)   ...       0.00 
freq.    1429.19  E(vib)   ...       0.00 
freq.    1444.93  E(vib)   ...       0.00 
freq.    1450.43  E(vib)   ...       0.00 
freq.    1452.26  E(vib)   ...       0.00 
freq.    1460.36  E(vib)   ...       0.00 
freq.    1460.37  E(vib)   ...       0.00 
freq.    1466.44  E(vib)   ...       0.00 
freq.    1475.54  E(vib)   ...       0.00 
freq.    1509.50  E(vib)   ...       0.00 
freq.    1598.96  E(vib)   ...       0.00 
freq.    3038.13  E(vib)   ...       0.00 
freq.    3040.27  E(vib)   ...       0.00 
freq.    3043.77  E(vib)   ...       0.00 
freq.    3048.29  E(vib)   ...       0.00 
freq.    3087.27  E(vib)   ...       0.00 
freq.    3117.03  E(vib)   ...       0.00 
freq.    3117.57  E(vib)   ...       0.00 
freq.    3122.84  E(vib)   ...       0.00 
freq.    3125.04  E(vib)   ...       0.00 
freq.    3161.17  E(vib)   ...       0.00 
freq.    3202.24  E(vib)   ...       0.00 
freq.    3202.29  E(vib)   ...       0.00 

------------
INNER ENERGY
------------

The inner energy is: U= E(el) + E(ZPE) + E(vib) + E(rot) + E(trans)
    E(el)   - is the total energy from the electronic structure calculation
              = E(kin-el) + E(nuc-el) + E(el-el) + E(nuc-nuc)
    E(ZPE)  - the the zero temperature vibrational energy from the frequency calculation
    E(vib)  - the the finite temperature correction to E(ZPE) due to population
              of excited vibrational states
    E(rot)  - is the rotational thermal energy
    E(trans)- is the translational thermal energy

Summary of contributions to the inner energy U:
Electronic energy                ...   -344.99369727 Eh
Zero point energy                ...      0.18057178 Eh     113.31 kcal/mol
Thermal vibrational correction   ...      0.00559844 Eh       3.51 kcal/mol
Thermal rotational correction    ...      0.00141627 Eh       0.89 kcal/mol
Thermal translational correction ...      0.00141627 Eh       0.89 kcal/mol
-----------------------------------------------------------------------
Total thermal energy                   -344.80469451 Eh


Summary of corrections to the electronic energy:
(perhaps to be used in another calculation)
Total thermal correction                  0.00843098 Eh       5.29 kcal/mol
Non-thermal (ZPE) correction              0.18057178 Eh     113.31 kcal/mol
-----------------------------------------------------------------------
Total correction                          0.18900276 Eh     118.60 kcal/mol


--------
ENTHALPY
--------

The enthalpy is H = U + kB*T
                kB is Boltzmann's constant
Total free energy                 ...   -344.80469451 Eh 
Thermal Enthalpy correction       ...      0.00094421 Eh       0.59 kcal/mol
-----------------------------------------------------------------------
Total Enthalpy                    ...   -344.80375031 Eh


Note: Only C1 symmetry has been detected, increase convergence thresholds 
      if your molecule has a higher symmetry. Symmetry factor of 1.0 is   
      used for the rotational entropy correction. 
 

Note: Rotational entropy computed according to Herzberg 
Infrared and Raman Spectra, Chapter V,1, Van Nostrand Reinhold, 1945 
Point Group:  C1, Symmetry Number:   1  
Rotational constants in cm-1:     0.111036     0.059437     0.040828 

Vibrational entropy computed according to the QRRHO of S. Grimme
Chem.Eur.J. 2012 18 9955


-------
ENTROPY
-------

The entropy contributions are T*S = T*(S(el)+S(vib)+S(rot)+S(trans))
     S(el)   - electronic entropy
     S(vib)  - vibrational entropy
     S(rot)  - rotational entropy
     S(trans)- translational entropy
The entropies will be listed as multiplied by the temperature to get
units of energy

Electronic entropy                ...      0.00000000 Eh      0.00 kcal/mol
Vibrational entropy               ...      0.00952575 Eh      5.98 kcal/mol
Rotational entropy                ...      0.01339098 Eh      8.40 kcal/mol
Translational entropy             ...      0.01903397 Eh     11.94 kcal/mol
-----------------------------------------------------------------------
Final entropy term                ...      0.04195070 Eh     26.32 kcal/mol

In case the symmetry of your molecule has not been determined correctly
or in case you have a reason to use a different symmetry number we print 
out the resulting rotational entropy values for sn=1,12 :
 --------------------------------------------------------
|  sn= 1 | S(rot)=       0.01339098 Eh      8.40 kcal/mol|
|  sn= 2 | S(rot)=       0.01273652 Eh      7.99 kcal/mol|
|  sn= 3 | S(rot)=       0.01235369 Eh      7.75 kcal/mol|
|  sn= 4 | S(rot)=       0.01208207 Eh      7.58 kcal/mol|
|  sn= 5 | S(rot)=       0.01187138 Eh      7.45 kcal/mol|
|  sn= 6 | S(rot)=       0.01169924 Eh      7.34 kcal/mol|
|  sn= 7 | S(rot)=       0.01155369 Eh      7.25 kcal/mol|
|  sn= 8 | S(rot)=       0.01142761 Eh      7.17 kcal/mol|
|  sn= 9 | S(rot)=       0.01131640 Eh      7.10 kcal/mol|
|  sn=10 | S(rot)=       0.01121692 Eh      7.04 kcal/mol|
|  sn=11 | S(rot)=       0.01112693 Eh      6.98 kcal/mol|
|  sn=12 | S(rot)=       0.01104478 Eh      6.93 kcal/mol|
 --------------------------------------------------------


-------------------
GIBBS FREE ENERGY
-------------------

The Gibbs free energy is G = H - T*S

Total enthalpy                    ...   -344.80375031 Eh 
Total entropy correction          ...     -0.04195070 Eh    -26.32 kcal/mol
-----------------------------------------------------------------------
Final Gibbs free energy         ...   -344.84570101 Eh

For completeness - the Gibbs free energy minus the electronic energy
G-E(el)                           ...      0.14799627 Eh     92.87 kcal/mol


Timings for individual modules:

Sum of individual times         ...     1744.526 sec (=  29.075 min)
GTO integral calculation        ...        1.448 sec (=   0.024 min)   0.1 %
SCF iterations                  ...      844.489 sec (=  14.075 min)  48.4 %
SCF Gradient evaluation         ...      203.007 sec (=   3.383 min)  11.6 %
Geometry relaxation             ...        0.267 sec (=   0.004 min)   0.0 %
Analytical frequency calculation...      695.315 sec (=  11.589 min)  39.9 %
                             ****ORCA TERMINATED NORMALLY****
TOTAL RUN TIME: 0 days 0 hours 29 minutes 5 seconds 293 msec
