
                                 *****************
                                 * O   R   C   A *
                                 *****************

                                            #,                                       
                                            ###                                      
                                            ####                                     
                                            #####                                    
                                            ######                                   
                                           ########,                                 
                                     ,,################,,,,,                         
                               ,,#################################,,                 
                          ,,##########################################,,             
                       ,#########################################, ''#####,          
                    ,#############################################,,   '####,        
                  ,##################################################,,,,####,       
                ,###########''''           ''''###############################       
              ,#####''   ,,,,##########,,,,          '''####'''          '####       
            ,##' ,,,,###########################,,,                        '##       
           ' ,,###''''                  '''############,,,                           
         ,,##''                                '''############,,,,        ,,,,,,###''
      ,#''                                            '''#######################'''  
     '                                                          ''''####''''         
             ,#######,   #######,   ,#######,      ##                                
            ,#'     '#,  ##    ##  ,#'     '#,    #''#        ######   ,####,        
            ##       ##  ##   ,#'  ##            #'  '#       #        #'  '#        
            ##       ##  #######   ##           ,######,      #####,   #    #        
            '#,     ,#'  ##    ##  '#,     ,#' ,#      #,         ##   #,  ,#        
             '#######'   ##     ##  '#######'  #'      '#     #####' # '####'        



                  #######################################################
                  #                        -***-                        #
                  #          Department of theory and spectroscopy      #
                  #    Directorship and core code : Frank Neese         #
                  #        Max Planck Institute fuer Kohlenforschung    #
                  #                Kaiser Wilhelm Platz 1               #
                  #                 D-45470 Muelheim/Ruhr               #
                  #                      Germany                        #
                  #                                                     #
                  #                  All rights reserved                #
                  #                        -***-                        #
                  #######################################################


                         Program Version 5.0.4 -  RELEASE  -


 With contributions from (in alphabetic order):
   Daniel Aravena         : Magnetic Suceptibility
   Michael Atanasov       : Ab Initio Ligand Field Theory (pilot matlab implementation)
   Alexander A. Auer      : GIAO ZORA, VPT2 properties, NMR spectrum
   Ute Becker             : Parallelization
   Giovanni Bistoni       : ED, misc. LED, open-shell LED, HFLD
   Martin Brehm           : Molecular dynamics
   Dmytro Bykov           : SCF Hessian
   Vijay G. Chilkuri      : MRCI spin determinant printing, contributions to CSF-ICE
   Dipayan Datta          : RHF DLPNO-CCSD density
   Achintya Kumar Dutta   : EOM-CC, STEOM-CC
   Dmitry Ganyushin       : Spin-Orbit,Spin-Spin,Magnetic field MRCI
   Miquel Garcia          : C-PCM and meta-GGA Hessian, CC/C-PCM, Gaussian charge scheme
   Yang Guo               : DLPNO-NEVPT2, F12-NEVPT2, CIM, IAO-localization
   Andreas Hansen         : Spin unrestricted coupled pair/coupled cluster methods
   Benjamin Helmich-Paris : MC-RPA, TRAH-SCF, COSX integrals
   Lee Huntington         : MR-EOM, pCC
   Robert Izsak           : Overlap fitted RIJCOSX, COSX-SCS-MP3, EOM
   Marcus Kettner         : VPT2
   Christian Kollmar      : KDIIS, OOCD, Brueckner-CCSD(T), CCSD density, CASPT2, CASPT2-K
   Simone Kossmann        : Meta GGA functionals, TD-DFT gradient, OOMP2, MP2 Hessian
   Martin Krupicka        : Initial AUTO-CI
   Lucas Lang             : DCDCAS
   Marvin Lechner         : AUTO-CI (C++ implementation), FIC-MRCC
   Dagmar Lenk            : GEPOL surface, SMD
   Dimitrios Liakos       : Extrapolation schemes; Compound Job, initial MDCI parallelization
   Dimitrios Manganas     : Further ROCIS development; embedding schemes
   Dimitrios Pantazis     : SARC Basis sets
   Anastasios Papadopoulos: AUTO-CI, single reference methods and gradients
   Taras Petrenko         : DFT Hessian,TD-DFT gradient, ASA, ECA, R-Raman, ABS, FL, XAS/XES, NRVS
   Peter Pinski           : DLPNO-MP2, DLPNO-MP2 Gradient
   Christoph Reimann      : Effective Core Potentials
   Marius Retegan         : Local ZFS, SOC
   Christoph Riplinger    : Optimizer, TS searches, QM/MM, DLPNO-CCSD(T), (RO)-DLPNO pert. Triples
   Tobias Risthaus        : Range-separated hybrids, TD-DFT gradient, RPA, STAB
   Michael Roemelt        : Original ROCIS implementation
   Masaaki Saitow         : Open-shell DLPNO-CCSD energy and density
   Barbara Sandhoefer     : DKH picture change effects
   Avijit Sen             : IP-ROCIS
   Kantharuban Sivalingam : CASSCF convergence, NEVPT2, FIC-MRCI
   Bernardo de Souza      : ESD, SOC TD-DFT
   Georgi Stoychev        : AutoAux, RI-MP2 NMR, DLPNO-MP2 response
   Willem Van den Heuvel  : Paramagnetic NMR
   Boris Wezisla          : Elementary symmetry handling
   Frank Wennmohs         : Technical directorship


 We gratefully acknowledge several colleagues who have allowed us to
 interface, adapt or use parts of their codes:
   Stefan Grimme, W. Hujo, H. Kruse, P. Pracht,  : VdW corrections, initial TS optimization,
                  C. Bannwarth, S. Ehlert          DFT functionals, gCP, sTDA/sTD-DF
   Ed Valeev, F. Pavosevic, A. Kumar             : LibInt (2-el integral package), F12 methods
   Garnet Chan, S. Sharma, J. Yang, R. Olivares  : DMRG
   Ulf Ekstrom                                   : XCFun DFT Library
   Mihaly Kallay                                 : mrcc  (arbitrary order and MRCC methods)
   Jiri Pittner, Ondrej Demel                    : Mk-CCSD
   Frank Weinhold                                : gennbo (NPA and NBO analysis)
   Christopher J. Cramer and Donald G. Truhlar   : smd solvation model
   Lars Goerigk                                  : TD-DFT with DH, B97 family of functionals
   V. Asgeirsson, H. Jonsson                     : NEB implementation
   FAccTs GmbH                                   : IRC, NEB, NEB-TS, DLPNO-Multilevel, CI-OPT
                                                   MM, QMMM, 2- and 3-layer-ONIOM, Crystal-QMMM,
                                                   LR-CPCM, SF, NACMEs, symmetry and pop. for TD-DFT,
                                                   nearIR, NL-DFT gradient (VV10), updates on ESD,
                                                   ML-optimized integration grids
   S Lehtola, MJT Oliveira, MAL Marques          : LibXC Library
   Liviu Ungur et al                             : ANISO software


 Your calculation uses the libint2 library for the computation of 2-el integrals
 For citations please refer to: http://libint.valeyev.net

 Your ORCA version has been built with support for libXC version: 5.1.0
 For citations please refer to: https://tddft.org/programs/libxc/

 This ORCA versions uses:
   CBLAS   interface :  Fast vector & matrix operations
   LAPACKE interface :  Fast linear algebra routines
   SCALAPACK package :  Parallel linear algebra routines
   Shared memory     :  Shared parallel matrices
   BLAS/LAPACK       :  OpenBLAS 0.3.15  USE64BITINT DYNAMIC_ARCH NO_AFFINITY SkylakeX SINGLE_THREADED
        Core in use  :  SkylakeX
   Copyright (c) 2011-2014, The OpenBLAS Project




***************************************
The coordinates will be read from file: 10_prot_aq_1.xyz
***************************************


Your calculation utilizes the atom-pairwise dispersion correction
based on tight binding partial charges (D4)
Cite in your paper:
E.Caldeweyher, C.Bannwarth, S.Grimme, J.Chem.Phys., (2017), 147, 034112.
E.Caldeweyher, S.Ehlert, A.Hansen, H.Neugebauer, S.Grimme, J.Chem.Phys., (2018), in progress.
   

XCFun DFT library Copyright 2009-2010 Ulf Ekstrom and contributors.
See http://admol.org/xcfun for more information.
This is free software; see the source code for copying conditions.
There is ABSOLUTELY NO WARRANTY; not even for MERCHANTABILITY or FITNESS FOR A PARTICULAR PURPOSE.
For details see the documentation.
Scientific users of this library should cite U. Ekstrom, L. Visscher, R. Bast, A. J. Thorvaldsen and K. Ruud;
J.Chem.Theor.Comp. 2010, DOI: 10.1021/ct100117s
XCFun Version 0.99 

================================================================================

----- Orbital basis set information -----
Your calculation utilizes the basis: def2-SVP
   F. Weigend and R. Ahlrichs, Phys. Chem. Chem. Phys. 7, 3297 (2005).

----- AuxJ basis set information -----
Your calculation utilizes the auxiliary basis: def2/J
   F. Weigend, Phys. Chem. Chem. Phys. 8, 1057 (2006).

================================================================================
                                        WARNINGS
                       Please study these warnings very carefully!
================================================================================


WARNING: Geometry Optimization
  ===> : Switching off AutoStart
         For restart on a previous wavefunction, please use MOREAD

INFO   : the flag for use of the SHARK integral package has been found!

================================================================================
                                       INPUT FILE
================================================================================
NAME = 10_prot_aq_1.inp
|  1> # ORCA 5.0.4 - /users/bwb16179/postgrad/2024_03/DFT_Crest_Conformers/Opt/prot/10_prot_aq_1.inp # write input file
|  2> # Basic Mode
|  3> #
|  4> ! Opt Freq wB97X Def2-SVP D4 SlowConv TightSCF Defgrid2 Def2/J RIJCOSX CPCM(Water)
|  5> 
|  6> 
|  7> 
|  8> %maxcore 4500
|  9> 
| 10> %geom
| 11> Maxiter 150
| 12> END
| 13> 
| 14> * xyzfile 1 1 10_prot_aq_1.xyz
| 15> 
| 16>                          ****END OF INPUT****
================================================================================

                       *****************************
                       * Geometry Optimization Run *
                       *****************************

Geometry optimization settings:
Update method            Update   .... BFGS
Choice of coordinates    CoordSys .... Z-matrix Internals
Initial Hessian          InHess   .... Almoef's Model

Convergence Tolerances:
Energy Change            TolE     ....  5.0000e-06 Eh
Max. Gradient            TolMAXG  ....  3.0000e-04 Eh/bohr
RMS Gradient             TolRMSG  ....  1.0000e-04 Eh/bohr
Max. Displacement        TolMAXD  ....  4.0000e-03 bohr
RMS Displacement         TolRMSD  ....  2.0000e-03 bohr
Strict Convergence                ....  False
------------------------------------------------------------------------------
                        ORCA OPTIMIZATION COORDINATE SETUP
------------------------------------------------------------------------------

The optimization will be done in new redundant internal coordinates
Making redundant internal coordinates   ...  (new redundants) done
Evaluating the initial hessian          ...  (Almloef) done
Evaluating the coordinates              ...  done
Calculating the B-matrix                .... done
Calculating the G-matrix                .... done
Diagonalizing the G-matrix              .... done
The first mode is                       ....   53
The number of degrees of freedom        ....   57

    -----------------------------------------------------------------
                    Redundant Internal Coordinates


    -----------------------------------------------------------------
         Definition                    Initial Value    Approx d2E/dq
    -----------------------------------------------------------------
      1. B(C   1,N   0)                  1.3096         0.752008   
      2. B(N   2,C   1)                  1.3095         0.752060   
      3. B(H   3,C   1)                  1.0834         0.368979   
      4. B(C   4,N   0)                  1.4427         0.461067   
      5. B(C   5,N   2)                  1.4427         0.461074   
      6. B(H   6,C   4)                  1.0871         0.363987   
      7. B(H   7,C   4)                  1.0914         0.358295   
      8. B(H   8,C   4)                  1.0908         0.359074   
      9. B(H   9,C   5)                  1.0871         0.363953   
     10. B(H  10,C   5)                  1.0908         0.358990   
     11. B(H  11,C   5)                  1.0914         0.358285   
     12. B(C  12,N   0)                  1.4532         0.443668   
     13. B(C  13,N   2)                  1.4532         0.443661   
     14. B(C  14,C  13)                  1.5235         0.382650   
     15. B(C  14,C  12)                  1.5235         0.382649   
     16. B(H  15,C  12)                  1.0950         0.353518   
     17. B(H  16,C  12)                  1.0915         0.358179   
     18. B(H  17,C  14)                  1.0880         0.362762   
     19. B(H  18,C  14)                  1.0913         0.358326   
     20. B(H  19,C  13)                  1.0915         0.358155   
     21. B(H  20,C  13)                  1.0951         0.353480   
     22. A(C   4,N   0,C  12)          117.0036         0.383251   
     23. A(C   1,N   0,C   4)          122.3235         0.420578   
     24. A(C   1,N   0,C  12)          120.6729         0.417704   
     25. A(N   2,C   1,H   3)          117.4667         0.363942   
     26. A(N   0,C   1,N   2)          125.0747         0.459408   
     27. A(N   0,C   1,H   3)          117.4567         0.363938   
     28. A(C   1,N   2,C  13)          120.6678         0.417708   
     29. A(C   1,N   2,C   5)          122.3231         0.420585   
     30. A(C   5,N   2,C  13)          117.0091         0.383251   
     31. A(H   7,C   4,H   8)          108.4101         0.290480   
     32. A(N   0,C   4,H   6)          110.7602         0.334362   
     33. A(N   0,C   4,H   8)          109.7169         0.333609   
     34. A(H   6,C   4,H   8)          108.8539         0.291200   
     35. A(N   0,C   4,H   7)          110.1978         0.333489   
     36. A(H   6,C   4,H   7)          108.8521         0.291100   
     37. A(N   2,C   5,H  11)          110.1994         0.333488   
     38. A(N   2,C   5,H  10)          109.7154         0.333597   
     39. A(N   2,C   5,H   9)          110.7571         0.334358   
     40. A(H  10,C   5,H  11)          108.4135         0.290468   
     41. A(H   9,C   5,H  11)          108.8503         0.291095   
     42. A(H   9,C   5,H  10)          108.8552         0.291185   
     43. A(H  15,C  12,H  16)          108.0174         0.289755   
     44. A(C  14,C  12,H  16)          110.5704         0.325314   
     45. A(N   0,C  12,H  16)          108.5454         0.331351   
     46. A(C  14,C  12,H  15)          110.8140         0.324615   
     47. A(N   0,C  12,H  15)          109.3043         0.330634   
     48. A(N   0,C  12,C  14)          109.5393         0.373434   
     49. A(N   2,C  13,C  14)          109.5360         0.373433   
     50. A(C  14,C  13,H  20)          110.8124         0.324609   
     51. A(N   2,C  13,H  20)          109.3055         0.330627   
     52. A(C  14,C  13,H  19)          110.5720         0.325311   
     53. A(N   2,C  13,H  19)          108.5477         0.331347   
     54. A(H  19,C  13,H  20)          108.0174         0.289747   
     55. A(C  13,C  14,H  17)          110.0709         0.325996   
     56. A(C  12,C  14,H  17)          110.0709         0.325995   
     57. A(C  12,C  14,C  13)          109.4137         0.366348   
     58. A(H  17,C  14,H  18)          108.2158         0.290950   
     59. A(C  13,C  14,H  18)          109.5237         0.325336   
     60. A(C  12,C  14,H  18)          109.5267         0.325336   
     61. D(N   2,C   1,N   0,C  12)      1.4203         0.047518   
     62. D(H   3,C   1,N   0,C  12)   -179.0974         0.047518   
     63. D(N   2,C   1,N   0,C   4)   -178.5513         0.047518   
     64. D(H   3,C   1,N   0,C   4)      0.9310         0.047518   
     65. D(C   5,N   2,C   1,N   0)    178.5766         0.047525   
     66. D(C   5,N   2,C   1,H   3)     -0.9057         0.047525   
     67. D(C  13,N   2,C   1,N   0)     -1.3988         0.047525   
     68. D(C  13,N   2,C   1,H   3)    179.1189         0.047525   
     69. D(H   8,C   4,N   0,C  12)    -55.0837         0.018148   
     70. D(H   6,C   4,N   0,C  12)   -175.2805         0.018148   
     71. D(H   7,C   4,N   0,C  12)     64.2116         0.018148   
     72. D(H   8,C   4,N   0,C   1)    124.8888         0.018148   
     73. D(H   6,C   4,N   0,C   1)      4.6921         0.018148   
     74. D(H   7,C   4,N   0,C   1)   -115.8159         0.018148   
     75. D(H   9,C   5,N   2,C   1)     -4.6981         0.018149   
     76. D(H  11,C   5,N   2,C  13)    -64.2170         0.018149   
     77. D(H  11,C   5,N   2,C   1)    115.8067         0.018149   
     78. D(H  10,C   5,N   2,C  13)     55.0826         0.018149   
     79. D(H  10,C   5,N   2,C   1)   -124.8936         0.018149   
     80. D(H   9,C   5,N   2,C  13)    175.2781         0.018149   
     81. D(H  16,C  12,N   0,C   4)    -32.4242         0.016787   
     82. D(H  16,C  12,N   0,C   1)    147.6028         0.016787   
     83. D(H  15,C  12,N   0,C   4)     85.1693         0.016787   
     84. D(C  14,C  12,N   0,C   4)   -153.2418         0.016787   
     85. D(C  14,C  12,N   0,C   1)     26.7852         0.016787   
     86. D(H  15,C  12,N   0,C   1)    -94.8038         0.016787   
     87. D(H  19,C  13,N   2,C   5)     32.3805         0.016786   
     88. D(H  19,C  13,N   2,C   1)   -147.6428         0.016786   
     89. D(C  14,C  13,N   2,C   5)    153.1995         0.016786   
     90. D(H  20,C  13,N   2,C   1)     94.7618         0.016786   
     91. D(C  14,C  13,N   2,C   1)    -26.8238         0.016786   
     92. D(H  20,C  13,N   2,C   5)    -85.2148         0.016786   
     93. D(H  18,C  14,C  13,H  20)    172.0914         0.011661   
     94. D(H  18,C  14,C  13,H  19)     52.3493         0.011661   
     95. D(H  18,C  14,C  13,N   2)    -67.2340         0.011661   
     96. D(H  17,C  14,C  13,H  19)    -66.5104         0.011661   
     97. D(H  17,C  14,C  13,N   2)    173.9063         0.011661   
     98. D(C  12,C  14,C  13,H  20)    -67.8437         0.011661   
     99. D(C  12,C  14,C  13,H  19)    172.4142         0.011661   
    100. D(C  12,C  14,C  13,N   2)     52.8309         0.011661   
    101. D(H  18,C  14,C  12,H  16)    -52.3307         0.011661   
    102. D(H  18,C  14,C  12,H  15)   -172.0729         0.011661   
    103. D(H  18,C  14,C  12,N   0)     67.2508         0.011661   
    104. D(H  17,C  14,C  12,H  16)     66.5309         0.011661   
    105. D(H  17,C  14,C  12,H  15)    -53.2113         0.011661   
    106. D(H  17,C  14,C  13,H  20)     53.2317         0.011661   
    107. D(H  17,C  14,C  12,N   0)   -173.8876         0.011661   
    108. D(C  13,C  14,C  12,H  16)   -172.3937         0.011661   
    109. D(C  13,C  14,C  12,H  15)     67.8641         0.011661   
    110. D(C  13,C  14,C  12,N   0)    -52.8122         0.011661   
    -----------------------------------------------------------------

Number of atoms                         .... 21
Number of degrees of freedom            .... 110

         *************************************************************
         *                GEOMETRY OPTIMIZATION CYCLE   1            *
         *************************************************************
---------------------------------
CARTESIAN COORDINATES (ANGSTROEM)
---------------------------------
  N     -1.161965   -0.355774    0.034544
  C      0.000021   -0.953103   -0.054446
  N      1.161983   -0.355787    0.034654
  H     -0.000069   -2.025878   -0.205586
  C     -2.408513   -1.078059   -0.042025
  C      2.408534   -1.078015   -0.042331
  H     -2.230576   -2.149142   -0.095475
  H     -2.969291   -0.769197   -0.925890
  H     -3.012304   -0.864675    0.840980
  H      2.230554   -2.149103   -0.096073
  H      3.012466   -0.864869    0.840714
  H      2.969165   -0.768932   -0.926222
  C     -1.243528    1.083509    0.217778
  C      1.243399    1.083449    0.218358
  C      0.000089    1.742657   -0.365227
  H     -1.338526    1.307706    1.285384
  H     -2.141609    1.447091   -0.284752
  H      0.000062    2.806662   -0.138011
  H      0.000373    1.625523   -1.450267
  H      2.141793    1.447244   -0.283497
  H      1.337691    1.307367    1.286116

----------------------------
CARTESIAN COORDINATES (A.U.)
----------------------------
  NO LB      ZA    FRAG     MASS         X           Y           Z
   0 N     7.0000    0    14.007   -2.195795   -0.672316    0.065279
   1 C     6.0000    0    12.011    0.000039   -1.801103   -0.102887
   2 N     7.0000    0    14.007    2.195830   -0.672340    0.065486
   3 H     1.0000    0     1.008   -0.000130   -3.828354   -0.388501
   4 C     6.0000    0    12.011   -4.551431   -2.037236   -0.079416
   5 C     6.0000    0    12.011    4.551470   -2.037154   -0.079994
   6 H     1.0000    0     1.008   -4.215178   -4.061290   -0.180422
   7 H     1.0000    0     1.008   -5.611146   -1.453573   -1.749679
   8 H     1.0000    0     1.008   -5.692431   -1.634000    1.589222
   9 H     1.0000    0     1.008    4.215136   -4.061216   -0.181551
  10 H     1.0000    0     1.008    5.692735   -1.634365    1.588719
  11 H     1.0000    0     1.008    5.610908   -1.453072   -1.750305
  12 C     6.0000    0    12.011   -2.349927    2.047536    0.411540
  13 C     6.0000    0    12.011    2.349684    2.047422    0.412638
  14 C     6.0000    0    12.011    0.000168    3.293145   -0.690178
  15 H     1.0000    0     1.008   -2.529448    2.471207    2.429023
  16 H     1.0000    0     1.008   -4.047054    2.734607   -0.538103
  17 H     1.0000    0     1.008    0.000117    5.303822   -0.260802
  18 H     1.0000    0     1.008    0.000705    3.071794   -2.740608
  19 H     1.0000    0     1.008    4.047403    2.734895   -0.535731
  20 H     1.0000    0     1.008    2.527871    2.470566    2.430406

--------------------------------
INTERNAL COORDINATES (ANGSTROEM)
--------------------------------
 N      0   0   0     0.000000000000     0.00000000     0.00000000
 C      1   0   0     1.309553525140     0.00000000     0.00000000
 N      2   1   0     1.309534822302   125.07473136     0.00000000
 H      2   1   3     1.083369748777   117.45668636   179.48231627
 C      1   2   3     1.442720078704   122.32347183   181.44871395
 C      3   2   1     1.442716003568   122.32308069   178.57655774
 H      5   1   2     1.087077776884   110.76016581     4.69205474
 H      5   1   2     1.091367840146   110.19775780   244.18410938
 H      5   1   2     1.090776854188   109.71694556   124.88881330
 H      6   3   2     1.087103183696   110.75712654   355.30185965
 H      6   3   2     1.090840684390   109.71540122   235.10635037
 H      6   3   2     1.091375853627   110.19940753   115.80671779
 C      1   2   3     1.453191069550   120.67293149     1.42026723
 C      3   2   1     1.453195483782   120.66780546   358.60115040
 C     14   3   2     1.523465984363   109.53597958   333.17617127
 H     13   1   2     1.095021321587   109.30432034   265.19623340
 H     13   1   2     1.091456142583   108.54544932   147.60278930
 H     15  14   3     1.087994757889   110.07092961   173.90634962
 H     15  14   3     1.091344563396   109.52370509   292.76603336
 H     14   3   2     1.091474639256   108.54772879   212.35717988
 H     14   3   2     1.095050621983   109.30552146    94.76184714

---------------------------
INTERNAL COORDINATES (A.U.)
---------------------------
 N      0   0   0     0.000000000000     0.00000000     0.00000000
 C      1   0   0     2.474697520226     0.00000000     0.00000000
 N      2   1   0     2.474662176984   125.07473136     0.00000000
 H      2   1   3     2.047272126963   117.45668636   179.48231627
 C      1   2   3     2.726345836660   122.32347183   181.44871395
 C      3   2   1     2.726338135769   122.32308069   178.57655774
 H      5   1   2     2.054279284582   110.76016581     4.69205474
 H      5   1   2     2.062386329245   110.19775780   244.18410938
 H      5   1   2     2.061269527635   109.71694556   124.88881330
 H      6   3   2     2.054327296500   110.75712654   355.30185965
 H      6   3   2     2.061390149237   109.71540122   235.10635037
 H      6   3   2     2.062401472529   110.19940753   115.80671779
 C      1   2   3     2.746133141710   120.67293149     1.42026723
 C      3   2   1     2.746141483398   120.66780546   358.60115040
 C     14   3   2     2.878933484791   109.53597958   333.17617127
 H     13   1   2     2.069290408605   109.30432034   265.19623340
 H     13   1   2     2.062553196668   108.54544932   147.60278930
 H     15  14   3     2.056012127552   110.07092961   173.90634962
 H     15  14   3     2.062342342562   109.52370509   292.76603336
 H     14   3   2     2.062588150314   108.54772879   212.35717988
 H     14   3   2     2.069345778329   109.30552146    94.76184714

---------------------
BASIS SET INFORMATION
---------------------
There are 3 groups of distinct atoms

 Group   1 Type N   : 7s4p1d contracted to 3s2p1d pattern {511/31/1}
 Group   2 Type C   : 7s4p1d contracted to 3s2p1d pattern {511/31/1}
 Group   3 Type H   : 4s1p contracted to 2s1p pattern {31/1}

Atom   0N    basis set group =>   1
Atom   1C    basis set group =>   2
Atom   2N    basis set group =>   1
Atom   3H    basis set group =>   3
Atom   4C    basis set group =>   2
Atom   5C    basis set group =>   2
Atom   6H    basis set group =>   3
Atom   7H    basis set group =>   3
Atom   8H    basis set group =>   3
Atom   9H    basis set group =>   3
Atom  10H    basis set group =>   3
Atom  11H    basis set group =>   3
Atom  12C    basis set group =>   2
Atom  13C    basis set group =>   2
Atom  14C    basis set group =>   2
Atom  15H    basis set group =>   3
Atom  16H    basis set group =>   3
Atom  17H    basis set group =>   3
Atom  18H    basis set group =>   3
Atom  19H    basis set group =>   3
Atom  20H    basis set group =>   3
---------------------------------
AUXILIARY/J BASIS SET INFORMATION
---------------------------------
There are 3 groups of distinct atoms

 Group   1 Type N   : 12s5p4d2f1g contracted to 6s4p3d1f1g pattern {711111/2111/211/2/1}
 Group   2 Type C   : 12s5p4d2f1g contracted to 6s4p3d1f1g pattern {711111/2111/211/2/1}
 Group   3 Type H   : 5s2p1d contracted to 3s1p1d pattern {311/2/1}

Atom   0N    basis set group =>   1
Atom   1C    basis set group =>   2
Atom   2N    basis set group =>   1
Atom   3H    basis set group =>   3
Atom   4C    basis set group =>   2
Atom   5C    basis set group =>   2
Atom   6H    basis set group =>   3
Atom   7H    basis set group =>   3
Atom   8H    basis set group =>   3
Atom   9H    basis set group =>   3
Atom  10H    basis set group =>   3
Atom  11H    basis set group =>   3
Atom  12C    basis set group =>   2
Atom  13C    basis set group =>   2
Atom  14C    basis set group =>   2
Atom  15H    basis set group =>   3
Atom  16H    basis set group =>   3
Atom  17H    basis set group =>   3
Atom  18H    basis set group =>   3
Atom  19H    basis set group =>   3
Atom  20H    basis set group =>   3
------------------------------------------------------------------------------
                           ORCA GTO INTEGRAL CALCULATION
                           -- RI-GTO INTEGRALS CHOSEN --
------------------------------------------------------------------------------
------------------------------------------------------------------------------
                   ___                                                        
                  /   \      - P O W E R E D   B Y -                         
                 /     \                                                     
                 |  |  |   _    _      __       _____    __    __             
                 |  |  |  | |  | |    /  \     |  _  \  |  |  /  |          
                  \  \/   | |  | |   /    \    | | | |  |  | /  /          
                 / \  \   | |__| |  /  /\  \   | |_| |  |  |/  /          
                |  |  |   |  __  | /  /__\  \  |    /   |      \           
                |  |  |   | |  | | |   __   |  |    \   |  |\   \          
                \     /   | |  | | |  |  |  |  | |\  \  |  | \   \       
                 \___/    |_|  |_| |__|  |__|  |_| \__\ |__|  \__/        
                                                                              
                      - O R C A' S   B I G   F R I E N D -                    
                                      &                                       
                       - I N T E G R A L  F E E D E R -                       
                                                                              
 v1 FN, 2020, v2 2021                                                         
------------------------------------------------------------------------------


Reading SHARK input file 10_prot_aq_1.SHARKINP.tmp ... ok
----------------------
SHARK INTEGRAL PACKAGE
----------------------

Number of atoms                             ...     21
Number of basis functions                   ...    177
Number of shells                            ...     87
Maximum angular momentum                    ...      2
Integral batch strategy                     ... SHARK/LIBINT Hybrid
RI-J (if used) integral strategy            ... SPLIT-RIJ (Revised 2003 algorithm where possible)
Printlevel                                  ...      1
Contraction scheme used                     ... SEGMENTED contraction
Coulomb Range Separation                    ... NOT USED
Exchange Range Separation                   ... Long Range
   Mu parameter                             ...  0.300000
   Scaling (regular/separated)              ...  0.157706  0.842294
Finite Nucleus Model                        ... NOT USED
Auxiliary Coulomb fitting basis             ... AVAILABLE
   # of basis functions in Aux-J            ...    535
   # of shells in Aux-J                     ...    185
   Maximum angular momentum in Aux-J        ...      4
Auxiliary J/K fitting basis                 ... NOT available
Auxiliary Correlation fitting basis         ... NOT available
Auxiliary 'external' fitting basis          ... NOT available
Integral threshold                          ...     2.500000e-11
Primitive cut-off                           ...     2.500000e-12
Primitive pair pre-selection threshold      ...     2.500000e-12

Calculating pre-screening integrals         ... done (  0.0 sec) Dimension = 87
Organizing shell pair data                  ... done (  0.0 sec)
Shell pair information
Total number of shell pairs                 ...      3828
Shell pairs after pre-screening             ...      3626
Total number of primitive shell pairs       ...     13184
Primitive shell pairs kept                  ...      9303
          la=0 lb=0:   1223 shell pairs
          la=1 lb=0:   1364 shell pairs
          la=1 lb=1:    402 shell pairs
          la=2 lb=0:    382 shell pairs
          la=2 lb=1:    219 shell pairs
          la=2 lb=2:     36 shell pairs

Calculating one electron integrals          ... done (  0.0 sec)
Calculating RI/J V-Matrix + Cholesky decomp.... done (  0.0 sec)
Calculating Nuclear repulsion               ... done (  0.0 sec) ENN=    411.470660838747 Eh

SHARK setup successfully completed in   0.2 seconds

Maximum memory used throughout the entire GTOINT-calculation: 24.1 MB
-------------------------------------------------------------------------------
                                 ORCA SCF
-------------------------------------------------------------------------------

------------
SCF SETTINGS
------------
Hamiltonian:
 Density Functional     Method          .... DFT(GTOs)
 Exchange Functional    Exchange        .... WB97X
 Correlation Functional Correlation     .... WB97X
 Gradients option       PostSCFGGA      .... off
 Hybrid DFT is turned on
   Fraction HF Exchange ScalHFX         ....  0.157706
   Scaling of DF-GGA-X  ScalDFX         ....  0.000000
   Scaling of DF-GGA-C  ScalDFC         ....  1.000000
   Scaling of DF-LDA-C  ScalLDAC        ....  1.000000
   Perturbative correction              ....  0.000000
   Density functional embedding theory  .... OFF
 Long-range corrected/Screened/Range-Separated Hybrid DFT is turned on
   Amount of maximum screened exact exchange              ....  0.842294
   Range separation parameter mu (erf(mu*r12)/r12)        ....  0.300000
 RI-approximation to the Coulomb term is turned on
   Number of AuxJ basis functions       .... 535
   RIJ-COSX (HFX calculated with COS-X)).... on


General Settings:
 Integral files         IntName         .... 10_prot_aq_1
 Hartree-Fock type      HFTyp           .... RHF
 Total Charge           Charge          ....    1
 Multiplicity           Mult            ....    1
 Number of Electrons    NEL             ....   62
 Basis Dimension        Dim             ....  177
 Nuclear Repulsion      ENuc            ....    411.4706608387 Eh

Convergence Acceleration:
 DIIS                   CNVDIIS         .... on
   Start iteration      DIISMaxIt       ....     0
   Startup error        DIISStart       ....  0.200000
   # of expansion vecs  DIISMaxEq       ....     5
   Bias factor          DIISBfac        ....   1.050
   Max. coefficient     DIISMaxC        ....  10.000
 Trust-Rad. Augm. Hess. CNVTRAH         .... auto
   Auto Start mean grad. ratio tolernc. ....  1.125000
   Auto Start start iteration           ....    20
   Auto Start num. interpolation iter.  ....    10
   Max. Number of Micro iterations      ....    16
   Max. Number of Macro iterations      .... Maxiter - #DIIS iter
   Number of Davidson start vectors     ....     2
   Converg. threshold I  (grad. norm)   ....   1.000e-05
   Converg. threshold II (energy diff.) ....   1.000e-08
   Grad. Scal. Fac. for Micro threshold ....   0.100
   Minimum threshold for Micro iter.    ....   0.010
   NR start threshold (gradient norm)   ....   0.001
   Initial trust radius                 ....   0.400
   Minimum AH scaling param. (alpha)    ....   1.000
   Maximum AH scaling param. (alpha)    .... 1000.000
   Orbital update algorithm             .... Taylor
   White noise on init. David. guess    .... on
   Maximum white noise                  ....   0.010
   Quad. conv. algorithm                .... NR
 SOSCF                  CNVSOSCF        .... on
   Start iteration      SOSCFMaxIt      ....   150
   Startup grad/error   SOSCFStart      ....  0.001000
 Level Shifting         CNVShift        .... on
   Level shift para.    LevelShift      ....    0.2500
   Turn off err/grad.   ShiftErr        ....    0.0000
 Zerner damping         CNVZerner       .... off
 Static damping         CNVDamp         .... on
   Fraction old density DampFac         ....    0.8500
   Max. Damping (<1)    DampMax         ....    0.9800
   Min. Damping (>=0)   DampMin         ....    0.0000
   Turn off err/grad.   DampErr         ....    0.0300
 Fernandez-Rico         CNVRico         .... off

SCF Procedure:
 Maximum # iterations   MaxIter         ....   125
 SCF integral mode      SCFMode         .... Direct
   Integral package                     .... SHARK and LIBINT hybrid scheme
 Reset frequency        DirectResetFreq ....    20
 Integral Threshold     Thresh          ....  2.500e-11 Eh
 Primitive CutOff       TCut            ....  2.500e-12 Eh

Convergence Tolerance:
 Convergence Check Mode ConvCheckMode   .... Total+1el-Energy
 Convergence forced     ConvForced      .... 0
 Energy Change          TolE            ....  1.000e-08 Eh
 1-El. energy change                    ....  1.000e-05 Eh
 Orbital Gradient       TolG            ....  1.000e-05
 Orbital Rotation angle TolX            ....  1.000e-05
 DIIS Error             TolErr          ....  5.000e-07


Diagonalization of the overlap matrix:
Smallest eigenvalue                        ... 2.106e-03
Time for diagonalization                   ...    0.006 sec
Threshold for overlap eigenvalues          ... 1.000e-08
Number of eigenvalues below threshold      ... 0
Time for construction of square roots      ...    0.003 sec
Total time needed                          ...    0.009 sec

Time for model grid setup =    0.284 sec

------------------------------
INITIAL GUESS: MODEL POTENTIAL
------------------------------
Loading Hartree-Fock densities                     ... done
Calculating cut-offs                               ... done
Initializing the effective Hamiltonian             ... done
Setting up the integral package (SHARK)            ... done
Starting the Coulomb interaction                   ... done (   0.2 sec)
Reading the grid                                   ... done
Mapping shells                                     ... done
Starting the XC term evaluation                    ... done (   0.4 sec)
  promolecular density results
     # of electrons  =     62.995050050
     EX              =    -47.713953825
     EC              =     -2.095714469
     EX+EC           =    -49.809668294
Transforming the Hamiltonian                       ... done (   0.0 sec)
Diagonalizing the Hamiltonian                      ... done (   0.0 sec)
Back transforming the eigenvectors                 ... done (   0.0 sec)
Now organizing SCF variables                       ... done
                      ------------------
                      INITIAL GUESS DONE (   0.9 sec)
                      ------------------
-------------------
DFT GRID GENERATION
-------------------

General Integration Accuracy     IntAcc      ... 4.388
Radial Grid Type                 RadialGrid  ... OptM3 with GC (2021)
Angular Grid (max. ang.)         AngularGrid ... 4 (Lebedev-302)
Angular grid pruning method      GridPruning ... 4 (adaptive)
Weight generation scheme         WeightScheme... Becke
Basis function cutoff            BFCut       ... 1.0000e-11
Integration weight cutoff        WCut        ... 1.0000e-14
Angular grids for H and He will be reduced by one unit
Partially contracted basis set               ... off
Rotationally invariant grid construction     ... off

Total number of grid points                  ...    89482
Total number of batches                      ...     1409
Average number of points per batch           ...       63
Average number of grid points per atom       ...     4261
Time for grid setup =    1.088 sec

--------------------
COSX GRID GENERATION
--------------------

GRIDX 1
-------
General Integration Accuracy     IntAcc      ... 3.816
Radial Grid Type                 RadialGrid  ... OptM3 with GC (2021)
Angular Grid (max. ang.)         AngularGrid ... 1 (Lebedev-50)
Angular grid pruning method      GridPruning ... 4 (adaptive)
Weight generation scheme         WeightScheme... Becke
Basis function cutoff            BFCut       ... 1.0000e-11
Integration weight cutoff        WCut        ... 1.0000e-14
Angular grids for H and He will be reduced by one unit
Partially contracted basis set               ... on
Rotationally invariant grid construction     ... off

Total number of grid points                  ...    11497
Total number of batches                      ...      192
Average number of points per batch           ...       59
Average number of grid points per atom       ...      547
UseSFitting                                  ... on

GRIDX 2
-------
General Integration Accuracy     IntAcc      ... 4.020
Radial Grid Type                 RadialGrid  ... OptM3 with GC (2021)
Angular Grid (max. ang.)         AngularGrid ... 2 (Lebedev-110)
Angular grid pruning method      GridPruning ... 4 (adaptive)
Weight generation scheme         WeightScheme... Becke
Basis function cutoff            BFCut       ... 1.0000e-11
Integration weight cutoff        WCut        ... 1.0000e-14
Angular grids for H and He will be reduced by one unit
Partially contracted basis set               ... on
Rotationally invariant grid construction     ... off

Total number of grid points                  ...    24010
Total number of batches                      ...      387
Average number of points per batch           ...       62
Average number of grid points per atom       ...     1143
UseSFitting                                  ... on

GRIDX 3
-------
General Integration Accuracy     IntAcc      ... 4.338
Radial Grid Type                 RadialGrid  ... OptM3 with GC (2021)
Angular Grid (max. ang.)         AngularGrid ... 3 (Lebedev-194)
Angular grid pruning method      GridPruning ... 4 (adaptive)
Weight generation scheme         WeightScheme... Becke
Basis function cutoff            BFCut       ... 1.0000e-11
Integration weight cutoff        WCut        ... 1.0000e-14
Angular grids for H and He will be reduced by one unit
Partially contracted basis set               ... on
Rotationally invariant grid construction     ... off

Total number of grid points                  ...    52435
Total number of batches                      ...      832
Average number of points per batch           ...       63
Average number of grid points per atom       ...     2497
UseSFitting                                  ... on

Time for X-Grid setup             =    1.373 sec


--------------------
CPCM SOLVATION MODEL
--------------------
CPCM parameters:
  Epsilon                                         ...      80.4000
  Refrac                                          ...       1.3300
  Rsolv                                           ...       1.3000
  Surface type                                    ... GAUSSIAN VDW
  Epsilon function type                           ...         CPCM
Radii:
 Radius for N  used is    3.5149 Bohr (=   1.8600 Ang.)
 Radius for C  used is    3.8550 Bohr (=   2.0400 Ang.)
 Radius for H  used is    2.4944 Bohr (=   1.3200 Ang.)
Calculating surface                               ...        done! (  0.0s)
GEPOL surface points                              ...         1137
GEPOL Volume                                      ...    1042.4126
GEPOL Surface-area                                ...     596.9273
Calculating surface distance matrix               ...        done! (  0.0s)
Performing Cholesky decomposition & store         ...        done! (  0.0s)
Overall time for CPCM initialization              ...                 0.0s
--------------
SCF ITERATIONS
--------------
ITER       Energy         Delta-E        Max-DP      RMS-DP      [F,P]     Damp
               ***  Starting incremental Fock matrix formation  ***
  0   -345.3925043610   0.000000000000 0.02760344  0.00065040  0.1108986 0.8500
  1   -345.4150989303  -0.022594569342 0.02504358  0.00060109  0.0901549 0.8500
                               ***Turning on DIIS***
  2   -345.4323765920  -0.017277661665 0.01979127  0.00048733  0.0700717 0.8500
  3   -345.4453398981  -0.012963306140 0.01284606  0.00034770  0.0538664 0.8500
  4   -345.4554233732  -0.010083475080 0.00887618  0.00026750  0.0432015 0.8500
  5   -345.4634110486  -0.007987675393 0.00688493  0.00022063  0.0358709 0.8500
  6   -345.4699306079  -0.006519559298 0.00566871  0.00018671  0.0302678 0.8500
  7   -345.4753427936  -0.005412185722 0.03265688  0.00107370  0.0257024 0.0000
                      *** Initiating the SOSCF procedure ***
                           *** Shutting down DIIS ***
                      *** Re-Reading the Fockian *** 
                      *** Removing any level shift *** 
ITER      Energy       Delta-E        Grad      Rot      Max-DP    RMS-DP
  8   -345.50438735  -0.0290445550  0.000584  0.000584  0.000996  0.000035
               *** Restarting incremental Fock matrix formation ***
  9   -345.50443153  -0.0000441832  0.000246  0.000476  0.000458  0.000021
 10   -345.50443342  -0.0000018852  0.000158  0.000473  0.000496  0.000013
 11   -345.50443369  -0.0000002727  0.000040  0.000083  0.000116  0.000004
 12   -345.50443377  -0.0000000822  0.000005  0.000009  0.000017  0.000000
 13   -345.50443378  -0.0000000049  0.000003  0.000009  0.000008  0.000000
                 **** Energy Check signals convergence ****
              ***Rediagonalizing the Fockian in SOSCF/NRSCF***

               *****************************************************
               *                     SUCCESS                       *
               *           SCF CONVERGED AFTER  14 CYCLES          *
               *****************************************************

Old exchange energy                            =    -15.860497346 Eh
New exchange energy                            =    -15.860451304 Eh
Exchange energy change after final integration =      0.000046042 Eh
Total energy after final integration           =   -345.504387740 Eh
Final COS-X integration done in                =    30.060 sec

----------------
TOTAL SCF ENERGY
----------------

Total Energy       :         -345.50438774 Eh           -9401.65236 eV

Components:
Nuclear Repulsion  :          411.47066084 Eh           11196.68591 eV
Electronic Energy  :         -756.97504858 Eh          -20598.33827 eV
One Electron Energy:        -1268.34969124 Eh          -34513.54973 eV
Two Electron Energy:          511.37464266 Eh           13915.21146 eV
Max COSX asymmetry :            0.00000314 Eh               0.00009 eV
CPCM Dielectric    :           -0.08125023 Eh              -2.21093 eV

Virial components:
Potential Energy   :         -687.01955334 Eh          -18694.75247 eV
Kinetic Energy     :          341.51516560 Eh            9293.10011 eV
Virial Ratio       :            2.01168095


DFT components:
N(Alpha)           :       31.000053348313 electrons
N(Beta)            :       31.000053348313 electrons
N(Total)           :       62.000106696626 electrons
E(XC)              :      -35.082552556042 Eh       
DFET-embed. en.    :        0.000000000000 Eh       
CPCM Solvation Model Properties:
Surface-charge          :           -1.01596878
Charge-correction       :            0.00127707 Eh               0.03475 eV
Free-energy (cav+disp)  :  This term is not implemented in the current solvation scheme

---------------
SCF CONVERGENCE
---------------

  Last Energy change         ...   -5.3466e-09  Tolerance :   1.0000e-08
  Last MAX-Density change    ...    1.7764e-15  Tolerance :   1.0000e-07
  Last RMS-Density change    ...    3.5777e-17  Tolerance :   5.0000e-09
  Last Orbital Gradient      ...    2.9989e-07  Tolerance :   1.0000e-05
  Last Orbital Rotation      ...    4.3475e-07  Tolerance :   1.0000e-05

             **** THE GBW FILE WAS UPDATED (10_prot_aq_1.gbw) ****
             **** DENSITY 10_prot_aq_1.scfp WAS UPDATED ****
             **** ENERGY FILE WAS UPDATED (10_prot_aq_1.en.tmp) ****
             **** THE GBW FILE WAS UPDATED (10_prot_aq_1.gbw) ****
             **** DENSITY 10_prot_aq_1.scfp WAS UPDATED ****
----------------
ORBITAL ENERGIES
----------------

  NO   OCC          E(Eh)            E(eV) 
   0   2.0000     -14.482084      -394.0776 
   1   2.0000     -14.482081      -394.0775 
   2   2.0000     -10.396194      -282.8948 
   3   2.0000     -10.321072      -280.8507 
   4   2.0000     -10.321055      -280.8502 
   5   2.0000     -10.314560      -280.6734 
   6   2.0000     -10.314542      -280.6729 
   7   2.0000     -10.286220      -279.9023 
   8   2.0000      -1.169354       -31.8197 
   9   2.0000      -1.092544       -29.7296 
  10   2.0000      -0.947130       -25.7727 
  11   2.0000      -0.894164       -24.3314 
  12   2.0000      -0.857260       -23.3272 
  13   2.0000      -0.809068       -22.0159 
  14   2.0000      -0.792662       -21.5694 
  15   2.0000      -0.684457       -18.6250 
  16   2.0000      -0.663462       -18.0537 
  17   2.0000      -0.653664       -17.7871 
  18   2.0000      -0.626819       -17.0566 
  19   2.0000      -0.595591       -16.2068 
  20   2.0000      -0.582796       -15.8587 
  21   2.0000      -0.569257       -15.4903 
  22   2.0000      -0.563957       -15.3460 
  23   2.0000      -0.531202       -14.4547 
  24   2.0000      -0.525473       -14.2989 
  25   2.0000      -0.516940       -14.0666 
  26   2.0000      -0.494724       -13.4621 
  27   2.0000      -0.476897       -12.9770 
  28   2.0000      -0.464696       -12.6450 
  29   2.0000      -0.452855       -12.3228 
  30   2.0000      -0.357388        -9.7250 
  31   0.0000       0.063878         1.7382 
  32   0.0000       0.135598         3.6898 
  33   0.0000       0.163034         4.4364 
  34   0.0000       0.167531         4.5588 
  35   0.0000       0.185028         5.0349 
  36   0.0000       0.192223         5.2307 
  37   0.0000       0.206616         5.6223 
  38   0.0000       0.215833         5.8731 
  39   0.0000       0.224089         6.0978 
  40   0.0000       0.225409         6.1337 
  41   0.0000       0.234937         6.3929 
  42   0.0000       0.240789         6.5522 
  43   0.0000       0.245254         6.6737 
  44   0.0000       0.252338         6.8665 
  45   0.0000       0.255265         6.9461 
  46   0.0000       0.258281         7.0282 
  47   0.0000       0.312513         8.5039 
  48   0.0000       0.313096         8.5198 
  49   0.0000       0.326341         8.8802 
  50   0.0000       0.331884         9.0310 
  51   0.0000       0.373258        10.1569 
  52   0.0000       0.413509        11.2522 
  53   0.0000       0.466070        12.6824 
  54   0.0000       0.483676        13.1615 
  55   0.0000       0.511631        13.9222 
  56   0.0000       0.511931        13.9303 
  57   0.0000       0.538029        14.6405 
  58   0.0000       0.546530        14.8718 
  59   0.0000       0.563167        15.3246 
  60   0.0000       0.585910        15.9434 
  61   0.0000       0.619104        16.8467 
  62   0.0000       0.630878        17.1671 
  63   0.0000       0.652078        17.7439 
  64   0.0000       0.693018        18.8580 
  65   0.0000       0.694888        18.9089 
  66   0.0000       0.710428        19.3317 
  67   0.0000       0.711470        19.3601 
  68   0.0000       0.729017        19.8376 
  69   0.0000       0.733294        19.9539 
  70   0.0000       0.741941        20.1892 
  71   0.0000       0.743688        20.2368 
  72   0.0000       0.765329        20.8257 
  73   0.0000       0.770725        20.9725 
  74   0.0000       0.777850        21.1664 
  75   0.0000       0.781700        21.2711 
  76   0.0000       0.785476        21.3739 
  77   0.0000       0.791276        21.5317 
  78   0.0000       0.792152        21.5555 
  79   0.0000       0.792593        21.5676 
  80   0.0000       0.795154        21.6372 
  81   0.0000       0.803864        21.8742 
  82   0.0000       0.807177        21.9644 
  83   0.0000       0.816302        22.2127 
  84   0.0000       0.851583        23.1727 
  85   0.0000       0.910176        24.7671 
  86   0.0000       0.953593        25.9486 
  87   0.0000       0.981141        26.6982 
  88   0.0000       1.027522        27.9603 
  89   0.0000       1.032128        28.0856 
  90   0.0000       1.066193        29.0126 
  91   0.0000       1.105911        30.0934 
  92   0.0000       1.175473        31.9862 
  93   0.0000       1.217534        33.1308 
  94   0.0000       1.252620        34.0855 
  95   0.0000       1.288618        35.0651 
  96   0.0000       1.298282        35.3281 
  97   0.0000       1.309651        35.6374 
  98   0.0000       1.342848        36.5408 
  99   0.0000       1.390110        37.8268 
 100   0.0000       1.390649        37.8415 
 101   0.0000       1.398142        38.0454 
 102   0.0000       1.477501        40.2049 
 103   0.0000       1.506376        40.9906 
 104   0.0000       1.571162        42.7535 
 105   0.0000       1.597625        43.4736 
 106   0.0000       1.630935        44.3800 
 107   0.0000       1.637274        44.5525 
 108   0.0000       1.658030        45.1173 
 109   0.0000       1.667827        45.3839 
 110   0.0000       1.734032        47.1854 
 111   0.0000       1.738938        47.3189 
 112   0.0000       1.810644        49.2701 
 113   0.0000       1.831531        49.8385 
 114   0.0000       1.853260        50.4298 
 115   0.0000       1.860087        50.6155 
 116   0.0000       1.860494        50.6266 
 117   0.0000       1.886093        51.3232 
 118   0.0000       1.892706        51.5032 
 119   0.0000       1.897377        51.6303 
 120   0.0000       1.912186        52.0332 
 121   0.0000       1.924410        52.3658 
 122   0.0000       1.924953        52.3806 
 123   0.0000       1.943501        52.8853 
 124   0.0000       1.947672        52.9989 
 125   0.0000       1.964999        53.4703 
 126   0.0000       1.978782        53.8454 
 127   0.0000       1.979268        53.8586 
 128   0.0000       1.993574        54.2479 
 129   0.0000       1.998731        54.3882 
 130   0.0000       2.013587        54.7925 
 131   0.0000       2.054269        55.8995 
 132   0.0000       2.082509        56.6679 
 133   0.0000       2.085919        56.7607 
 134   0.0000       2.119701        57.6800 
 135   0.0000       2.149541        58.4920 
 136   0.0000       2.165079        58.9148 
 137   0.0000       2.173297        59.1384 
 138   0.0000       2.217065        60.3294 
 139   0.0000       2.261634        61.5422 
 140   0.0000       2.285356        62.1877 
 141   0.0000       2.292199        62.3739 
 142   0.0000       2.350444        63.9588 
 143   0.0000       2.364308        64.3361 
 144   0.0000       2.400700        65.3264 
 145   0.0000       2.420078        65.8537 
 146   0.0000       2.433604        66.2217 
 147   0.0000       2.510696        68.3195 
 148   0.0000       2.523037        68.6553 
 149   0.0000       2.533130        68.9300 
 150   0.0000       2.549157        69.3661 
 151   0.0000       2.586769        70.3896 
 152   0.0000       2.632463        71.6329 
 153   0.0000       2.699062        73.4452 
 154   0.0000       2.702426        73.5367 
 155   0.0000       2.734226        74.4021 
 156   0.0000       2.767787        75.3153 
 157   0.0000       2.774849        75.5075 
 158   0.0000       2.827394        76.9373 
 159   0.0000       2.853359        77.6438 
 160   0.0000       2.853816        77.6563 
 161   0.0000       2.879457        78.3540 
 162   0.0000       2.914791        79.3155 
 163   0.0000       2.993390        81.4543 
 164   0.0000       2.998097        81.5824 
 165   0.0000       3.016625        82.0865 
 166   0.0000       3.031561        82.4930 
 167   0.0000       3.046090        82.8883 
 168   0.0000       3.052874        83.0729 
 169   0.0000       3.072703        83.6125 
 170   0.0000       3.102353        84.4193 
 171   0.0000       3.133578        85.2690 
 172   0.0000       3.156561        85.8944 
 173   0.0000       3.203663        87.1761 
 174   0.0000       3.253180        88.5235 
 175   0.0000       3.446246        93.7771 
 176   0.0000       3.597882        97.9033 

                    ********************************
                    * MULLIKEN POPULATION ANALYSIS *
                    ********************************

-----------------------
MULLIKEN ATOMIC CHARGES
-----------------------
   0 N :   -0.307032
   1 C :    0.257708
   2 N :   -0.306979
   3 H :    0.114548
   4 C :    0.089682
   5 C :    0.089630
   6 H :    0.077889
   7 H :    0.077240
   8 H :    0.073726
   9 H :    0.077897
  10 H :    0.073756
  11 H :    0.077257
  12 C :    0.122627
  13 C :    0.122571
  14 C :   -0.087545
  15 H :    0.077662
  16 H :    0.075029
  17 H :    0.074427
  18 H :    0.067182
  19 H :    0.075043
  20 H :    0.077683
Sum of atomic charges:    1.0000000

--------------------------------
MULLIKEN REDUCED ORBITAL CHARGES
--------------------------------
  0 N s       :     3.402651  s :     3.402651
      pz      :     1.558701  p :     3.874375
      px      :     1.120827
      py      :     1.194847
      dz2     :     0.002545  d :     0.030006
      dxz     :     0.005654
      dyz     :     0.003860
      dx2y2   :     0.008709
      dxy     :     0.009238
  1 C s       :     3.066182  s :     3.066182
      pz      :     0.802714  p :     2.598865
      px      :     0.842925
      py      :     0.953225
      dz2     :     0.005002  d :     0.077245
      dxz     :     0.028215
      dyz     :     0.004450
      dx2y2   :     0.019973
      dxy     :     0.019606
  2 N s       :     3.402629  s :     3.402629
      pz      :     1.558652  p :     3.874344
      px      :     1.120821
      py      :     1.194870
      dz2     :     0.002546  d :     0.030007
      dxz     :     0.005654
      dyz     :     0.003860
      dx2y2   :     0.008709
      dxy     :     0.009238
  3 H s       :     0.862680  s :     0.862680
      pz      :     0.003218  p :     0.022773
      px      :     0.001271
      py      :     0.018283
  4 C s       :     3.002571  s :     3.002571
      pz      :     1.061244  p :     2.868674
      px      :     0.821032
      py      :     0.986399
      dz2     :     0.007080  d :     0.039073
      dxz     :     0.011679
      dyz     :     0.002628
      dx2y2   :     0.008380
      dxy     :     0.009306
  5 C s       :     3.002630  s :     3.002630
      pz      :     1.061222  p :     2.868668
      px      :     0.821033
      py      :     0.986413
      dz2     :     0.007080  d :     0.039072
      dxz     :     0.011678
      dyz     :     0.002629
      dx2y2   :     0.008380
      dxy     :     0.009306
  6 H s       :     0.897971  s :     0.897971
      pz      :     0.005096  p :     0.024140
      px      :     0.003067
      py      :     0.015977
  7 H s       :     0.899147  s :     0.899147
      pz      :     0.012462  p :     0.023613
      px      :     0.006234
      py      :     0.004916
  8 H s       :     0.902596  s :     0.902596
      pz      :     0.012383  p :     0.023678
      px      :     0.006784
      py      :     0.004512
  9 H s       :     0.897965  s :     0.897965
      pz      :     0.005095  p :     0.024138
      px      :     0.003067
      py      :     0.015976
 10 H s       :     0.902569  s :     0.902569
      pz      :     0.012381  p :     0.023675
      px      :     0.006784
      py      :     0.004510
 11 H s       :     0.899131  s :     0.899131
      pz      :     0.012462  p :     0.023612
      px      :     0.006233
      py      :     0.004917
 12 C s       :     2.993910  s :     2.993910
      pz      :     1.044591  p :     2.835855
      px      :     1.038587
      py      :     0.752677
      dz2     :     0.010998  d :     0.047608
      dxz     :     0.005846
      dyz     :     0.008709
      dx2y2   :     0.015058
      dxy     :     0.006998
 13 C s       :     2.993981  s :     2.993981
      pz      :     1.044547  p :     2.835841
      px      :     1.038607
      py      :     0.752687
      dz2     :     0.011004  d :     0.047607
      dxz     :     0.005839
      dyz     :     0.008709
      dx2y2   :     0.015057
      dxy     :     0.006998
 14 C s       :     3.057124  s :     3.057124
      pz      :     1.018886  p :     2.996421
      px      :     0.936938
      py      :     1.040597
      dz2     :     0.009938  d :     0.034000
      dxz     :     0.006775
      dyz     :     0.003173
      dx2y2   :     0.007987
      dxy     :     0.006128
 15 H s       :     0.900003  s :     0.900003
      pz      :     0.015525  p :     0.022335
      px      :     0.003985
      py      :     0.002825
 16 H s       :     0.902179  s :     0.902179
      pz      :     0.007038  p :     0.022793
      px      :     0.011869
      py      :     0.003886
 17 H s       :     0.901939  s :     0.901939
      pz      :     0.004820  p :     0.023634
      px      :     0.003635
      py      :     0.015179
 18 H s       :     0.909841  s :     0.909841
      pz      :     0.015476  p :     0.022977
      px      :     0.003379
      py      :     0.004121
 19 H s       :     0.902165  s :     0.902165
      pz      :     0.007031  p :     0.022792
      px      :     0.011874
      py      :     0.003887
 20 H s       :     0.899983  s :     0.899983
      pz      :     0.015526  p :     0.022334
      px      :     0.003984
      py      :     0.002824


                     *******************************
                     * LOEWDIN POPULATION ANALYSIS *
                     *******************************

----------------------
LOEWDIN ATOMIC CHARGES
----------------------
   0 N :    0.022596
   1 C :    0.174743
   2 N :    0.022601
   3 H :    0.065893
   4 C :    0.050596
   5 C :    0.050583
   6 H :    0.046471
   7 H :    0.042020
   8 H :    0.042830
   9 H :    0.046475
  10 H :    0.042842
  11 H :    0.042023
  12 C :    0.055690
  13 C :    0.055686
  14 C :   -0.035958
  15 H :    0.042941
  16 H :    0.047485
  17 H :    0.052621
  18 H :    0.041419
  19 H :    0.047491
  20 H :    0.042951

-------------------------------
LOEWDIN REDUCED ORBITAL CHARGES
-------------------------------
  0 N s       :     3.044126  s :     3.044126
      pz      :     1.487344  p :     3.864736
      px      :     1.178221
      py      :     1.199171
      dz2     :     0.004553  d :     0.068543
      dxz     :     0.009809
      dyz     :     0.006761
      dx2y2   :     0.023186
      dxy     :     0.024233
  1 C s       :     2.824285  s :     2.824285
      pz      :     0.828936  p :     2.818334
      px      :     0.955547
      py      :     1.033852
      dz2     :     0.011144  d :     0.182638
      dxz     :     0.058121
      dyz     :     0.007782
      dx2y2   :     0.054951
      dxy     :     0.050639
  2 N s       :     3.044122  s :     3.044122
      pz      :     1.487305  p :     3.864733
      px      :     1.178228
      py      :     1.199200
      dz2     :     0.004555  d :     0.068545
      dxz     :     0.009811
      dyz     :     0.006761
      dx2y2   :     0.023186
      dxy     :     0.024233
  3 H s       :     0.864591  s :     0.864591
      pz      :     0.010444  p :     0.069516
      px      :     0.007251
      py      :     0.051822
  4 C s       :     2.822020  s :     2.822020
      pz      :     1.092508  p :     3.028910
      px      :     0.905585
      py      :     1.030817
      dz2     :     0.017635  d :     0.098474
      dxz     :     0.031329
      dyz     :     0.005341
      dx2y2   :     0.021490
      dxy     :     0.022680
  5 C s       :     2.822046  s :     2.822046
      pz      :     1.092490  p :     3.028900
      px      :     0.905587
      py      :     1.030823
      dz2     :     0.017633  d :     0.098471
      dxz     :     0.031327
      dyz     :     0.005343
      dx2y2   :     0.021489
      dxy     :     0.022679
  6 H s       :     0.886232  s :     0.886232
      pz      :     0.013564  p :     0.067297
      px      :     0.009653
      py      :     0.044080
  7 H s       :     0.891568  s :     0.891568
      pz      :     0.033847  p :     0.066412
      px      :     0.018806
      py      :     0.013758
  8 H s       :     0.890668  s :     0.890668
      pz      :     0.033627  p :     0.066502
      px      :     0.020136
      py      :     0.012740
  9 H s       :     0.886231  s :     0.886231
      pz      :     0.013563  p :     0.067293
      px      :     0.009652
      py      :     0.044078
 10 H s       :     0.890666  s :     0.890666
      pz      :     0.033622  p :     0.066492
      px      :     0.020136
      py      :     0.012734
 11 H s       :     0.891566  s :     0.891566
      pz      :     0.033848  p :     0.066411
      px      :     0.018801
      py      :     0.013761
 12 C s       :     2.824625  s :     2.824625
      pz      :     1.083060  p :     3.005183
      px      :     1.062332
      py      :     0.859791
      dz2     :     0.026798  d :     0.114503
      dxz     :     0.013917
      dyz     :     0.020587
      dx2y2   :     0.036114
      dxy     :     0.017087
 13 C s       :     2.824639  s :     2.824639
      pz      :     1.083026  p :     3.005177
      px      :     1.062350
      py      :     0.859800
      dz2     :     0.026813  d :     0.114498
      dxz     :     0.013900
      dyz     :     0.020586
      dx2y2   :     0.036111
      dxy     :     0.017088
 14 C s       :     2.828666  s :     2.828666
      pz      :     1.060995  p :     3.120803
      px      :     1.003314
      py      :     1.056494
      dz2     :     0.025530  d :     0.086488
      dxz     :     0.016210
      dyz     :     0.007131
      dx2y2   :     0.021183
      dxy     :     0.016435
 15 H s       :     0.889801  s :     0.889801
      pz      :     0.043007  p :     0.067258
      px      :     0.013508
      py      :     0.010743
 16 H s       :     0.885247  s :     0.885247
      pz      :     0.019926  p :     0.067268
      px      :     0.034535
      py      :     0.012806
 17 H s       :     0.878821  s :     0.878821
      pz      :     0.014084  p :     0.068558
      px      :     0.012911
      py      :     0.041563
 18 H s       :     0.890052  s :     0.890052
      pz      :     0.042572  p :     0.068529
      px      :     0.012738
      py      :     0.013219
 19 H s       :     0.885244  s :     0.885244
      pz      :     0.019907  p :     0.067265
      px      :     0.034548
      py      :     0.012810
 20 H s       :     0.889795  s :     0.889795
      pz      :     0.043013  p :     0.067254
      px      :     0.013502
      py      :     0.010739


                      *****************************
                      * MAYER POPULATION ANALYSIS *
                      *****************************

  NA   - Mulliken gross atomic population
  ZA   - Total nuclear charge
  QA   - Mulliken gross atomic charge
  VA   - Mayer's total valence
  BVA  - Mayer's bonded valence
  FA   - Mayer's free valence

  ATOM       NA         ZA         QA         VA         BVA        FA
  0 N      7.3070     7.0000    -0.3070     3.3915     3.3915    -0.0000
  1 C      5.7423     6.0000     0.2577     3.9378     3.9378    -0.0000
  2 N      7.3070     7.0000    -0.3070     3.3915     3.3915    -0.0000
  3 H      0.8855     1.0000     0.1145     0.9995     0.9995    -0.0000
  4 C      5.9103     6.0000     0.0897     3.8898     3.8898    -0.0000
  5 C      5.9104     6.0000     0.0896     3.8898     3.8898    -0.0000
  6 H      0.9221     1.0000     0.0779     0.9977     0.9977     0.0000
  7 H      0.9228     1.0000     0.0772     0.9911     0.9911     0.0000
  8 H      0.9263     1.0000     0.0737     0.9913     0.9913    -0.0000
  9 H      0.9221     1.0000     0.0779     0.9977     0.9977    -0.0000
 10 H      0.9262     1.0000     0.0738     0.9913     0.9913    -0.0000
 11 H      0.9227     1.0000     0.0773     0.9911     0.9911    -0.0000
 12 C      5.8774     6.0000     0.1226     3.9290     3.9290    -0.0000
 13 C      5.8774     6.0000     0.1226     3.9290     3.9290    -0.0000
 14 C      6.0875     6.0000    -0.0875     4.0879     4.0879    -0.0000
 15 H      0.9223     1.0000     0.0777     0.9850     0.9850    -0.0000
 16 H      0.9250     1.0000     0.0750     0.9893     0.9893    -0.0000
 17 H      0.9256     1.0000     0.0744     0.9853     0.9853    -0.0000
 18 H      0.9328     1.0000     0.0672     0.9790     0.9790    -0.0000
 19 H      0.9250     1.0000     0.0750     0.9893     0.9893    -0.0000
 20 H      0.9223     1.0000     0.0777     0.9850     0.9850    -0.0000

  Mayer bond orders larger than 0.100000
B(  0-N ,  1-C ) :   1.4274 B(  0-N ,  4-C ) :   0.9279 B(  0-N , 12-C ) :   0.9051 
B(  1-C ,  2-N ) :   1.4274 B(  1-C ,  3-H ) :   0.9620 B(  2-N ,  5-C ) :   0.9279 
B(  2-N , 13-C ) :   0.9051 B(  4-C ,  6-H ) :   0.9711 B(  4-C ,  7-H ) :   0.9737 
B(  4-C ,  8-H ) :   0.9718 B(  5-C ,  9-H ) :   0.9711 B(  5-C , 10-H ) :   0.9718 
B(  5-C , 11-H ) :   0.9737 B( 12-C , 14-C ) :   1.0697 B( 12-C , 15-H ) :   0.9563 
B( 12-C , 16-H ) :   0.9507 B( 13-C , 14-C ) :   1.0697 B( 13-C , 19-H ) :   0.9507 
B( 13-C , 20-H ) :   0.9563 B( 14-C , 17-H ) :   0.9451 B( 14-C , 18-H ) :   0.9498 


-------
TIMINGS
-------

Total SCF time: 0 days 0 hours 3 min 25 sec 

Total time                  ....     205.848 sec
Sum of individual times     ....     205.447 sec  ( 99.8%)

Fock matrix formation       ....     201.997 sec  ( 98.1%)
  Split-RI-J                ....       7.118 sec  (  3.5% of F)
  Chain of spheres X        ....     162.626 sec  ( 80.5% of F)
  XC integration            ....      20.375 sec  ( 10.1% of F)
    Basis function eval.    ....       7.437 sec  ( 36.5% of XC)
    Density eval.           ....       4.498 sec  ( 22.1% of XC)
    XC-Functional eval.     ....       2.889 sec  ( 14.2% of XC)
    XC-Potential eval.      ....       4.930 sec  ( 24.2% of XC)
Diagonalization             ....       0.054 sec  (  0.0%)
Density matrix formation    ....       0.008 sec  (  0.0%)
Population analysis         ....       0.007 sec  (  0.0%)
Initial guess               ....       0.594 sec  (  0.3%)
Orbital Transformation      ....       0.000 sec  (  0.0%)
Orbital Orthonormalization  ....       0.000 sec  (  0.0%)
DIIS solution               ....       0.017 sec  (  0.0%)
SOSCF solution              ....       0.025 sec  (  0.0%)
Grid generation             ....       2.745 sec  (  1.3%)

Maximum memory used throughout the entire SCF-calculation: 74.2 MB


-------------------------------------------------------------------------------
                          DFT DISPERSION CORRECTION                            
                                                                               
                                 DFTD4 V2.5                                    
-------------------------------------------------------------------------------
The WB97X functional is recognized
Active option DFTDOPT                   ...         5   

Starting D4
-------------------------   ----------------
Dispersion correction           -0.002470820
-------------------------   ----------------


-------------------------   --------------------
FINAL SINGLE POINT ENERGY      -345.506858560381
-------------------------   --------------------

------------------------------------------------------------------------------
                         ORCA SCF GRADIENT CALCULATION
------------------------------------------------------------------------------

 ... reading COSX grid (gridx3)
Gradient of the Kohn-Sham DFT energy:
Kohn-Sham wavefunction type      ... RKS
Hartree-Fock exchange scaling    ...    0.158
Number of operators              ...    1
Number of atoms                  ...   21
Basis set dimensions             ...  177
Integral neglect threshold       ... 2.5e-11
Integral primitive cutoff        ... 2.5e-12
SHARK Integral package           ... ON

Nuc. rep. gradient       (SHARK) ... done (  0.0 sec)
HCore & Overlap gradient (SHARK) ... done (  0.3 sec)
RI-J gradient            (SHARK) ... done (  1.6 sec)
COSX-gradient                    ... done ( 33.7 sec)
Exchange-correlation gradient    ... done
Dispersion correction            ... Starting D4


------------------- 
Dispersion Gradient 
------------------- 
   1  :   -0.000018189   -0.000003881    0.000000899
   2  :    0.000000001   -0.000011957   -0.000000910
   3  :    0.000018190   -0.000003881    0.000000901
   4  :   -0.000000000   -0.000004885   -0.000000191
   5  :   -0.000041844   -0.000019159   -0.000000836
   6  :    0.000041843   -0.000019160   -0.000000841
   7  :   -0.000011071   -0.000005113   -0.000000011
   8  :   -0.000009079   -0.000005103    0.000000031
   9  :   -0.000008962   -0.000004906   -0.000000103
  10  :    0.000011071   -0.000005113   -0.000000012
  11  :    0.000008961   -0.000004906   -0.000000105
  12  :    0.000009079   -0.000005103    0.000000030
  13  :   -0.000019073    0.000019722    0.000003954
  14  :    0.000019070    0.000019722    0.000003963
  15  :    0.000000002    0.000028692   -0.000005693
  16  :   -0.000003413    0.000002502    0.000000312
  17  :   -0.000004984    0.000002601   -0.000000703
  18  :   -0.000000000    0.000009656   -0.000000113
  19  :    0.000000000    0.000005172   -0.000000183
  20  :    0.000004985    0.000002601   -0.000000701
  21  :    0.000003413    0.000002502    0.000000312

  |G| =    0.000091462

done

------------------
CARTESIAN GRADIENT
------------------

   1   N   :   -0.000540716   -0.003842518    0.000232328
   2   C   :    0.000026262    0.002861403   -0.000772209
   3   N   :    0.000529135   -0.003845712    0.000235394
   4   H   :   -0.000010575    0.008530885    0.001095914
   5   C   :    0.002923071    0.002224199    0.000591618
   6   C   :   -0.002943764    0.002234805    0.000554168
   7   H   :   -0.002523534    0.006998826    0.000045148
   8   H   :    0.002670842   -0.002101138    0.005225686
   9   H   :    0.002861961   -0.001266464   -0.005540347
  10   H   :    0.002516470    0.006982223    0.000043038
  11   H   :   -0.002842486   -0.001254645   -0.005500170
  12   H   :   -0.002667499   -0.002105306    0.005218293
  13   C   :   -0.008220246   -0.007310075    0.003721071
  14   C   :    0.008202738   -0.007315203    0.003715489
  15   C   :    0.000000784    0.007983900   -0.008348640
  16   H   :    0.001337906   -0.000603992   -0.005229823
  17   H   :    0.004850007   -0.000371657    0.002383277
  18   H   :    0.000001746   -0.006807618   -0.001726011
  19   H   :   -0.000000480   -0.000041947    0.006989990
  20   H   :   -0.004837959   -0.000366225    0.002374146
  21   H   :   -0.001334369   -0.000596601   -0.005212480

Difference to translation invariance:
           :   -0.0000007053   -0.0000128593    0.0000958808

Difference to rotation invariance:
           :    0.0001206897    0.0000048335   -0.0000038191

Norm of the cartesian gradient     ...    0.0320576214
RMS gradient                       ...    0.0040388807
MAX gradient                       ...    0.0085308849

-------
TIMINGS
-------

Total SCF gradient time            ...       44.831 sec

One electron gradient       ....       0.318 sec  (  0.7%)
RI-J Coulomb gradient       ....       1.648 sec  (  3.7%)
COSX gradient               ....      33.651 sec  ( 75.1%)
XC gradient                 ....       7.318 sec  ( 16.3%)
CPCM gradient               ....       0.686 sec  (  1.5%)
   A-Matrix (El+Nuc)        ....       0.063 sec  (  0.1%)
   Potential                ....       0.622 sec  (  1.4%)

Maximum memory used throughout the entire SCFGRAD-calculation: 60.0 MB
------------------------------------------------------------------------------
                         ORCA GEOMETRY RELAXATION STEP
------------------------------------------------------------------------------

Reading the OPT-File                    .... done
Getting information on internals        .... done
Copying old internal coords+grads       .... done
Making the new internal coordinates     .... (new redundants).... done
Validating the new internal coordinates .... (new redundants).... done
Calculating the B-matrix                .... done
Calculating the G,G- and P matrices     .... done
Transforming gradient to internals      .... done
Projecting the internal gradient        .... done
Number of atoms                         ....  21
Number of internal coordinates          .... 110
Current Energy                          ....  -345.506858560 Eh
Current gradient norm                   ....     0.032057621 Eh/bohr
Maximum allowed component of the step   ....  0.300
Current trust radius                    ....  0.300
Evaluating the initial hessian          ....  (Almloef) done
Projecting the Hessian                  .... done
Forming the augmented Hessian           .... done
Diagonalizing the augmented Hessian     .... done
Last element of RFO vector              ....  0.994024657
Lowest eigenvalues of augmented Hessian:
 -0.002533209  0.016620838  0.018148618  0.018149416  0.019158460
Length of the computed step             ....  0.109811926
The final length of the internal step   ....  0.109811926
Converting the step to cartesian space:
 Initial RMS(Int)=    0.0104701563
Transforming coordinates:
 Iter   0:  RMS(Cart)=    0.0206823563 RMS(Int)=    0.0104654613
 Iter   1:  RMS(Cart)=    0.0001315436 RMS(Int)=    0.0000835891
 Iter   2:  RMS(Cart)=    0.0000015083 RMS(Int)=    0.0000010235
 Iter   3:  RMS(Cart)=    0.0000000209 RMS(Int)=    0.0000000166
done
Storing new coordinates                 .... done

                                .--------------------.
          ----------------------|Geometry convergence|-------------------------
          Item                value                   Tolerance       Converged
          ---------------------------------------------------------------------
          RMS gradient        0.0029564743            0.0001000000      NO
          MAX gradient        0.0086004242            0.0003000000      NO
          RMS step            0.0104701563            0.0020000000      NO
          MAX step            0.0231497958            0.0040000000      NO
          ........................................................
          Max(Bonds)      0.0123      Max(Angles)    0.57
          Max(Dihed)        1.02      Max(Improp)    0.00
          ---------------------------------------------------------------------

The optimization has not yet converged - more geometry cycles are needed


    ---------------------------------------------------------------------------
                         Redundant Internal Coordinates
                            (Angstroem and degrees)

        Definition                    Value    dE/dq     Step     New-Value
    ----------------------------------------------------------------------------
     1. B(C   1,N   0)                1.3096 -0.005836  0.0041    1.3137   
     2. B(N   2,C   1)                1.3095 -0.005848  0.0042    1.3137   
     3. B(H   3,C   1)                1.0834 -0.008600  0.0123    1.0956   
     4. B(C   4,N   0)                1.4427 -0.008075  0.0092    1.4519   
     5. B(C   5,N   2)                1.4427 -0.008079  0.0092    1.4519   
     6. B(H   6,C   4)                1.0871 -0.007311  0.0106    1.0976   
     7. B(H   7,C   4)                1.0914 -0.006196  0.0091    1.1005   
     8. B(H   8,C   4)                1.0908 -0.006320  0.0092    1.1000   
     9. B(H   9,C   5)                1.0871 -0.007294  0.0105    1.0976   
    10. B(H  10,C   5)                1.0908 -0.006274  0.0092    1.1000   
    11. B(H  11,C   5)                1.0914 -0.006190  0.0091    1.1005   
    12. B(C  12,N   0)                1.4532 -0.007630  0.0091    1.4622   
    13. B(C  13,N   2)                1.4532 -0.007624  0.0090    1.4622   
    14. B(C  14,C  13)                1.5235  0.001064 -0.0016    1.5219   
    15. B(C  14,C  12)                1.5235  0.001065 -0.0016    1.5219   
    16. B(H  15,C  12)                1.0950 -0.005344  0.0079    1.1030   
[...]
     14      -0.000055  -0.007421  -0.007082   0.061524  -0.067093  -0.026978
     15       0.000213   0.000439  -0.000241   0.000221   0.000202  -0.000018
     16       0.000096   0.000134  -0.000307  -0.003602  -0.003951   0.001624
     17      -0.000055   0.007339  -0.007180   0.061460   0.067141  -0.027000
     18      -0.000064  -0.000145  -0.000558  -0.001317   0.001437   0.000579
     19       0.000789   0.003651   0.006070   0.005688  -0.006461  -0.003209
     20      -0.000016   0.000081   0.000212   0.005904  -0.006497  -0.002733
     21       0.001135   0.028271   0.028173  -0.238959   0.260926   0.104897
     22      -0.000897  -0.013127  -0.013051   0.128005  -0.139765  -0.056450
     23       0.001876   0.040968   0.040645  -0.359959   0.392961   0.158202
     24       0.000789  -0.032109  -0.029590   0.242766  -0.264556  -0.105583
     25      -0.000475   0.011518   0.010694  -0.090856   0.099035   0.039860
     26      -0.001396   0.048543   0.044920  -0.374949   0.408706   0.163695
     27       0.000064  -0.000138   0.000560   0.001320   0.001443  -0.000581
     28       0.000787  -0.003577   0.006115   0.005702   0.006489  -0.003221
     29      -0.000016  -0.000077   0.000212   0.005899   0.006502  -0.002735
     30      -0.000788  -0.031767   0.030012  -0.242521  -0.264758   0.105671
     31      -0.000475  -0.011395   0.010846  -0.090764  -0.099109   0.039892
     32      -0.001394  -0.048023   0.045557  -0.374549  -0.408992   0.163820
     33      -0.001135   0.027943  -0.028545   0.238700   0.261104  -0.104976
     34      -0.000897   0.012978  -0.013226   0.127873   0.139868  -0.056496
     35       0.001875  -0.040499   0.041188  -0.359593  -0.393256   0.158333
     36       0.005880  -0.040396  -0.039758  -0.001151   0.004183   0.007458
     37      -0.004060   0.012265   0.011723   0.000472  -0.001190  -0.001590
     38       0.001718  -0.051319  -0.048925   0.000110   0.006183   0.014663
     39      -0.005881  -0.039917   0.040266   0.001149   0.004187  -0.007468
     40      -0.004062  -0.012127   0.011881   0.000472   0.001192  -0.001594
     41       0.001712   0.050696  -0.049539   0.000114  -0.006181   0.014669
     42       0.000005   0.000817  -0.000006  -0.000002   0.000022  -0.000004
     43       0.037302   0.000118   0.019523   0.030587   0.000026   0.064268
     44      -0.061919   0.000033   0.005833   0.024041   0.000021   0.053213
     45      -0.003451  -0.041349  -0.039668   0.001458   0.005773   0.016700
     46       0.005109   0.059737   0.056295  -0.002125  -0.006465  -0.019722
     47       0.034041   0.303603   0.288985  -0.007082  -0.039836  -0.108726
     48      -0.075960   0.515043   0.495715   0.010103  -0.054649  -0.104916
     49       0.034010  -0.199043  -0.191253  -0.003089   0.019926   0.039287
     50      -0.047727   0.304946   0.293651   0.005812  -0.032563  -0.063250
     51       0.000007  -0.000382   0.000006   0.000005  -0.000172   0.000011
     52      -0.470617  -0.001360  -0.224972  -0.349561  -0.000300  -0.735269
     53      -0.133701  -0.000350  -0.057856  -0.092010  -0.000079  -0.194043
     54      -0.000069  -0.002852   0.000019   0.000016   0.000279   0.000036
     55       0.048902  -0.000014  -0.002532  -0.008410  -0.000007  -0.018549
     56       0.855620  -0.000062  -0.014869  -0.196994  -0.000169  -0.443432
     57       0.075970   0.508982  -0.502105  -0.010077  -0.054687   0.105013
     58       0.034015   0.196716  -0.193733  -0.003081  -0.019942   0.039326
     59      -0.047710  -0.301200   0.297281   0.005793   0.032568  -0.063275
     60       0.003451  -0.040783   0.040103  -0.001460   0.005761  -0.016682
     61       0.005118  -0.058997   0.056989  -0.002128   0.006457  -0.019719
     62       0.034103  -0.299940   0.292638  -0.007108   0.039816  -0.108763
                 60         61         62    
      0       0.000293   0.000945  -0.003053
      1       0.000074   0.000059   0.002259
      2      -0.000015  -0.000056   0.000218
      3       0.000152  -0.000199   0.000000
      4       0.003721   0.002839  -0.090081
      5       0.000452   0.000345  -0.011007
      6      -0.000988  -0.000033   0.003053
      7       0.000077   0.000055   0.002258
      8      -0.000058   0.000001   0.000219
      9       0.002024  -0.002653  -0.000001
     10      -0.041476  -0.031650   0.986984
     11      -0.004235  -0.003232   0.120030
     12       0.005577   0.041684   0.001152
     13      -0.011265  -0.084504  -0.003270
     14      -0.000626  -0.004679  -0.000153
     15      -0.041677   0.005624  -0.001152
     16      -0.084479   0.011442  -0.003270
     17      -0.004680   0.000632  -0.000154
     18      -0.023547  -0.176144  -0.007412
     19       0.114395   0.856788   0.034871
     20       0.005495   0.041563   0.002688
     21      -0.021865  -0.162255  -0.003084
     22       0.011093   0.082486   0.003099
     23      -0.034811  -0.258891  -0.006700
     24      -0.022437  -0.166950  -0.003326
     25       0.007567   0.056541   0.002334
     26       0.036468   0.272053   0.006991
     27       0.176104  -0.023786   0.007412
     28       0.856578  -0.115838   0.034872
     29       0.041531  -0.005671   0.002688
     30       0.166970  -0.022433   0.003329
     31       0.056541  -0.007628   0.002335
     32       0.272043  -0.036644   0.006995
     33       0.162251  -0.021741   0.003082
     34       0.082482  -0.011075   0.003098
     35      -0.258886   0.034764  -0.006697
     36       0.000168   0.000562  -0.001365
     37      -0.000010   0.000261   0.001293
     38       0.000210   0.000973   0.000111
     39      -0.000587  -0.000014   0.001365
     40       0.000249  -0.000079   0.001293
     41       0.000994  -0.000055   0.000111
     42       0.000002  -0.000003   0.000000
     43      -0.000013  -0.000010   0.000210
     44      -0.000100  -0.000076   0.000129
     45       0.000193   0.001035   0.000555
     46      -0.000050  -0.000673  -0.001258
     47      -0.001361  -0.007057  -0.005319
     48      -0.001330  -0.005332   0.009701
     49       0.000912   0.003598  -0.003394
     50      -0.000924  -0.003319   0.005504
     51       0.000101  -0.000132   0.000000
     52       0.000661   0.000504  -0.003042
     53       0.000231   0.000177  -0.000392
     54       0.000058  -0.000076   0.000000
     55      -0.000013  -0.000010  -0.000028
     56       0.000747   0.000570  -0.001420
     57       0.005500  -0.000126  -0.009703
     58       0.003714  -0.000070  -0.003395
     59      -0.003447  -0.000014   0.005502
     60      -0.001048   0.000087  -0.000554
     61      -0.000662   0.000130  -0.001257
     62      -0.007167   0.000551  -0.005319


-----------
IR SPECTRUM
-----------

 Mode   freq       eps      Int      T**2         TX        TY        TZ
       cm**-1   L/(mol*cm) km/mol    a.u.
----------------------------------------------------------------------------
  6:     98.07   0.000002    0.01  0.000006  (-0.002387 -0.000001  0.000001)
  7:    152.25   0.000791    4.00  0.001622  ( 0.000003 -0.008163  0.039437)
  8:    183.42   0.000052    0.26  0.000089  ( 0.009442  0.000005 -0.000015)
  9:    214.30   0.000648    3.27  0.000943  ( 0.000003 -0.005065  0.030293)
 10:    270.56   0.000057    0.29  0.000066  (-0.000003  0.001190 -0.008014)
 11:    300.38   0.000013    0.07  0.000013  ( 0.003666  0.000003  0.000004)
 12:    316.20   0.000004    0.02  0.000004  (-0.000002 -0.001755  0.000688)
 13:    425.16   0.000014    0.07  0.000011  ( 0.003253  0.000001 -0.000012)
 14:    456.09   0.006625   33.48  0.004533  (-0.000010 -0.007026  0.066959)
 15:    477.11   0.001296    6.55  0.000848  ( 0.029120  0.000001  0.000002)
 16:    531.70   0.001893    9.57  0.001111  ( 0.000002  0.010861 -0.031512)
 17:    624.60   0.000040    0.20  0.000020  (-0.000001 -0.002448 -0.003726)
 18:    809.50   0.000211    1.07  0.000081  ( 0.000000  0.004856 -0.007598)
 19:    881.28   0.000362    1.83  0.000128  (-0.011324  0.000001 -0.000000)
 20:    916.37   0.000038    0.19  0.000013  ( 0.003575 -0.000000  0.000002)
 21:    941.81   0.000350    1.77  0.000116  ( 0.000001  0.002328  0.010508)
 22:   1010.40   0.000501    2.53  0.000155  (-0.000007  0.005618  0.011105)
 23:   1045.29   0.005684   28.72  0.001697  ( 0.000002  0.038326  0.015100)
 24:   1073.69   0.000158    0.80  0.000046  ( 0.006774 -0.000004  0.000001)
 25:   1123.50   0.001598    8.08  0.000444  (-0.000019 -0.005072  0.020448)
 26:   1126.20   0.002377   12.01  0.000659  ( 0.000008  0.025211 -0.004795)
 27:   1137.99   0.005682   28.71  0.001558  (-0.039472  0.000004 -0.000008)
 28:   1140.94   0.000019    0.10  0.000005  (-0.002301 -0.000001 -0.000001)
 29:   1160.99   0.000221    1.12  0.000060  (-0.000010  0.004465 -0.006291)
 30:   1205.22   0.016274   82.24  0.004214  ( 0.064913 -0.000002 -0.000001)
 31:   1237.99   0.012286   62.09  0.003097  ( 0.055649  0.000007 -0.000000)
 32:   1275.46   0.000641    3.24  0.000157  (-0.012524 -0.000025  0.000008)
 33:   1281.93   0.007193   36.35  0.001751  (-0.000008  0.038690 -0.015940)
 34:   1340.55   0.002425   12.25  0.000565  (-0.000013  0.022082  0.008768)
 35:   1354.44   0.010757   54.36  0.002478  (-0.049783 -0.000005 -0.000005)
 36:   1404.91   0.004788   24.20  0.001063  (-0.032611 -0.000004 -0.000002)
 37:   1418.83   0.003881   19.61  0.000854  (-0.029216  0.000004  0.000001)
 38:   1428.18   0.006908   34.91  0.001509  (-0.000007  0.037862  0.008709)
 39:   1445.99   0.014501   73.28  0.003130  (-0.055942  0.000005 -0.000040)
 40:   1446.74   0.010930   55.23  0.002358  ( 0.000043  0.009254 -0.047665)
 41:   1447.61   0.000121    0.61  0.000026  ( 0.005101  0.000004 -0.000004)
 42:   1449.72   0.001282    6.48  0.000276  (-0.000004  0.013173  0.010116)
 43:   1457.26   0.000170    0.86  0.000036  ( 0.000003  0.002117 -0.005655)
 44:   1459.94   0.000134    0.68  0.000029  ( 0.005358  0.000012  0.000002)
 45:   1464.83   0.006816   34.45  0.001452  (-0.000004  0.038001 -0.002828)
 46:   1472.23   0.000713    3.60  0.000151  ( 0.000001  0.011994 -0.002682)
 47:   1488.46   0.005277   26.67  0.001106  (-0.033261 -0.000002 -0.000002)
 48:   1588.56   0.009175   46.37  0.001802  (-0.000002 -0.041186 -0.010304)
 49:   1799.25   0.192673  973.69  0.033417  (-0.182804  0.000001 -0.000005)
 50:   3079.51   0.012332   62.32  0.001250  (-0.035350  0.000004  0.000001)
 51:   3080.57   0.001083    5.47  0.000110  ( 0.000012  0.010349  0.001619)
 52:   3089.01   0.003949   19.96  0.000399  (-0.019973 -0.000007 -0.000013)
 53:   3091.73   0.004392   22.20  0.000443  (-0.000015  0.012883  0.016655)
 54:   3105.64   0.002717   13.73  0.000273  ( 0.000001  0.006065 -0.015369)
 55:   3167.69   0.000885    4.47  0.000087  (-0.009335  0.000035 -0.000087)
 56:   3168.76   0.002261   11.43  0.000223  ( 0.000059  0.005909 -0.013704)
 57:   3183.03   0.003461   17.49  0.000339  (-0.000000  0.001191  0.018381)
 58:   3183.22   0.000000    0.00  0.000000  ( 0.000109  0.000002  0.000009)
 59:   3184.23   0.000432    2.18  0.000042  (-0.000002  0.005700  0.003134)
 60:   3218.81   0.000568    2.87  0.000055  (-0.004104 -0.006180 -0.000242)
 61:   3218.81   0.000528    2.67  0.000051  ( 0.005378 -0.004716 -0.000185)
 62:   3241.80   0.000537    2.71  0.000052  ( 0.000000  0.006954  0.001828)

* The epsilon (eps) is given for a Dirac delta lineshape.
** The dipole moment derivative (T) already includes vibrational overlap.

The first frequency considered to be a vibration is 6
The total number of vibrations considered is 57


--------------------------
THERMOCHEMISTRY AT 298.15K
--------------------------

Temperature         ... 298.15 K
Pressure            ... 1.00 atm
Total Mass          ... 113.18 AMU

Throughout the following assumptions are being made:
  (1) The electronic state is orbitally nondegenerate
  (2) There are no thermally accessible electronically excited states
  (3) Hindered rotations indicated by low frequency modes are not
      treated as such but are treated as vibrations and this may
      cause some error
  (4) All equations used are the standard statistical mechanics
      equations for an ideal gas
  (5) All vibrations are strictly harmonic

freq.      98.07  E(vib)   ...       0.46 
freq.     152.25  E(vib)   ...       0.40 
freq.     183.42  E(vib)   ...       0.37 
freq.     214.30  E(vib)   ...       0.34 
freq.     270.56  E(vib)   ...       0.29 
freq.     300.38  E(vib)   ...       0.26 
freq.     316.20  E(vib)   ...       0.25 
freq.     425.16  E(vib)   ...       0.18 
freq.     456.09  E(vib)   ...       0.16 
freq.     477.11  E(vib)   ...       0.15 
freq.     531.70  E(vib)   ...       0.13 
freq.     624.60  E(vib)   ...       0.09 
freq.     809.50  E(vib)   ...       0.05 
freq.     881.28  E(vib)   ...       0.04 
freq.     916.37  E(vib)   ...       0.03 
freq.     941.81  E(vib)   ...       0.03 
freq.    1010.40  E(vib)   ...       0.02 
freq.    1045.29  E(vib)   ...       0.02 
freq.    1073.69  E(vib)   ...       0.02 
freq.    1123.50  E(vib)   ...       0.01 
freq.    1126.20  E(vib)   ...       0.01 
freq.    1137.99  E(vib)   ...       0.01 
freq.    1140.94  E(vib)   ...       0.01 
freq.    1160.99  E(vib)   ...       0.01 
freq.    1205.22  E(vib)   ...       0.01 
freq.    1237.99  E(vib)   ...       0.01 
freq.    1275.46  E(vib)   ...       0.01 
freq.    1281.93  E(vib)   ...       0.01 
freq.    1340.55  E(vib)   ...       0.01 
freq.    1354.44  E(vib)   ...       0.01 
freq.    1404.91  E(vib)   ...       0.00 
freq.    1418.83  E(vib)   ...       0.00 
freq.    1428.18  E(vib)   ...       0.00 
freq.    1445.99  E(vib)   ...       0.00 
freq.    1446.74  E(vib)   ...       0.00 
freq.    1447.61  E(vib)   ...       0.00 
freq.    1449.72  E(vib)   ...       0.00 
freq.    1457.26  E(vib)   ...       0.00 
freq.    1459.94  E(vib)   ...       0.00 
freq.    1464.83  E(vib)   ...       0.00 
freq.    1472.23  E(vib)   ...       0.00 
freq.    1488.46  E(vib)   ...       0.00 
freq.    1588.56  E(vib)   ...       0.00 
freq.    1799.25  E(vib)   ...       0.00 
freq.    3079.51  E(vib)   ...       0.00 
freq.    3080.57  E(vib)   ...       0.00 
freq.    3089.01  E(vib)   ...       0.00 
freq.    3091.73  E(vib)   ...       0.00 
freq.    3105.64  E(vib)   ...       0.00 
freq.    3167.69  E(vib)   ...       0.00 
freq.    3168.76  E(vib)   ...       0.00 
freq.    3183.03  E(vib)   ...       0.00 
freq.    3183.22  E(vib)   ...       0.00 
freq.    3184.23  E(vib)   ...       0.00 
freq.    3218.81  E(vib)   ...       0.00 
freq.    3218.81  E(vib)   ...       0.00 
freq.    3241.80  E(vib)   ...       0.00 

------------
INNER ENERGY
------------

The inner energy is: U= E(el) + E(ZPE) + E(vib) + E(rot) + E(trans)
    E(el)   - is the total energy from the electronic structure calculation
              = E(kin-el) + E(nuc-el) + E(el-el) + E(nuc-nuc)
    E(ZPE)  - the the zero temperature vibrational energy from the frequency calculation
    E(vib)  - the the finite temperature correction to E(ZPE) due to population
              of excited vibrational states
    E(rot)  - is the rotational thermal energy
    E(trans)- is the translational thermal energy

Summary of contributions to the inner energy U:
Electronic energy                ...   -345.50846047 Eh
Zero point energy                ...      0.19569170 Eh     122.80 kcal/mol
Thermal vibrational correction   ...      0.00550027 Eh       3.45 kcal/mol
Thermal rotational correction    ...      0.00141627 Eh       0.89 kcal/mol
Thermal translational correction ...      0.00141627 Eh       0.89 kcal/mol
-----------------------------------------------------------------------
Total thermal energy                   -345.30443595 Eh


Summary of corrections to the electronic energy:
(perhaps to be used in another calculation)
Total thermal correction                  0.00833282 Eh       5.23 kcal/mol
Non-thermal (ZPE) correction              0.19569170 Eh     122.80 kcal/mol
-----------------------------------------------------------------------
Total correction                          0.20402452 Eh     128.03 kcal/mol


--------
ENTHALPY
--------

The enthalpy is H = U + kB*T
                kB is Boltzmann's constant
Total free energy                 ...   -345.30443595 Eh 
Thermal Enthalpy correction       ...      0.00094421 Eh       0.59 kcal/mol
-----------------------------------------------------------------------
Total Enthalpy                    ...   -345.30349174 Eh


Note: Only C1 symmetry has been detected, increase convergence thresholds 
      if your molecule has a higher symmetry. Symmetry factor of 1.0 is   
      used for the rotational entropy correction. 
 

Note: Rotational entropy computed according to Herzberg 
Infrared and Raman Spectra, Chapter V,1, Van Nostrand Reinhold, 1945 
Point Group:  C1, Symmetry Number:   1  
Rotational constants in cm-1:     0.107440     0.059059     0.040169 

Vibrational entropy computed according to the QRRHO of S. Grimme
Chem.Eur.J. 2012 18 9955


-------
ENTROPY
-------

The entropy contributions are T*S = T*(S(el)+S(vib)+S(rot)+S(trans))
     S(el)   - electronic entropy
     S(vib)  - vibrational entropy
     S(rot)  - rotational entropy
     S(trans)- translational entropy
The entropies will be listed as multiplied by the temperature to get
units of energy

Electronic entropy                ...      0.00000000 Eh      0.00 kcal/mol
Vibrational entropy               ...      0.00915795 Eh      5.75 kcal/mol
Rotational entropy                ...      0.01341721 Eh      8.42 kcal/mol
Translational entropy             ...      0.01904664 Eh     11.95 kcal/mol
-----------------------------------------------------------------------
Final entropy term                ...      0.04162180 Eh     26.12 kcal/mol

In case the symmetry of your molecule has not been determined correctly
or in case you have a reason to use a different symmetry number we print 
out the resulting rotational entropy values for sn=1,12 :
 --------------------------------------------------------
|  sn= 1 | S(rot)=       0.01341721 Eh      8.42 kcal/mol|
|  sn= 2 | S(rot)=       0.01276276 Eh      8.01 kcal/mol|
|  sn= 3 | S(rot)=       0.01237993 Eh      7.77 kcal/mol|
|  sn= 4 | S(rot)=       0.01210830 Eh      7.60 kcal/mol|
|  sn= 5 | S(rot)=       0.01189761 Eh      7.47 kcal/mol|
|  sn= 6 | S(rot)=       0.01172547 Eh      7.36 kcal/mol|
|  sn= 7 | S(rot)=       0.01157992 Eh      7.27 kcal/mol|
|  sn= 8 | S(rot)=       0.01145385 Eh      7.19 kcal/mol|
|  sn= 9 | S(rot)=       0.01134264 Eh      7.12 kcal/mol|
|  sn=10 | S(rot)=       0.01124316 Eh      7.06 kcal/mol|
|  sn=11 | S(rot)=       0.01115317 Eh      7.00 kcal/mol|
|  sn=12 | S(rot)=       0.01107101 Eh      6.95 kcal/mol|
 --------------------------------------------------------


-------------------
GIBBS FREE ENERGY
-------------------

The Gibbs free energy is G = H - T*S

Total enthalpy                    ...   -345.30349174 Eh 
Total entropy correction          ...     -0.04162180 Eh    -26.12 kcal/mol
-----------------------------------------------------------------------
Final Gibbs free energy         ...   -345.34511355 Eh

For completeness - the Gibbs free energy minus the electronic energy
G-E(el)                           ...      0.16334692 Eh    102.50 kcal/mol


Timings for individual modules:

Sum of individual times         ...     2035.686 sec (=  33.928 min)
GTO integral calculation        ...        1.895 sec (=   0.032 min)   0.1 %
SCF iterations                  ...      990.112 sec (=  16.502 min)  48.6 %
SCF Gradient evaluation         ...      264.558 sec (=   4.409 min)  13.0 %
Geometry relaxation             ...        0.369 sec (=   0.006 min)   0.0 %
Analytical frequency calculation...      778.752 sec (=  12.979 min)  38.3 %
                             ****ORCA TERMINATED NORMALLY****
TOTAL RUN TIME: 0 days 0 hours 33 minutes 56 seconds 580 msec
