
                                 *****************
                                 * O   R   C   A *
                                 *****************

                                            #,                                       
                                            ###                                      
                                            ####                                     
                                            #####                                    
                                            ######                                   
                                           ########,                                 
                                     ,,################,,,,,                         
                               ,,#################################,,                 
                          ,,##########################################,,             
                       ,#########################################, ''#####,          
                    ,#############################################,,   '####,        
                  ,##################################################,,,,####,       
                ,###########''''           ''''###############################       
              ,#####''   ,,,,##########,,,,          '''####'''          '####       
            ,##' ,,,,###########################,,,                        '##       
           ' ,,###''''                  '''############,,,                           
         ,,##''                                '''############,,,,        ,,,,,,###''
      ,#''                                            '''#######################'''  
     '                                                          ''''####''''         
             ,#######,   #######,   ,#######,      ##                                
            ,#'     '#,  ##    ##  ,#'     '#,    #''#        ######   ,####,        
            ##       ##  ##   ,#'  ##            #'  '#       #        #'  '#        
            ##       ##  #######   ##           ,######,      #####,   #    #        
            '#,     ,#'  ##    ##  '#,     ,#' ,#      #,         ##   #,  ,#        
             '#######'   ##     ##  '#######'  #'      '#     #####' # '####'        



                  #######################################################
                  #                        -***-                        #
                  #          Department of theory and spectroscopy      #
                  #    Directorship and core code : Frank Neese         #
                  #        Max Planck Institute fuer Kohlenforschung    #
                  #                Kaiser Wilhelm Platz 1               #
                  #                 D-45470 Muelheim/Ruhr               #
                  #                      Germany                        #
                  #                                                     #
                  #                  All rights reserved                #
                  #                        -***-                        #
                  #######################################################


                         Program Version 5.0.4 -  RELEASE  -


 With contributions from (in alphabetic order):
   Daniel Aravena         : Magnetic Suceptibility
   Michael Atanasov       : Ab Initio Ligand Field Theory (pilot matlab implementation)
   Alexander A. Auer      : GIAO ZORA, VPT2 properties, NMR spectrum
   Ute Becker             : Parallelization
   Giovanni Bistoni       : ED, misc. LED, open-shell LED, HFLD
   Martin Brehm           : Molecular dynamics
   Dmytro Bykov           : SCF Hessian
   Vijay G. Chilkuri      : MRCI spin determinant printing, contributions to CSF-ICE
   Dipayan Datta          : RHF DLPNO-CCSD density
   Achintya Kumar Dutta   : EOM-CC, STEOM-CC
   Dmitry Ganyushin       : Spin-Orbit,Spin-Spin,Magnetic field MRCI
   Miquel Garcia          : C-PCM and meta-GGA Hessian, CC/C-PCM, Gaussian charge scheme
   Yang Guo               : DLPNO-NEVPT2, F12-NEVPT2, CIM, IAO-localization
   Andreas Hansen         : Spin unrestricted coupled pair/coupled cluster methods
   Benjamin Helmich-Paris : MC-RPA, TRAH-SCF, COSX integrals
   Lee Huntington         : MR-EOM, pCC
   Robert Izsak           : Overlap fitted RIJCOSX, COSX-SCS-MP3, EOM
   Marcus Kettner         : VPT2
   Christian Kollmar      : KDIIS, OOCD, Brueckner-CCSD(T), CCSD density, CASPT2, CASPT2-K
   Simone Kossmann        : Meta GGA functionals, TD-DFT gradient, OOMP2, MP2 Hessian
   Martin Krupicka        : Initial AUTO-CI
   Lucas Lang             : DCDCAS
   Marvin Lechner         : AUTO-CI (C++ implementation), FIC-MRCC
   Dagmar Lenk            : GEPOL surface, SMD
   Dimitrios Liakos       : Extrapolation schemes; Compound Job, initial MDCI parallelization
   Dimitrios Manganas     : Further ROCIS development; embedding schemes
   Dimitrios Pantazis     : SARC Basis sets
   Anastasios Papadopoulos: AUTO-CI, single reference methods and gradients
   Taras Petrenko         : DFT Hessian,TD-DFT gradient, ASA, ECA, R-Raman, ABS, FL, XAS/XES, NRVS
   Peter Pinski           : DLPNO-MP2, DLPNO-MP2 Gradient
   Christoph Reimann      : Effective Core Potentials
   Marius Retegan         : Local ZFS, SOC
   Christoph Riplinger    : Optimizer, TS searches, QM/MM, DLPNO-CCSD(T), (RO)-DLPNO pert. Triples
   Tobias Risthaus        : Range-separated hybrids, TD-DFT gradient, RPA, STAB
   Michael Roemelt        : Original ROCIS implementation
   Masaaki Saitow         : Open-shell DLPNO-CCSD energy and density
   Barbara Sandhoefer     : DKH picture change effects
   Avijit Sen             : IP-ROCIS
   Kantharuban Sivalingam : CASSCF convergence, NEVPT2, FIC-MRCI
   Bernardo de Souza      : ESD, SOC TD-DFT
   Georgi Stoychev        : AutoAux, RI-MP2 NMR, DLPNO-MP2 response
   Willem Van den Heuvel  : Paramagnetic NMR
   Boris Wezisla          : Elementary symmetry handling
   Frank Wennmohs         : Technical directorship


 We gratefully acknowledge several colleagues who have allowed us to
 interface, adapt or use parts of their codes:
   Stefan Grimme, W. Hujo, H. Kruse, P. Pracht,  : VdW corrections, initial TS optimization,
                  C. Bannwarth, S. Ehlert          DFT functionals, gCP, sTDA/sTD-DF
   Ed Valeev, F. Pavosevic, A. Kumar             : LibInt (2-el integral package), F12 methods
   Garnet Chan, S. Sharma, J. Yang, R. Olivares  : DMRG
   Ulf Ekstrom                                   : XCFun DFT Library
   Mihaly Kallay                                 : mrcc  (arbitrary order and MRCC methods)
   Jiri Pittner, Ondrej Demel                    : Mk-CCSD
   Frank Weinhold                                : gennbo (NPA and NBO analysis)
   Christopher J. Cramer and Donald G. Truhlar   : smd solvation model
   Lars Goerigk                                  : TD-DFT with DH, B97 family of functionals
   V. Asgeirsson, H. Jonsson                     : NEB implementation
   FAccTs GmbH                                   : IRC, NEB, NEB-TS, DLPNO-Multilevel, CI-OPT
                                                   MM, QMMM, 2- and 3-layer-ONIOM, Crystal-QMMM,
                                                   LR-CPCM, SF, NACMEs, symmetry and pop. for TD-DFT,
                                                   nearIR, NL-DFT gradient (VV10), updates on ESD,
                                                   ML-optimized integration grids
   S Lehtola, MJT Oliveira, MAL Marques          : LibXC Library
   Liviu Ungur et al                             : ANISO software


 Your calculation uses the libint2 library for the computation of 2-el integrals
 For citations please refer to: http://libint.valeyev.net

 Your ORCA version has been built with support for libXC version: 5.1.0
 For citations please refer to: https://tddft.org/programs/libxc/

 This ORCA versions uses:
   CBLAS   interface :  Fast vector & matrix operations
   LAPACKE interface :  Fast linear algebra routines
   SCALAPACK package :  Parallel linear algebra routines
   Shared memory     :  Shared parallel matrices
   BLAS/LAPACK       :  OpenBLAS 0.3.15  USE64BITINT DYNAMIC_ARCH NO_AFFINITY SkylakeX SINGLE_THREADED
        Core in use  :  SkylakeX
   Copyright (c) 2011-2014, The OpenBLAS Project




***************************************
The coordinates will be read from file: 10_prot_aq_2.xyz
***************************************


Your calculation utilizes the atom-pairwise dispersion correction
based on tight binding partial charges (D4)
Cite in your paper:
E.Caldeweyher, C.Bannwarth, S.Grimme, J.Chem.Phys., (2017), 147, 034112.
E.Caldeweyher, S.Ehlert, A.Hansen, H.Neugebauer, S.Grimme, J.Chem.Phys., (2018), in progress.
   

XCFun DFT library Copyright 2009-2010 Ulf Ekstrom and contributors.
See http://admol.org/xcfun for more information.
This is free software; see the source code for copying conditions.
There is ABSOLUTELY NO WARRANTY; not even for MERCHANTABILITY or FITNESS FOR A PARTICULAR PURPOSE.
For details see the documentation.
Scientific users of this library should cite U. Ekstrom, L. Visscher, R. Bast, A. J. Thorvaldsen and K. Ruud;
J.Chem.Theor.Comp. 2010, DOI: 10.1021/ct100117s
XCFun Version 0.99 

================================================================================

----- Orbital basis set information -----
Your calculation utilizes the basis: def2-SVP
   F. Weigend and R. Ahlrichs, Phys. Chem. Chem. Phys. 7, 3297 (2005).

----- AuxJ basis set information -----
Your calculation utilizes the auxiliary basis: def2/J
   F. Weigend, Phys. Chem. Chem. Phys. 8, 1057 (2006).

================================================================================
                                        WARNINGS
                       Please study these warnings very carefully!
================================================================================


WARNING: Geometry Optimization
  ===> : Switching off AutoStart
         For restart on a previous wavefunction, please use MOREAD

INFO   : the flag for use of the SHARK integral package has been found!

================================================================================
                                       INPUT FILE
================================================================================
NAME = 10_prot_aq_2.inp
|  1> # ORCA 5.0.4 - /users/bwb16179/postgrad/2024_03/DFT_Crest_Conformers/Opt/prot/10_prot_aq_2.inp # write input file
|  2> # Basic Mode
|  3> #
|  4> ! Opt Freq wB97X Def2-SVP D4 SlowConv TightSCF Defgrid2 Def2/J RIJCOSX CPCM(Water)
|  5> 
|  6> 
|  7> 
|  8> %maxcore 4500
|  9> 
| 10> %geom
| 11> Maxiter 150
| 12> END
| 13> 
| 14> * xyzfile 1 1 10_prot_aq_2.xyz
| 15> 
| 16>                          ****END OF INPUT****
================================================================================

                       *****************************
                       * Geometry Optimization Run *
                       *****************************

Geometry optimization settings:
Update method            Update   .... BFGS
Choice of coordinates    CoordSys .... Z-matrix Internals
Initial Hessian          InHess   .... Almoef's Model

Convergence Tolerances:
Energy Change            TolE     ....  5.0000e-06 Eh
Max. Gradient            TolMAXG  ....  3.0000e-04 Eh/bohr
RMS Gradient             TolRMSG  ....  1.0000e-04 Eh/bohr
Max. Displacement        TolMAXD  ....  4.0000e-03 bohr
RMS Displacement         TolRMSD  ....  2.0000e-03 bohr
Strict Convergence                ....  False
------------------------------------------------------------------------------
                        ORCA OPTIMIZATION COORDINATE SETUP
------------------------------------------------------------------------------

The optimization will be done in new redundant internal coordinates
Making redundant internal coordinates   ...  (new redundants) done
Evaluating the initial hessian          ...  (Almloef) done
Evaluating the coordinates              ...  done
Calculating the B-matrix                .... done
Calculating the G-matrix                .... done
Diagonalizing the G-matrix              .... done
The first mode is                       ....   53
The number of degrees of freedom        ....   57

    -----------------------------------------------------------------
                    Redundant Internal Coordinates


    -----------------------------------------------------------------
         Definition                    Initial Value    Approx d2E/dq
    -----------------------------------------------------------------
      1. B(C   1,N   0)                  1.3109         0.748201   
      2. B(N   2,C   1)                  1.3090         0.753459   
      3. B(H   3,C   1)                  1.0836         0.368644   
      4. B(C   4,N   0)                  1.4491         0.450378   
      5. B(C   5,N   2)                  1.4425         0.461373   
      6. B(H   6,C   4)                  1.0908         0.358992   
      7. B(H   7,C   4)                  1.0862         0.365150   
      8. B(H   8,C   4)                  1.0902         0.359798   
      9. B(H   9,C   5)                  1.0871         0.364001   
     10. B(H  10,C   5)                  1.0914         0.358283   
     11. B(H  11,C   5)                  1.0908         0.359061   
     12. B(C  12,N   0)                  1.4525         0.444755   
     13. B(C  13,N   2)                  1.4528         0.444234   
     14. B(C  14,C  13)                  1.5234         0.382718   
     15. B(C  14,C  12)                  1.5238         0.382228   
     16. B(H  15,C  12)                  1.0914         0.358289   
     17. B(H  16,C  12)                  1.0953         0.353211   
     18. B(H  17,C  14)                  1.0913         0.358321   
     19. B(H  18,C  14)                  1.0880         0.362718   
     20. B(H  19,C  13)                  1.0950         0.353555   
     21. B(H  20,C  13)                  1.0914         0.358222   
     22. A(C   4,N   0,C  12)          119.2024         0.381855   
     23. A(C   1,N   0,C   4)          120.1846         0.418444   
     24. A(C   1,N   0,C  12)          120.5881         0.417509   
     25. A(N   2,C   1,H   3)          117.6205         0.364001   
     26. A(N   0,C   1,N   2)          125.3021         0.459138   
     27. A(N   0,C   1,H   3)          117.0752         0.363565   
     28. A(C   1,N   2,C  13)          120.5316         0.417942   
     29. A(C   1,N   2,C   5)          122.3668         0.420773   
     30. A(C   5,N   2,C  13)          117.1015         0.383380   
     31. A(H   7,C   4,H   8)          108.5658         0.291438   
     32. A(N   0,C   4,H   6)          110.8165         0.332301   
     33. A(N   0,C   4,H   8)          110.8103         0.332424   
     34. A(H   6,C   4,H   8)          108.7632         0.290660   
     35. A(N   0,C   4,H   7)          109.4693         0.333239   
     36. A(H   6,C   4,H   7)          108.3505         0.291335   
     37. A(N   2,C   5,H  11)          109.6999         0.333644   
     38. A(N   2,C   5,H  10)          110.2070         0.333523   
     39. A(N   2,C   5,H   9)          110.7485         0.334401   
     40. A(H  10,C   5,H  11)          108.4006         0.290477   
     41. A(H   9,C   5,H  11)          108.8729         0.291200   
     42. A(H   9,C   5,H  10)          108.8622         0.291101   
     43. A(H  15,C  12,H  16)          108.0990         0.289730   
     44. A(C  14,C  12,H  16)          110.8603         0.324510   
     45. A(N   0,C  12,H  16)          109.4103         0.330720   
     46. A(C  14,C  12,H  15)          110.1317         0.325272   
     47. A(N   0,C  12,H  15)          108.7445         0.331503   
     48. A(N   0,C  12,C  14)          109.5528         0.373520   
     49. A(N   2,C  13,C  14)          109.4100         0.373527   
     50. A(C  14,C  13,H  20)          110.5874         0.325330   
     51. A(N   2,C  13,H  20)          108.5979         0.331428   
     52. A(C  14,C  13,H  19)          110.8364         0.324630   
     53. A(N   2,C  13,H  19)          109.3271         0.330709   
     54. A(H  19,C  13,H  20)          108.0353         0.289765   
     55. A(C  13,C  14,H  17)          109.4598         0.325345   
     56. A(C  12,C  14,H  17)          109.4627         0.325277   
     57. A(C  12,C  14,C  13)          109.6123         0.366291   
     58. A(H  17,C  14,H  18)          108.2127         0.290944   
     59. A(C  13,C  14,H  18)          110.0970         0.325999   
     60. A(C  12,C  14,H  18)          109.9735         0.325930   
     61. D(N   2,C   1,N   0,C  12)     -1.5637         0.046984   
     62. D(H   3,C   1,N   0,C  12)    178.9982         0.046984   
     63. D(N   2,C   1,N   0,C   4)    176.6047         0.046984   
     64. D(H   3,C   1,N   0,C   4)     -2.8334         0.046984   
     65. D(C   5,N   2,C   1,N   0)   -179.1147         0.047722   
     66. D(C   5,N   2,C   1,H   3)      0.3206         0.047722   
     67. D(C  13,N   2,C   1,N   0)      0.9619         0.047722   
     68. D(C  13,N   2,C   1,H   3)   -179.6028         0.047722   
     69. D(H   8,C   4,N   0,C  12)   -125.2644         0.017304   
     70. D(H   6,C   4,N   0,C  12)    113.8959         0.017304   
     71. D(H   7,C   4,N   0,C  12)     -5.5530         0.017304   
     72. D(H   8,C   4,N   0,C   1)     56.5419         0.017304   
     73. D(H   6,C   4,N   0,C   1)    -64.2977         0.017304   
     74. D(H   7,C   4,N   0,C   1)    176.2534         0.017304   
     75. D(H   9,C   5,N   2,C   1)      4.7456         0.018173   
     76. D(H  11,C   5,N   2,C  13)    -55.1265         0.018173   
     77. D(H  11,C   5,N   2,C   1)    124.9476         0.018173   
     78. D(H  10,C   5,N   2,C  13)     64.1522         0.018173   
     79. D(H  10,C   5,N   2,C   1)   -115.7736         0.018173   
     80. D(H   9,C   5,N   2,C  13)   -175.3286         0.018173   
     81. D(H  16,C  12,N   0,C   4)    -82.7078         0.016870   
     82. D(H  16,C  12,N   0,C   1)     95.4783         0.016870   
     83. D(H  15,C  12,N   0,C   4)     35.1579         0.016870   
     84. D(C  14,C  12,N   0,C   4)    155.5703         0.016870   
     85. D(C  14,C  12,N   0,C   1)    -26.2435         0.016870   
     86. D(H  15,C  12,N   0,C   1)   -146.6559         0.016870   
     87. D(H  19,C  13,N   2,C   5)     85.8480         0.016830   
     88. D(H  19,C  13,N   2,C   1)    -94.2248         0.016830   
     89. D(C  14,C  13,N   2,C   5)   -152.6024         0.016830   
     90. D(H  20,C  13,N   2,C   1)    148.1176         0.016830   
     91. D(C  14,C  13,N   2,C   1)     27.3249         0.016830   
     92. D(H  20,C  13,N   2,C   5)    -31.8097         0.016830   
     93. D(H  18,C  14,C  13,H  20)     66.2996         0.011665   
     94. D(H  18,C  14,C  13,H  19)    -53.4906         0.011665   
     95. D(H  18,C  14,C  13,N   2)   -174.1252         0.011665   
     96. D(H  17,C  14,C  13,H  19)   -172.3232         0.011665   
     97. D(H  17,C  14,C  13,N   2)     67.0422         0.011665   
     98. D(C  12,C  14,C  13,H  20)   -172.6020         0.011665   
     99. D(C  12,C  14,C  13,H  19)     67.6078         0.011665   
    100. D(C  12,C  14,C  13,N   2)    -53.0269         0.011665   
    101. D(H  18,C  14,C  12,H  16)     52.8540         0.011637   
    102. D(H  18,C  14,C  12,H  15)    -66.7351         0.011637   
    103. D(H  18,C  14,C  12,N   0)    173.7009         0.011637   
    104. D(H  17,C  14,C  12,H  16)    171.6138         0.011637   
    105. D(H  17,C  14,C  12,H  15)     52.0248         0.011637   
    106. D(H  17,C  14,C  13,H  20)    -52.5330         0.011665   
    107. D(H  17,C  14,C  12,N   0)    -67.5393         0.011637   
    108. D(C  13,C  14,C  12,H  16)    -68.3189         0.011637   
    109. D(C  13,C  14,C  12,H  15)    172.0920         0.011637   
    110. D(C  13,C  14,C  12,N   0)     52.5280         0.011637   
    -----------------------------------------------------------------

Number of atoms                         .... 21
Number of degrees of freedom            .... 110

         *************************************************************
         *                GEOMETRY OPTIMIZATION CYCLE   1            *
         *************************************************************
---------------------------------
CARTESIAN COORDINATES (ANGSTROEM)
---------------------------------
  N     -1.169276   -0.340877   -0.019042
  C     -0.007846   -0.942341    0.069683
  N      1.157757   -0.355418   -0.032534
  H     -0.018346   -2.013639    0.232272
  C     -2.395122   -1.111564    0.037967
  C      2.399659   -1.083832    0.056971
  H     -2.468335   -1.787140   -0.815360
  H     -3.247330   -0.438452    0.015337
  H     -2.441022   -1.698993    0.955255
  H      2.214835   -2.152500    0.131158
  H      2.963366   -0.761519    0.934156
  H      3.003814   -0.891017   -0.830517
  C     -1.244265    1.096431   -0.214874
  C      1.245705    1.079500   -0.242370
  C      0.011784    1.753492    0.344124
  H     -2.127938    1.475129    0.301657
  H     -1.355435    1.312977   -1.282740
  H      0.023165    1.650722    1.430563
  H      0.015038    2.814426    0.102852
  H      1.328825    1.284507   -1.314785
  H      2.151286    1.447432    0.243175

----------------------------
CARTESIAN COORDINATES (A.U.)
----------------------------
  NO LB      ZA    FRAG     MASS         X           Y           Z
   0 N     7.0000    0    14.007   -2.209612   -0.644164   -0.035984
   1 C     6.0000    0    12.011   -0.014826   -1.780766    0.131681
   2 N     7.0000    0    14.007    2.187844   -0.671642   -0.061480
   3 H     1.0000    0     1.008   -0.034668   -3.805226    0.438930
   4 C     6.0000    0    12.011   -4.526125   -2.100552    0.071747
   5 C     6.0000    0    12.011    4.534699   -2.048146    0.107659
   6 H     1.0000    0     1.008   -4.664477   -3.377204   -1.540808
   7 H     1.0000    0     1.008   -6.136565   -0.828554    0.028983
   8 H     1.0000    0     1.008   -4.612863   -3.210631    1.805171
   9 H     1.0000    0     1.008    4.185432   -4.067635    0.247853
  10 H     1.0000    0     1.008    5.599949   -1.439063    1.765299
  11 H     1.0000    0     1.008    5.676386   -1.683779   -1.569450
  12 C     6.0000    0    12.011   -2.351320    2.071955   -0.406052
  13 C     6.0000    0    12.011    2.354041    2.039960   -0.458014
  14 C     6.0000    0    12.011    0.022268    3.313620    0.650300
  15 H     1.0000    0     1.008   -4.021220    2.787590    0.570048
  16 H     1.0000    0     1.008   -2.561400    2.481166   -2.424028
  17 H     1.0000    0     1.008    0.043775    3.119413    2.703372
  18 H     1.0000    0     1.008    0.028417    5.318495    0.194362
  19 H     1.0000    0     1.008    2.511115    2.427367   -2.484583
  20 H     1.0000    0     1.008    4.065341    2.735250    0.459535

--------------------------------
INTERNAL COORDINATES (ANGSTROEM)
--------------------------------
 N      0   0   0     0.000000000000     0.00000000     0.00000000
 C      1   0   0     1.310935343170     0.00000000     0.00000000
 N      2   1   0     1.309029085977   125.30207399     0.00000000
 H      2   1   3     1.083616801285   117.07521311   180.56190924
 C      1   2   3     1.449105318297   120.18455896   176.60469445
 C      3   2   1     1.442539358492   122.36684047   180.88527017
 H      5   1   2     1.090838866686   110.81652041   295.70228742
 H      5   1   2     1.086209442367   109.46927411   176.25337891
 H      5   1   2     1.090228180364   110.81030639    56.54193097
 H      6   3   2     1.087066991499   110.74854577     4.74559524
 H      6   3   2     1.091377181493   110.20701584   244.22639816
 H      6   3   2     1.090786474159   109.69990083   124.94764223
 C      1   2   3     1.452525029665   120.58806219   358.43633710
 C      3   2   1     1.452844144515   120.53158567     0.96192100
 C     14   3   2     1.523417814855   109.41003738    27.32490523
 H     13   1   2     1.091372308864   108.74453720   213.34409532
 H     13   1   2     1.095257860452   109.41029601    95.47834753
 H     15  14   3     1.091348322634   109.45980447    67.04215248
 H     15  14   3     1.088027902749   110.09695946   185.87475807
 H     14   3   2     1.094992727464   109.32709896   265.77523239
 H     14   3   2     1.091423614593   108.59794212   148.11759007

---------------------------
INTERNAL COORDINATES (A.U.)
---------------------------
 N      0   0   0     0.000000000000     0.00000000     0.00000000
 C      1   0   0     2.477308777869     0.00000000     0.00000000
 N      2   1   0     2.473706473833   125.30207399     0.00000000
 H      2   1   3     2.047738988544   117.07521311   180.56190924
 C      1   2   3     2.738412190790   120.18455896   176.60469445
 C      3   2   1     2.726004324953   122.36684047   180.88527017
 H      5   1   2     2.061386714274   110.81652041   295.70228742
 H      5   1   2     2.052638370154   109.46927411   176.25337891
 H      5   1   2     2.060232684372   110.81030639    56.54193097
 H      6   3   2     2.054258903159   110.74854577     4.74559524
 H      6   3   2     2.062403981833   110.20701584   244.22639816
 H      6   3   2     2.061287706746   109.69990083   124.94764223
 C      1   2   3     2.744874508733   120.58806219   358.43633710
 C      3   2   1     2.745477548404   120.53158567     0.96192100
 C     14   3   2     2.878842457612   109.41003738    27.32490523
 H     13   1   2     2.062394773898   108.74453720   213.34409532
 H     13   1   2     2.069737402278   109.41029601    95.47834753
 H     15  14   3     2.062349446493   109.45980447    67.04215248
 H     15  14   3     2.056074762261   110.09695946   185.87475807
 H     14   3   2     2.069236373543   109.32709896   265.77523239
 H     14   3   2     2.062491727676   108.59794212   148.11759007

---------------------
BASIS SET INFORMATION
---------------------
There are 3 groups of distinct atoms

 Group   1 Type N   : 7s4p1d contracted to 3s2p1d pattern {511/31/1}
 Group   2 Type C   : 7s4p1d contracted to 3s2p1d pattern {511/31/1}
 Group   3 Type H   : 4s1p contracted to 2s1p pattern {31/1}

Atom   0N    basis set group =>   1
Atom   1C    basis set group =>   2
Atom   2N    basis set group =>   1
Atom   3H    basis set group =>   3
Atom   4C    basis set group =>   2
Atom   5C    basis set group =>   2
Atom   6H    basis set group =>   3
Atom   7H    basis set group =>   3
Atom   8H    basis set group =>   3
Atom   9H    basis set group =>   3
Atom  10H    basis set group =>   3
Atom  11H    basis set group =>   3
Atom  12C    basis set group =>   2
Atom  13C    basis set group =>   2
Atom  14C    basis set group =>   2
Atom  15H    basis set group =>   3
Atom  16H    basis set group =>   3
Atom  17H    basis set group =>   3
Atom  18H    basis set group =>   3
Atom  19H    basis set group =>   3
Atom  20H    basis set group =>   3
---------------------------------
AUXILIARY/J BASIS SET INFORMATION
---------------------------------
There are 3 groups of distinct atoms

 Group   1 Type N   : 12s5p4d2f1g contracted to 6s4p3d1f1g pattern {711111/2111/211/2/1}
 Group   2 Type C   : 12s5p4d2f1g contracted to 6s4p3d1f1g pattern {711111/2111/211/2/1}
 Group   3 Type H   : 5s2p1d contracted to 3s1p1d pattern {311/2/1}

Atom   0N    basis set group =>   1
Atom   1C    basis set group =>   2
Atom   2N    basis set group =>   1
Atom   3H    basis set group =>   3
Atom   4C    basis set group =>   2
Atom   5C    basis set group =>   2
Atom   6H    basis set group =>   3
Atom   7H    basis set group =>   3
Atom   8H    basis set group =>   3
Atom   9H    basis set group =>   3
Atom  10H    basis set group =>   3
Atom  11H    basis set group =>   3
Atom  12C    basis set group =>   2
Atom  13C    basis set group =>   2
Atom  14C    basis set group =>   2
Atom  15H    basis set group =>   3
Atom  16H    basis set group =>   3
Atom  17H    basis set group =>   3
Atom  18H    basis set group =>   3
Atom  19H    basis set group =>   3
Atom  20H    basis set group =>   3
------------------------------------------------------------------------------
                           ORCA GTO INTEGRAL CALCULATION
                           -- RI-GTO INTEGRALS CHOSEN --
------------------------------------------------------------------------------
------------------------------------------------------------------------------
                   ___                                                        
                  /   \      - P O W E R E D   B Y -                         
                 /     \                                                     
                 |  |  |   _    _      __       _____    __    __             
                 |  |  |  | |  | |    /  \     |  _  \  |  |  /  |          
                  \  \/   | |  | |   /    \    | | | |  |  | /  /          
                 / \  \   | |__| |  /  /\  \   | |_| |  |  |/  /          
                |  |  |   |  __  | /  /__\  \  |    /   |      \           
                |  |  |   | |  | | |   __   |  |    \   |  |\   \          
                \     /   | |  | | |  |  |  |  | |\  \  |  | \   \       
                 \___/    |_|  |_| |__|  |__|  |_| \__\ |__|  \__/        
                                                                              
                      - O R C A' S   B I G   F R I E N D -                    
                                      &                                       
                       - I N T E G R A L  F E E D E R -                       
                                                                              
 v1 FN, 2020, v2 2021                                                         
------------------------------------------------------------------------------


Reading SHARK input file 10_prot_aq_2.SHARKINP.tmp ... ok
----------------------
SHARK INTEGRAL PACKAGE
----------------------

Number of atoms                             ...     21
Number of basis functions                   ...    177
Number of shells                            ...     87
Maximum angular momentum                    ...      2
Integral batch strategy                     ... SHARK/LIBINT Hybrid
RI-J (if used) integral strategy            ... SPLIT-RIJ (Revised 2003 algorithm where possible)
Printlevel                                  ...      1
Contraction scheme used                     ... SEGMENTED contraction
Coulomb Range Separation                    ... NOT USED
Exchange Range Separation                   ... Long Range
   Mu parameter                             ...  0.300000
   Scaling (regular/separated)              ...  0.157706  0.842294
Finite Nucleus Model                        ... NOT USED
Auxiliary Coulomb fitting basis             ... AVAILABLE
   # of basis functions in Aux-J            ...    535
   # of shells in Aux-J                     ...    185
   Maximum angular momentum in Aux-J        ...      4
Auxiliary J/K fitting basis                 ... NOT available
Auxiliary Correlation fitting basis         ... NOT available
Auxiliary 'external' fitting basis          ... NOT available
Integral threshold                          ...     2.500000e-11
Primitive cut-off                           ...     2.500000e-12
Primitive pair pre-selection threshold      ...     2.500000e-12

Calculating pre-screening integrals         ... done (  0.0 sec) Dimension = 87
Organizing shell pair data                  ... done (  0.0 sec)
Shell pair information
Total number of shell pairs                 ...      3828
Shell pairs after pre-screening             ...      3631
Total number of primitive shell pairs       ...     13184
Primitive shell pairs kept                  ...      9299
          la=0 lb=0:   1224 shell pairs
          la=1 lb=0:   1367 shell pairs
          la=1 lb=1:    401 shell pairs
          la=2 lb=0:    383 shell pairs
          la=2 lb=1:    220 shell pairs
          la=2 lb=2:     36 shell pairs

Calculating one electron integrals          ... done (  0.0 sec)
Calculating RI/J V-Matrix + Cholesky decomp.... done (  0.0 sec)
Calculating Nuclear repulsion               ... done (  0.0 sec) ENN=    411.252236983041 Eh

SHARK setup successfully completed in   0.3 seconds

Maximum memory used throughout the entire GTOINT-calculation: 24.1 MB
-------------------------------------------------------------------------------
                                 ORCA SCF
-------------------------------------------------------------------------------

------------
SCF SETTINGS
------------
Hamiltonian:
 Density Functional     Method          .... DFT(GTOs)
 Exchange Functional    Exchange        .... WB97X
 Correlation Functional Correlation     .... WB97X
 Gradients option       PostSCFGGA      .... off
 Hybrid DFT is turned on
   Fraction HF Exchange ScalHFX         ....  0.157706
   Scaling of DF-GGA-X  ScalDFX         ....  0.000000
   Scaling of DF-GGA-C  ScalDFC         ....  1.000000
   Scaling of DF-LDA-C  ScalLDAC        ....  1.000000
   Perturbative correction              ....  0.000000
   Density functional embedding theory  .... OFF
 Long-range corrected/Screened/Range-Separated Hybrid DFT is turned on
   Amount of maximum screened exact exchange              ....  0.842294
   Range separation parameter mu (erf(mu*r12)/r12)        ....  0.300000
 RI-approximation to the Coulomb term is turned on
   Number of AuxJ basis functions       .... 535
   RIJ-COSX (HFX calculated with COS-X)).... on


General Settings:
 Integral files         IntName         .... 10_prot_aq_2
 Hartree-Fock type      HFTyp           .... RHF
 Total Charge           Charge          ....    1
 Multiplicity           Mult            ....    1
 Number of Electrons    NEL             ....   62
 Basis Dimension        Dim             ....  177
 Nuclear Repulsion      ENuc            ....    411.2522369830 Eh

Convergence Acceleration:
 DIIS                   CNVDIIS         .... on
   Start iteration      DIISMaxIt       ....     0
   Startup error        DIISStart       ....  0.200000
   # of expansion vecs  DIISMaxEq       ....     5
   Bias factor          DIISBfac        ....   1.050
   Max. coefficient     DIISMaxC        ....  10.000
 Trust-Rad. Augm. Hess. CNVTRAH         .... auto
   Auto Start mean grad. ratio tolernc. ....  1.125000
   Auto Start start iteration           ....    20
   Auto Start num. interpolation iter.  ....    10
   Max. Number of Micro iterations      ....    16
   Max. Number of Macro iterations      .... Maxiter - #DIIS iter
   Number of Davidson start vectors     ....     2
   Converg. threshold I  (grad. norm)   ....   1.000e-05
   Converg. threshold II (energy diff.) ....   1.000e-08
   Grad. Scal. Fac. for Micro threshold ....   0.100
   Minimum threshold for Micro iter.    ....   0.010
   NR start threshold (gradient norm)   ....   0.001
   Initial trust radius                 ....   0.400
   Minimum AH scaling param. (alpha)    ....   1.000
   Maximum AH scaling param. (alpha)    .... 1000.000
   Orbital update algorithm             .... Taylor
   White noise on init. David. guess    .... on
   Maximum white noise                  ....   0.010
   Quad. conv. algorithm                .... NR
 SOSCF                  CNVSOSCF        .... on
   Start iteration      SOSCFMaxIt      ....   150
   Startup grad/error   SOSCFStart      ....  0.001000
 Level Shifting         CNVShift        .... on
   Level shift para.    LevelShift      ....    0.2500
   Turn off err/grad.   ShiftErr        ....    0.0000
 Zerner damping         CNVZerner       .... off
 Static damping         CNVDamp         .... on
   Fraction old density DampFac         ....    0.8500
   Max. Damping (<1)    DampMax         ....    0.9800
   Min. Damping (>=0)   DampMin         ....    0.0000
   Turn off err/grad.   DampErr         ....    0.0300
 Fernandez-Rico         CNVRico         .... off

SCF Procedure:
 Maximum # iterations   MaxIter         ....   125
 SCF integral mode      SCFMode         .... Direct
   Integral package                     .... SHARK and LIBINT hybrid scheme
 Reset frequency        DirectResetFreq ....    20
 Integral Threshold     Thresh          ....  2.500e-11 Eh
 Primitive CutOff       TCut            ....  2.500e-12 Eh

Convergence Tolerance:
 Convergence Check Mode ConvCheckMode   .... Total+1el-Energy
 Convergence forced     ConvForced      .... 0
 Energy Change          TolE            ....  1.000e-08 Eh
 1-El. energy change                    ....  1.000e-05 Eh
 Orbital Gradient       TolG            ....  1.000e-05
 Orbital Rotation angle TolX            ....  1.000e-05
 DIIS Error             TolErr          ....  5.000e-07


Diagonalization of the overlap matrix:
Smallest eigenvalue                        ... 2.087e-03
Time for diagonalization                   ...    0.006 sec
Threshold for overlap eigenvalues          ... 1.000e-08
Number of eigenvalues below threshold      ... 0
Time for construction of square roots      ...    0.003 sec
Total time needed                          ...    0.009 sec

Time for model grid setup =    0.277 sec

------------------------------
INITIAL GUESS: MODEL POTENTIAL
------------------------------
Loading Hartree-Fock densities                     ... done
Calculating cut-offs                               ... done
Initializing the effective Hamiltonian             ... done
Setting up the integral package (SHARK)            ... done
Starting the Coulomb interaction                   ... done (   0.2 sec)
Reading the grid                                   ... done
Mapping shells                                     ... done
Starting the XC term evaluation                    ... done (   0.4 sec)
  promolecular density results
     # of electrons  =     62.996173838
     EX              =    -47.711941955
     EC              =     -2.095207698
     EX+EC           =    -49.807149653
Transforming the Hamiltonian                       ... done (   0.0 sec)
Diagonalizing the Hamiltonian                      ... done (   0.0 sec)
Back transforming the eigenvectors                 ... done (   0.0 sec)
Now organizing SCF variables                       ... done
                      ------------------
                      INITIAL GUESS DONE (   0.9 sec)
                      ------------------
-------------------
DFT GRID GENERATION
-------------------

General Integration Accuracy     IntAcc      ... 4.388
Radial Grid Type                 RadialGrid  ... OptM3 with GC (2021)
Angular Grid (max. ang.)         AngularGrid ... 4 (Lebedev-302)
Angular grid pruning method      GridPruning ... 4 (adaptive)
Weight generation scheme         WeightScheme... Becke
Basis function cutoff            BFCut       ... 1.0000e-11
Integration weight cutoff        WCut        ... 1.0000e-14
Angular grids for H and He will be reduced by one unit
Partially contracted basis set               ... off
Rotationally invariant grid construction     ... off

Total number of grid points                  ...    89492
Total number of batches                      ...     1408
Average number of points per batch           ...       63
Average number of grid points per atom       ...     4262
Time for grid setup =    1.085 sec

--------------------
COSX GRID GENERATION
--------------------

GRIDX 1
-------
General Integration Accuracy     IntAcc      ... 3.816
Radial Grid Type                 RadialGrid  ... OptM3 with GC (2021)
Angular Grid (max. ang.)         AngularGrid ... 1 (Lebedev-50)
Angular grid pruning method      GridPruning ... 4 (adaptive)
Weight generation scheme         WeightScheme... Becke
Basis function cutoff            BFCut       ... 1.0000e-11
Integration weight cutoff        WCut        ... 1.0000e-14
Angular grids for H and He will be reduced by one unit
Partially contracted basis set               ... on
Rotationally invariant grid construction     ... off

Total number of grid points                  ...    11487
Total number of batches                      ...      191
Average number of points per batch           ...       60
Average number of grid points per atom       ...      547
UseSFitting                                  ... on

GRIDX 2
-------
General Integration Accuracy     IntAcc      ... 4.020
Radial Grid Type                 RadialGrid  ... OptM3 with GC (2021)
Angular Grid (max. ang.)         AngularGrid ... 2 (Lebedev-110)
Angular grid pruning method      GridPruning ... 4 (adaptive)
Weight generation scheme         WeightScheme... Becke
Basis function cutoff            BFCut       ... 1.0000e-11
Integration weight cutoff        WCut        ... 1.0000e-14
Angular grids for H and He will be reduced by one unit
Partially contracted basis set               ... on
Rotationally invariant grid construction     ... off

Total number of grid points                  ...    24004
Total number of batches                      ...      387
Average number of points per batch           ...       62
Average number of grid points per atom       ...     1143
UseSFitting                                  ... on

GRIDX 3
-------
General Integration Accuracy     IntAcc      ... 4.338
Radial Grid Type                 RadialGrid  ... OptM3 with GC (2021)
Angular Grid (max. ang.)         AngularGrid ... 3 (Lebedev-194)
Angular grid pruning method      GridPruning ... 4 (adaptive)
Weight generation scheme         WeightScheme... Becke
Basis function cutoff            BFCut       ... 1.0000e-11
Integration weight cutoff        WCut        ... 1.0000e-14
Angular grids for H and He will be reduced by one unit
Partially contracted basis set               ... on
Rotationally invariant grid construction     ... off

Total number of grid points                  ...    52436
Total number of batches                      ...      834
Average number of points per batch           ...       62
Average number of grid points per atom       ...     2497
UseSFitting                                  ... on

Time for X-Grid setup             =    1.393 sec


--------------------
CPCM SOLVATION MODEL
--------------------
CPCM parameters:
  Epsilon                                         ...      80.4000
  Refrac                                          ...       1.3300
  Rsolv                                           ...       1.3000
  Surface type                                    ... GAUSSIAN VDW
  Epsilon function type                           ...         CPCM
Radii:
 Radius for N  used is    3.5149 Bohr (=   1.8600 Ang.)
 Radius for C  used is    3.8550 Bohr (=   2.0400 Ang.)
 Radius for H  used is    2.4944 Bohr (=   1.3200 Ang.)
Calculating surface                               ...        done! (  0.0s)
GEPOL surface points                              ...         1133
GEPOL Volume                                      ...    1041.3451
GEPOL Surface-area                                ...     596.0379
Calculating surface distance matrix               ...        done! (  0.0s)
Performing Cholesky decomposition & store         ...        done! (  0.0s)
Overall time for CPCM initialization              ...                 0.1s
--------------
SCF ITERATIONS
--------------
ITER       Energy         Delta-E        Max-DP      RMS-DP      [F,P]     Damp
               ***  Starting incremental Fock matrix formation  ***
  0   -345.3898118513   0.000000000000 0.02763588  0.00065017  0.1119901 0.8500
  1   -345.4123754201  -0.022563568824 0.02507357  0.00060087  0.0911053 0.8500
                               ***Turning on DIIS***
  2   -345.4296384191  -0.017262998976 0.01981670  0.00048719  0.0708809 0.8500
  3   -345.4425978830  -0.012959463888 0.01286494  0.00034766  0.0545521 0.8500
  4   -345.4526816774  -0.010083794400 0.00888997  0.00026740  0.0437826 0.8500
  5   -345.4606711738  -0.007989496380 0.00689804  0.00022054  0.0363664 0.8500
  6   -345.4671926326  -0.006521458862 0.00568122  0.00018665  0.0306914 0.8500
  7   -345.4726064478  -0.005413815140 0.03273765  0.00107353  0.0260648 0.0000
                      *** Initiating the SOSCF procedure ***
                           *** Shutting down DIIS ***
                      *** Re-Reading the Fockian *** 
                      *** Removing any level shift *** 
ITER      Energy       Delta-E        Grad      Rot      Max-DP    RMS-DP
  8   -345.50165927  -0.0290528259  0.000599  0.000599  0.000985  0.000035
               *** Restarting incremental Fock matrix formation ***
  9   -345.50172622  -0.0000669512  0.000255  0.000499  0.000453  0.000021
 10   -345.50172813  -0.0000019073  0.000162  0.000496  0.000499  0.000013
 11   -345.50172842  -0.0000002846  0.000040  0.000088  0.000116  0.000004
 12   -345.50172850  -0.0000000836  0.000005  0.000009  0.000017  0.000000
 13   -345.50172851  -0.0000000056  0.000004  0.000009  0.000012  0.000000
                  ***Gradient check signals convergence***
              ***Rediagonalizing the Fockian in SOSCF/NRSCF***

               *****************************************************
               *                     SUCCESS                       *
               *           SCF CONVERGED AFTER  14 CYCLES          *
               *****************************************************

Old exchange energy                            =    -15.860766878 Eh
New exchange energy                            =    -15.860743504 Eh
Exchange energy change after final integration =      0.000023373 Eh
Total energy after final integration           =   -345.501705135 Eh
Final COS-X integration done in                =    30.005 sec

----------------
TOTAL SCF ENERGY
----------------

Total Energy       :         -345.50170513 Eh           -9401.57936 eV

Components:
Nuclear Repulsion  :          411.25223698 Eh           11190.74229 eV
Electronic Energy  :         -756.75394212 Eh          -20592.32166 eV
One Electron Energy:        -1267.94165540 Eh          -34502.44651 eV
Two Electron Energy:          511.18771328 Eh           13910.12486 eV
Max COSX asymmetry :            0.00000321 Eh               0.00009 eV
CPCM Dielectric    :           -0.08109227 Eh              -2.20663 eV

Virial components:
Potential Energy   :         -687.01694946 Eh          -18694.68161 eV
Kinetic Energy     :          341.51524432 Eh            9293.10225 eV
Virial Ratio       :            2.01167286


DFT components:
N(Alpha)           :       31.000033026793 electrons
N(Beta)            :       31.000033026793 electrons
N(Total)           :       62.000066053586 electrons
E(XC)              :      -35.082312147869 Eh       
DFET-embed. en.    :        0.000000000000 Eh       
CPCM Solvation Model Properties:
Surface-charge          :           -1.01585064
Charge-correction       :            0.00227481 Eh               0.06190 eV
Free-energy (cav+disp)  :  This term is not implemented in the current solvation scheme

---------------
SCF CONVERGENCE
---------------

  Last Energy change         ...   -2.1901e-09  Tolerance :   1.0000e-08
  Last MAX-Density change    ...    1.3323e-15  Tolerance :   1.0000e-07
  Last RMS-Density change    ...    3.0559e-17  Tolerance :   5.0000e-09
  Last Orbital Gradient      ...    1.1674e-06  Tolerance :   1.0000e-05
  Last Orbital Rotation      ...    1.4151e-06  Tolerance :   1.0000e-05

             **** THE GBW FILE WAS UPDATED (10_prot_aq_2.gbw) ****
             **** DENSITY 10_prot_aq_2.scfp WAS UPDATED ****
             **** ENERGY FILE WAS UPDATED (10_prot_aq_2.en.tmp) ****
             **** THE GBW FILE WAS UPDATED (10_prot_aq_2.gbw) ****
             **** DENSITY 10_prot_aq_2.scfp WAS UPDATED ****
----------------
ORBITAL ENERGIES
----------------

  NO   OCC          E(Eh)            E(eV) 
   0   2.0000     -14.483071      -394.1044 
   1   2.0000     -14.480227      -394.0270 
   2   2.0000     -10.395223      -282.8684 
   3   2.0000     -10.321120      -280.8520 
   4   2.0000     -10.320946      -280.8472 
   5   2.0000     -10.314754      -280.6787 
   6   2.0000     -10.313264      -280.6382 
   7   2.0000     -10.285900      -279.8936 
   8   2.0000      -1.168650       -31.8006 
   9   2.0000      -1.091685       -29.7063 
  10   2.0000      -0.947035       -25.7701 
  11   2.0000      -0.892066       -24.2744 
  12   2.0000      -0.857917       -23.3451 
  13   2.0000      -0.808013       -21.9871 
  14   2.0000      -0.792557       -21.5666 
  15   2.0000      -0.683850       -18.6085 
  16   2.0000      -0.663090       -18.0436 
  17   2.0000      -0.652498       -17.7554 
  18   2.0000      -0.626640       -17.0517 
  19   2.0000      -0.593804       -16.1582 
  20   2.0000      -0.582632       -15.8542 
  21   2.0000      -0.569942       -15.5089 
  22   2.0000      -0.563077       -15.3221 
  23   2.0000      -0.531306       -14.4576 
  24   2.0000      -0.527623       -14.3573 
  25   2.0000      -0.516898       -14.0655 
  26   2.0000      -0.494442       -13.4544 
  27   2.0000      -0.476442       -12.9646 
  28   2.0000      -0.463648       -12.6165 
  29   2.0000      -0.451307       -12.2807 
  30   2.0000      -0.356527        -9.7016 
  31   0.0000       0.059020         1.6060 
  32   0.0000       0.136181         3.7057 
  33   0.0000       0.165029         4.4907 
  34   0.0000       0.171888         4.6773 
  35   0.0000       0.186679         5.0798 
  36   0.0000       0.190250         5.1770 
  37   0.0000       0.199281         5.4227 
  38   0.0000       0.210229         5.7206 
  39   0.0000       0.222381         6.0513 
  40   0.0000       0.230512         6.2726 
  41   0.0000       0.234395         6.3782 
  42   0.0000       0.242658         6.6031 
  43   0.0000       0.245266         6.6740 
  44   0.0000       0.247400         6.7321 
  45   0.0000       0.253548         6.8994 
  46   0.0000       0.269313         7.3284 
  47   0.0000       0.306892         8.3510 
  48   0.0000       0.316711         8.6181 
  49   0.0000       0.323786         8.8107 
  50   0.0000       0.335700         9.1349 
  51   0.0000       0.375214        10.2101 
  52   0.0000       0.405034        11.0215 
  53   0.0000       0.479084        13.0365 
  54   0.0000       0.482957        13.1419 
  55   0.0000       0.507836        13.8189 
  56   0.0000       0.515844        14.0368 
  57   0.0000       0.537720        14.6321 
  58   0.0000       0.542950        14.7744 
  59   0.0000       0.569531        15.4977 
  60   0.0000       0.576467        15.6865 
  61   0.0000       0.622473        16.9383 
  62   0.0000       0.644929        17.5494 
  63   0.0000       0.653485        17.7822 
  64   0.0000       0.669912        18.2292 
  65   0.0000       0.684255        18.6195 
  66   0.0000       0.712044        19.3757 
  67   0.0000       0.717836        19.5333 
  68   0.0000       0.732492        19.9321 
  69   0.0000       0.739366        20.1192 
  70   0.0000       0.747040        20.3280 
  71   0.0000       0.751685        20.4544 
  72   0.0000       0.755502        20.5583 
  73   0.0000       0.764496        20.8030 
  74   0.0000       0.772676        21.0256 
  75   0.0000       0.780686        21.2435 
  76   0.0000       0.783180        21.3114 
  77   0.0000       0.786296        21.3962 
  78   0.0000       0.790419        21.5084 
  79   0.0000       0.797122        21.6908 
  80   0.0000       0.801363        21.8062 
  81   0.0000       0.809076        22.0161 
  82   0.0000       0.821814        22.3627 
  83   0.0000       0.824525        22.4365 
  84   0.0000       0.835903        22.7461 
  85   0.0000       0.919619        25.0241 
  86   0.0000       0.948764        25.8172 
  87   0.0000       0.979894        26.6643 
  88   0.0000       1.005354        27.3571 
  89   0.0000       1.059639        28.8342 
  90   0.0000       1.063626        28.9427 
  91   0.0000       1.116247        30.3746 
  92   0.0000       1.177940        32.0534 
  93   0.0000       1.211051        32.9544 
  94   0.0000       1.260511        34.3003 
  95   0.0000       1.278634        34.7934 
  96   0.0000       1.299157        35.3518 
  97   0.0000       1.325204        36.0606 
  98   0.0000       1.337080        36.3838 
  99   0.0000       1.382737        37.6262 
 100   0.0000       1.391173        37.8557 
 101   0.0000       1.399224        38.0748 
 102   0.0000       1.475633        40.1540 
 103   0.0000       1.505498        40.9667 
 104   0.0000       1.559831        42.4452 
 105   0.0000       1.589670        43.2571 
 106   0.0000       1.631434        44.3936 
 107   0.0000       1.636701        44.5369 
 108   0.0000       1.657635        45.1065 
 109   0.0000       1.672670        45.5157 
 110   0.0000       1.736020        47.2395 
 111   0.0000       1.759228        47.8710 
 112   0.0000       1.806762        49.1645 
 113   0.0000       1.824732        49.6535 
 114   0.0000       1.846251        50.2391 
 115   0.0000       1.854149        50.4540 
 116   0.0000       1.873265        50.9741 
 117   0.0000       1.882779        51.2330 
 118   0.0000       1.888686        51.3938 
 119   0.0000       1.901587        51.7448 
 120   0.0000       1.912523        52.0424 
 121   0.0000       1.923582        52.3433 
 122   0.0000       1.925612        52.3986 
 123   0.0000       1.936319        52.6899 
 124   0.0000       1.944908        52.9236 
 125   0.0000       1.958594        53.2961 
 126   0.0000       1.967082        53.5270 
 127   0.0000       1.991559        54.1931 
 128   0.0000       1.995348        54.2962 
 129   0.0000       2.007044        54.6144 
 130   0.0000       2.018227        54.9188 
 131   0.0000       2.050381        55.7937 
 132   0.0000       2.068652        56.2909 
 133   0.0000       2.110338        57.4252 
 134   0.0000       2.114868        57.5485 
 135   0.0000       2.142146        58.2908 
 136   0.0000       2.158181        58.7271 
 137   0.0000       2.179513        59.3076 
 138   0.0000       2.212540        60.2063 
 139   0.0000       2.266089        61.6634 
 140   0.0000       2.280761        62.0627 
 141   0.0000       2.290019        62.3146 
 142   0.0000       2.343266        63.7635 
 143   0.0000       2.366260        64.3892 
 144   0.0000       2.402063        65.3635 
 145   0.0000       2.425903        66.0122 
 146   0.0000       2.443876        66.5012 
 147   0.0000       2.516098        68.4665 
 148   0.0000       2.529243        68.8242 
 149   0.0000       2.532783        68.9205 
 150   0.0000       2.557383        69.5899 
 151   0.0000       2.593928        70.5844 
 152   0.0000       2.629546        71.5536 
 153   0.0000       2.680028        72.9273 
 154   0.0000       2.704259        73.5866 
 155   0.0000       2.723319        74.1053 
 156   0.0000       2.767291        75.3018 
 157   0.0000       2.776709        75.5581 
 158   0.0000       2.809456        76.4492 
 159   0.0000       2.820552        76.7511 
 160   0.0000       2.868206        78.0479 
 161   0.0000       2.887249        78.5660 
 162   0.0000       2.931192        79.7618 
 163   0.0000       2.980753        81.1104 
 164   0.0000       3.004261        81.7501 
 165   0.0000       3.025550        82.3294 
 166   0.0000       3.032692        82.5237 
 167   0.0000       3.042096        82.7796 
 168   0.0000       3.069893        83.5360 
 169   0.0000       3.088197        84.0341 
 170   0.0000       3.098896        84.3252 
 171   0.0000       3.120266        84.9068 
 172   0.0000       3.158212        85.9393 
 173   0.0000       3.195224        86.9465 
 174   0.0000       3.250584        88.4529 
 175   0.0000       3.442014        93.6620 
 176   0.0000       3.597088        97.8818 

                    ********************************
                    * MULLIKEN POPULATION ANALYSIS *
                    ********************************

-----------------------
MULLIKEN ATOMIC CHARGES
-----------------------
   0 N :   -0.320991
   1 C :    0.263119
   2 N :   -0.300408
   3 H :    0.113248
   4 C :    0.085826
   5 C :    0.089625
   6 H :    0.078044
   7 H :    0.076625
   8 H :    0.079971
   9 H :    0.078255
  10 H :    0.077702
  11 H :    0.074211
  12 C :    0.123965
  13 C :    0.122341
  14 C :   -0.091492
  15 H :    0.078551
  16 H :    0.076297
  17 H :    0.066921
  18 H :    0.074674
  19 H :    0.078281
  20 H :    0.075236
Sum of atomic charges:    1.0000000

--------------------------------
MULLIKEN REDUCED ORBITAL CHARGES
--------------------------------
  0 N s       :     3.407642  s :     3.407642
      pz      :     1.568632  p :     3.883680
      px      :     1.126085
      py      :     1.188962
      dz2     :     0.002556  d :     0.029670
      dxz     :     0.005010
      dyz     :     0.004138
      dx2y2   :     0.008528
      dxy     :     0.009438
  1 C s       :     3.071354  s :     3.071354
      pz      :     0.800711  p :     2.588667
      px      :     0.839920
      py      :     0.948036
      dz2     :     0.005026  d :     0.076860
      dxz     :     0.027971
      dyz     :     0.004465
      dx2y2   :     0.019932
      dxy     :     0.019466
  2 N s       :     3.400508  s :     3.400508
      pz      :     1.551913  p :     3.869790
      px      :     1.120539
      py      :     1.197338
      dz2     :     0.002585  d :     0.030111
      dxz     :     0.005715
      dyz     :     0.003846
      dx2y2   :     0.008747
      dxy     :     0.009218
  3 H s       :     0.864145  s :     0.864145
      pz      :     0.003249  p :     0.022606
      px      :     0.001236
      py      :     0.018121
  4 C s       :     3.003052  s :     3.003052
      pz      :     1.063743  p :     2.872639
      px      :     0.829811
      py      :     0.979085
      dz2     :     0.007160  d :     0.038483
      dxz     :     0.004799
      dyz     :     0.009107
      dx2y2   :     0.005313
      dxy     :     0.012104
  5 C s       :     3.002632  s :     3.002632
      pz      :     1.061043  p :     2.868693
      px      :     0.822534
      py      :     0.985116
      dz2     :     0.007041  d :     0.039049
      dxz     :     0.011641
      dyz     :     0.002675
      dx2y2   :     0.008269
      dxy     :     0.009424
  6 H s       :     0.898175  s :     0.898175
      pz      :     0.011853  p :     0.023781
      px      :     0.003197
      py      :     0.008732
  7 H s       :     0.899028  s :     0.899028
      pz      :     0.005215  p :     0.024347
      px      :     0.010946
      py      :     0.008186
  8 H s       :     0.896176  s :     0.896176
      pz      :     0.013050  p :     0.023853
      px      :     0.003156
      py      :     0.007647
  9 H s       :     0.897606  s :     0.897606
      pz      :     0.005113  p :     0.024139
      px      :     0.003091
      py      :     0.015934
 10 H s       :     0.898676  s :     0.898676
      pz      :     0.012361  p :     0.023622
      px      :     0.006288
      py      :     0.004973
 11 H s       :     0.902104  s :     0.902104
      pz      :     0.012448  p :     0.023685
      px      :     0.006805
      py      :     0.004433
 12 C s       :     2.991896  s :     2.991896
      pz      :     1.043380  p :     2.836246
      px      :     1.042014
      py      :     0.750853
      dz2     :     0.010955  d :     0.047893
      dxz     :     0.005924
      dyz     :     0.008932
      dx2y2   :     0.014998
      dxy     :     0.007084
 13 C s       :     2.994490  s :     2.994490
      pz      :     1.043249  p :     2.835576
      px      :     1.039105
      py      :     0.753222
      dz2     :     0.011181  d :     0.047593
      dxz     :     0.005687
      dyz     :     0.008677
      dx2y2   :     0.014998
      dxy     :     0.007049
 14 C s       :     3.057769  s :     3.057769
      pz      :     1.020811  p :     2.999721
      px      :     0.938434
      py      :     1.040476
      dz2     :     0.009971  d :     0.034002
      dxz     :     0.006675
      dyz     :     0.003186
      dx2y2   :     0.007962
      dxy     :     0.006206
 15 H s       :     0.898663  s :     0.898663
      pz      :     0.007157  p :     0.022786
      px      :     0.011647
      py      :     0.003983
 16 H s       :     0.901447  s :     0.901447
      pz      :     0.015502  p :     0.022255
      px      :     0.003960
      py      :     0.002793
 17 H s       :     0.910120  s :     0.910120
      pz      :     0.015504  p :     0.022959
      px      :     0.003379
      py      :     0.004077
 18 H s       :     0.901719  s :     0.901719
      pz      :     0.004880  p :     0.023607
      px      :     0.003630
      py      :     0.015097
 19 H s       :     0.899373  s :     0.899373
      pz      :     0.015626  p :     0.022346
      px      :     0.003976
      py      :     0.002744
 20 H s       :     0.901963  s :     0.901963
      pz      :     0.006851  p :     0.022800
      px      :     0.012019
      py      :     0.003931


                     *******************************
                     * LOEWDIN POPULATION ANALYSIS *
                     *******************************

----------------------
LOEWDIN ATOMIC CHARGES
----------------------
   0 N :    0.016064
   1 C :    0.178052
   2 N :    0.026138
   3 H :    0.066365
   4 C :    0.047733
   5 C :    0.050654
   6 H :    0.043018
   7 H :    0.047507
   8 H :    0.045066
   9 H :    0.046637
  10 H :    0.042312
  11 H :    0.043095
  12 C :    0.054592
  13 C :    0.055638
  14 C :   -0.036419
  15 H :    0.047288
  16 H :    0.041581
  17 H :    0.041276
  18 H :    0.052545
  19 H :    0.043274
  20 H :    0.047584

-------------------------------
LOEWDIN REDUCED ORBITAL CHARGES
-------------------------------
  0 N s       :     3.045988  s :     3.045988
      pz      :     1.495298  p :     3.870076
      px      :     1.177977
      py      :     1.196801
      dz2     :     0.004596  d :     0.067871
      dxz     :     0.008929
      dyz     :     0.007033
      dx2y2   :     0.022794
      dxy     :     0.024520
  1 C s       :     2.823815  s :     2.823815
      pz      :     0.827148  p :     2.816049
      px      :     0.956141
      py      :     1.032759
      dz2     :     0.011144  d :     0.182084
      dxz     :     0.057674
      dyz     :     0.007892
      dx2y2   :     0.055011
      dxy     :     0.050362
  2 N s       :     3.044127  s :     3.044127
      pz      :     1.480763  p :     3.860983
      px      :     1.178980
      py      :     1.201240
      dz2     :     0.004633  d :     0.068752
      dxz     :     0.009962
      dyz     :     0.006770
      dx2y2   :     0.023231
      dxy     :     0.024156
  3 H s       :     0.864476  s :     0.864476
      pz      :     0.010451  p :     0.069159
      px      :     0.007263
      py      :     0.051445
  4 C s       :     2.822749  s :     2.822749
      pz      :     1.095937  p :     3.033107
      px      :     0.909458
      py      :     1.027712
      dz2     :     0.017662  d :     0.096410
      dxz     :     0.010279
      dyz     :     0.025036
      dx2y2   :     0.012353
      dxy     :     0.031079
  5 C s       :     2.822057  s :     2.822057
      pz      :     1.092329  p :     3.028886
      px      :     0.906739
      py      :     1.029818
      dz2     :     0.017518  d :     0.098403
      dxz     :     0.031230
      dyz     :     0.005471
      dx2y2   :     0.021207
      dxy     :     0.022978
  6 H s       :     0.890017  s :     0.890017
      pz      :     0.032202  p :     0.066964
      px      :     0.010148
      py      :     0.024614
  7 H s       :     0.885016  s :     0.885016
      pz      :     0.013981  p :     0.067477
      px      :     0.030741
      py      :     0.022756
  8 H s       :     0.887823  s :     0.887823
      pz      :     0.035472  p :     0.067111
      px      :     0.009924
      py      :     0.021715
  9 H s       :     0.886058  s :     0.886058
      pz      :     0.013623  p :     0.067305
      px      :     0.009716
      py      :     0.043967
 10 H s       :     0.891248  s :     0.891248
      pz      :     0.033574  p :     0.066440
      px      :     0.018937
      py      :     0.013929
 11 H s       :     0.890393  s :     0.890393
      pz      :     0.033806  p :     0.066511
      px      :     0.020173
      py      :     0.012533
 12 C s       :     2.824935  s :     2.824935
      pz      :     1.082799  p :     3.005125
      px      :     1.062973
      py      :     0.859352
      dz2     :     0.026877  d :     0.115348
      dxz     :     0.014037
      dyz     :     0.021217
      dx2y2   :     0.035874
      dxy     :     0.017344
 13 C s       :     2.824661  s :     2.824661
      pz      :     1.081910  p :     3.005223
      px      :     1.062831
      py      :     0.860482
      dz2     :     0.027357  d :     0.114478
      dxz     :     0.013457
      dyz     :     0.020428
      dx2y2   :     0.035925
      dxy     :     0.017311
 14 C s       :     2.828813  s :     2.828813
      pz      :     1.061575  p :     3.121154
      px      :     1.003708
      py      :     1.055871
      dz2     :     0.025609  d :     0.086452
      dxz     :     0.015922
      dyz     :     0.007192
      dx2y2   :     0.021052
      dxy     :     0.016676
 15 H s       :     0.885495  s :     0.885495
      pz      :     0.020218  p :     0.067217
      px      :     0.033968
      py      :     0.013031
 16 H s       :     0.891276  s :     0.891276
      pz      :     0.042944  p :     0.067144
      px      :     0.013598
      py      :     0.010602
 17 H s       :     0.890187  s :     0.890187
      pz      :     0.042626  p :     0.068537
      px      :     0.012756
      py      :     0.013154
 18 H s       :     0.878898  s :     0.878898
      pz      :     0.014259  p :     0.068557
      px      :     0.012926
      py      :     0.041372
 19 H s       :     0.889447  s :     0.889447
      pz      :     0.043313  p :     0.067280
      px      :     0.013451
      py      :     0.010515
 20 H s       :     0.885130  s :     0.885130
      pz      :     0.019439  p :     0.067286
      px      :     0.034910
      py      :     0.012936


                      *****************************
                      * MAYER POPULATION ANALYSIS *
                      *****************************

  NA   - Mulliken gross atomic population
  ZA   - Total nuclear charge
  QA   - Mulliken gross atomic charge
  VA   - Mayer's total valence
  BVA  - Mayer's bonded valence
  FA   - Mayer's free valence

  ATOM       NA         ZA         QA         VA         BVA        FA
  0 N      7.3210     7.0000    -0.3210     3.3753     3.3753    -0.0000
  1 C      5.7369     6.0000     0.2631     3.9318     3.9318     0.0000
  2 N      7.3004     7.0000    -0.3004     3.3928     3.3928     0.0000
  3 H      0.8868     1.0000     0.1132     0.9987     0.9987     0.0000
  4 C      5.9142     6.0000     0.0858     3.8823     3.8823     0.0000
  5 C      5.9104     6.0000     0.0896     3.8887     3.8887    -0.0000
  6 H      0.9220     1.0000     0.0780     0.9908     0.9908    -0.0000
  7 H      0.9234     1.0000     0.0766     1.0009     1.0009     0.0000
  8 H      0.9200     1.0000     0.0800     0.9917     0.9917     0.0000
  9 H      0.9217     1.0000     0.0783     0.9976     0.9976    -0.0000
 10 H      0.9223     1.0000     0.0777     0.9910     0.9910     0.0000
 11 H      0.9258     1.0000     0.0742     0.9913     0.9913     0.0000
 12 C      5.8760     6.0000     0.1240     3.9305     3.9305    -0.0000
 13 C      5.8777     6.0000     0.1223     3.9289     3.9289     0.0000
 14 C      6.0915     6.0000    -0.0915     4.0882     4.0882     0.0000
 15 H      0.9214     1.0000     0.0786     0.9866     0.9866    -0.0000
 16 H      0.9237     1.0000     0.0763     0.9834     0.9834     0.0000
 17 H      0.9331     1.0000     0.0669     0.9792     0.9792    -0.0000
 18 H      0.9253     1.0000     0.0747     0.9852     0.9852    -0.0000
 19 H      0.9217     1.0000     0.0783     0.9850     0.9850     0.0000
 20 H      0.9248     1.0000     0.0752     0.9893     0.9893     0.0000

  Mayer bond orders larger than 0.100000
B(  0-N ,  1-C ) :   1.4216 B(  0-N ,  4-C ) :   0.9129 B(  0-N , 12-C ) :   0.9089 
B(  1-C ,  2-N ) :   1.4318 B(  1-C ,  3-H ) :   0.9626 B(  2-N ,  5-C ) :   0.9274 
B(  2-N , 13-C ) :   0.9049 B(  4-C ,  6-H ) :   0.9778 B(  4-C ,  7-H ) :   0.9732 
B(  4-C ,  8-H ) :   0.9767 B(  5-C ,  9-H ) :   0.9711 B(  5-C , 10-H ) :   0.9734 
B(  5-C , 11-H ) :   0.9717 B( 12-C , 14-C ) :   1.0699 B( 12-C , 15-H ) :   0.9509 
B( 12-C , 16-H ) :   0.9575 B( 13-C , 14-C ) :   1.0699 B( 13-C , 19-H ) :   0.9562 
B( 13-C , 20-H ) :   0.9508 B( 14-C , 17-H ) :   0.9495 B( 14-C , 18-H ) :   0.9453 


-------
TIMINGS
-------

Total SCF time: 0 days 0 hours 3 min 25 sec 

Total time                  ....     205.314 sec
Sum of individual times     ....     204.904 sec  ( 99.8%)

Fock matrix formation       ....     201.435 sec  ( 98.1%)
  Split-RI-J                ....       7.207 sec  (  3.6% of F)
  Chain of spheres X        ....     161.516 sec  ( 80.2% of F)
  XC integration            ....      20.863 sec  ( 10.4% of F)
    Basis function eval.    ....       7.418 sec  ( 35.6% of XC)
    Density eval.           ....       4.771 sec  ( 22.9% of XC)
    XC-Functional eval.     ....       3.102 sec  ( 14.9% of XC)
    XC-Potential eval.      ....       4.940 sec  ( 23.7% of XC)
Diagonalization             ....       0.054 sec  (  0.0%)
Density matrix formation    ....       0.008 sec  (  0.0%)
Population analysis         ....       0.008 sec  (  0.0%)
Initial guess               ....       0.596 sec  (  0.3%)
Orbital Transformation      ....       0.000 sec  (  0.0%)
Orbital Orthonormalization  ....       0.000 sec  (  0.0%)
DIIS solution               ....       0.022 sec  (  0.0%)
SOSCF solution              ....       0.025 sec  (  0.0%)
Grid generation             ....       2.756 sec  (  1.3%)

Maximum memory used throughout the entire SCF-calculation: 74.1 MB


-------------------------------------------------------------------------------
                          DFT DISPERSION CORRECTION                            
                                                                               
                                 DFTD4 V2.5                                    
-------------------------------------------------------------------------------
The WB97X functional is recognized
Active option DFTDOPT                   ...         5   

Starting D4
-------------------------   ----------------
Dispersion correction           -0.002469839
-------------------------   ----------------


-------------------------   --------------------
FINAL SINGLE POINT ENERGY      -345.504174973863
-------------------------   --------------------

------------------------------------------------------------------------------
                         ORCA SCF GRADIENT CALCULATION
------------------------------------------------------------------------------

 ... reading COSX grid (gridx3)
Gradient of the Kohn-Sham DFT energy:
Kohn-Sham wavefunction type      ... RKS
Hartree-Fock exchange scaling    ...    0.158
Number of operators              ...    1
Number of atoms                  ...   21
Basis set dimensions             ...  177
Integral neglect threshold       ... 2.5e-11
Integral primitive cutoff        ... 2.5e-12
SHARK Integral package           ... ON

Nuc. rep. gradient       (SHARK) ... done (  0.0 sec)
HCore & Overlap gradient (SHARK) ... done (  0.3 sec)
RI-J gradient            (SHARK) ... done (  1.7 sec)
COSX-gradient                    ... done ( 32.9 sec)
Exchange-correlation gradient    ... done
Dispersion correction            ... Starting D4


------------------- 
Dispersion Gradient 
------------------- 
   1  :   -0.000018449   -0.000003569   -0.000000572
   2  :   -0.000000428   -0.000011848    0.000001021
   3  :    0.000018110   -0.000003803   -0.000000828
   4  :   -0.000000410   -0.000004857    0.000000206
   5  :   -0.000041225   -0.000020830    0.000000702
   6  :    0.000041860   -0.000019281    0.000001106
   7  :   -0.000010065   -0.000004774   -0.000000107
   8  :   -0.000008834   -0.000005253   -0.000000097
   9  :   -0.000010346   -0.000004977    0.000000347
  10  :    0.000011140   -0.000005169    0.000000088
  11  :    0.000009077   -0.000005123    0.000000034
  12  :    0.000008969   -0.000004916    0.000000154
  13  :   -0.000018762    0.000020317   -0.000004050
  14  :    0.000019062    0.000019689   -0.000004317
  15  :    0.000000200    0.000028955    0.000005337
  16  :   -0.000004814    0.000002918    0.000000863
  17  :   -0.000003468    0.000002531   -0.000000307
  18  :    0.000000010    0.000005230    0.000000131
  19  :   -0.000000015    0.000009620    0.000000008
  20  :    0.000003400    0.000002534   -0.000000353
  21  :    0.000004988    0.000002607    0.000000635

  |G| =    0.000091781

done

------------------
CARTESIAN GRADIENT
------------------

   1   N   :   -0.000698548   -0.003536718   -0.001205152
   2   C   :    0.000884273    0.001764415    0.000767431
   3   N   :    0.000541895   -0.003508387   -0.000151207
   4   H   :   -0.000575084    0.008694251   -0.001359452
   5   C   :    0.000926837    0.006463028    0.000775470
   6   C   :   -0.003137516    0.002320536   -0.000568829
   7   H   :    0.000622843    0.003298734    0.005235014
   8   H   :    0.004347117   -0.005223363   -0.000118168
   9   H   :    0.000126731    0.002916842   -0.005697742
  10   H   :    0.002572068    0.006941543   -0.000172427
  11   H   :   -0.002627208   -0.002190727   -0.005192977
  12   H   :   -0.002825693   -0.001172621    0.005546116
  13   C   :   -0.008008470   -0.008341790   -0.003295704
  14   C   :    0.008192399   -0.007591236   -0.003634563
  15   C   :    0.000116394    0.008144879    0.008514412
  16   H   :    0.004760701   -0.000219129   -0.002132141
  17   H   :    0.001180044   -0.000971433    0.004995608
  18   H   :   -0.000111155   -0.000120938   -0.006973613
  19   H   :   -0.000041396   -0.006789330    0.001823397
  20   H   :   -0.001304523   -0.000462868    0.005226108
  21   H   :   -0.004876631   -0.000348679   -0.002302564

Difference to translation invariance:
           :    0.0000650771    0.0000670100    0.0000790176

Difference to rotation invariance:
           :   -0.0000420509    0.0003165147    0.0001653019

Norm of the cartesian gradient     ...    0.0325581439
RMS gradient                       ...    0.0041019406
MAX gradient                       ...    0.0086942505

-------
TIMINGS
-------

Total SCF gradient time            ...       44.059 sec

One electron gradient       ....       0.316 sec  (  0.7%)
RI-J Coulomb gradient       ....       1.653 sec  (  3.8%)
COSX gradient               ....      32.852 sec  ( 74.6%)
XC gradient                 ....       7.341 sec  ( 16.7%)
CPCM gradient               ....       0.684 sec  (  1.6%)
   A-Matrix (El+Nuc)        ....       0.064 sec  (  0.1%)
   Potential                ....       0.620 sec  (  1.4%)

Maximum memory used throughout the entire SCFGRAD-calculation: 59.9 MB
------------------------------------------------------------------------------
                         ORCA GEOMETRY RELAXATION STEP
------------------------------------------------------------------------------

Reading the OPT-File                    .... done
Getting information on internals        .... done
Copying old internal coords+grads       .... done
Making the new internal coordinates     .... (new redundants).... done
Validating the new internal coordinates .... (new redundants).... done
Calculating the B-matrix                .... done
Calculating the G,G- and P matrices     .... done
Transforming gradient to internals      .... done
Projecting the internal gradient        .... done
Number of atoms                         ....  21
Number of internal coordinates          .... 110
Current Energy                          ....  -345.504174974 Eh
Current gradient norm                   ....     0.032558144 Eh/bohr
Maximum allowed component of the step   ....  0.300
Current trust radius                    ....  0.300
Evaluating the initial hessian          ....  (Almloef) done
Projecting the Hessian                  .... done
Forming the augmented Hessian           .... done
Diagonalizing the augmented Hessian     .... done
Last element of RFO vector              ....  0.994001572
Lowest eigenvalues of augmented Hessian:
 -0.002567420  0.016581442  0.017313589  0.018173076  0.019145924
Length of the computed step             ....  0.110025771
The final length of the internal step   ....  0.110025771
Converting the step to cartesian space:
 Initial RMS(Int)=    0.0104905456
Transforming coordinates:
 Iter   0:  RMS(Cart)=    0.0199615991 RMS(Int)=    0.0104838058
 Iter   1:  RMS(Cart)=    0.0001076045 RMS(Int)=    0.0000791635
 Iter   2:  RMS(Cart)=    0.0000012008 RMS(Int)=    0.0000008467
 Iter   3:  RMS(Cart)=    0.0000000178 RMS(Int)=    0.0000000150
done
Storing new coordinates                 .... done

                                .--------------------.
          ----------------------|Geometry convergence|-------------------------
          Item                value                   Tolerance       Converged
          ---------------------------------------------------------------------
          RMS gradient        0.0029796531            0.0001000000      NO
          MAX gradient        0.0090376567            0.0003000000      NO
          RMS step            0.0104905456            0.0020000000      NO
          MAX step            0.0236825557            0.0040000000      NO
          ........................................................
          Max(Bonds)      0.0125      Max(Angles)    0.56
          Max(Dihed)        1.00      Max(Improp)    0.00
          ---------------------------------------------------------------------

The optimization has not yet converged - more geometry cycles are needed


    ---------------------------------------------------------------------------
                         Redundant Internal Coordinates
                            (Angstroem and degrees)

        Definition                    Value    dE/dq     Step     New-Value
    ----------------------------------------------------------------------------
     1. B(C   1,N   0)                1.3109 -0.005529  0.0039    1.3149   
     2. B(N   2,C   1)                1.3090 -0.005906  0.0042    1.3132   
     3. B(H   3,C   1)                1.0836 -0.008791  0.0125    1.0961   
     4. B(C   4,N   0)                1.4491 -0.009038  0.0106    1.4597   
     5. B(C   5,N   2)                1.4425 -0.008188  0.0093    1.4519   
     6. B(H   6,C   4)                1.0908 -0.006172  0.0090    1.0999   
     7. B(H   7,C   4)                1.0862 -0.006643  0.0096    1.0958   
     8. B(H   8,C   4)                1.0902 -0.006377  0.0093    1.0995   
     9. B(H   9,C   5)                1.0871 -0.007268  0.0105    1.0976   
    10. B(H  10,C   5)                1.0914 -0.006181  0.0091    1.1004   
    11. B(H  11,C   5)                1.0908 -0.006288  0.0092    1.1000   
    12. B(C  12,N   0)                1.4525 -0.008978  0.0106    1.4631   
    13. B(C  13,N   2)                1.4528 -0.007680  0.0091    1.4620   
    14. B(C  14,C  13)                1.5234  0.001225 -0.0017    1.5217   
    15. B(C  14,C  12)                1.5238  0.001196 -0.0018    1.5220   
    16. B(H  15,C  12)                1.0914 -0.004942  0.0072    1.0986   
[...]
     14       0.000075  -0.005476  -0.008309  -0.070881   0.058890   0.019957
     15       0.000189  -0.000524   0.000162   0.000599   0.000759  -0.000139
     16       0.000114   0.000276  -0.000017  -0.006893  -0.009138   0.002524
     17       0.000077   0.008196  -0.005056  -0.055652  -0.073694   0.020051
     18       0.000466   0.022727   0.033103   0.266809  -0.221603  -0.074297
     19      -0.000311  -0.005502  -0.008094  -0.068628   0.056984   0.019400
     20       0.001024   0.037443   0.054811   0.450323  -0.374044  -0.126054
     21       0.001173  -0.021529  -0.034251  -0.291149   0.242178   0.082140
     22      -0.001062   0.011740   0.018640   0.181314  -0.150781  -0.051418
     23      -0.001754   0.028255   0.044735   0.396296  -0.329549  -0.111961
     24      -0.000040   0.000116   0.000748  -0.000434   0.000364   0.000117
     25       0.000588  -0.002787  -0.007666   0.001886  -0.001730  -0.001181
     26      -0.000004   0.000344   0.000995  -0.006917   0.005807   0.002153
     27       0.000037   0.000632  -0.000754  -0.000994  -0.001318   0.000359
     28       0.000569   0.006811  -0.006452  -0.006064  -0.007873   0.001534
     29       0.000003  -0.000894   0.000858  -0.004398  -0.005894   0.001790
     30      -0.001069  -0.031266   0.020255   0.215542   0.285779  -0.077783
     31      -0.001049  -0.018076   0.011670   0.143147   0.189728  -0.051909
     32      -0.001749  -0.044401   0.028609   0.318717   0.422449  -0.115162
     33      -0.000519   0.035460  -0.020909  -0.221911  -0.293752   0.079124
     34      -0.000313   0.008312  -0.004955  -0.055106  -0.072928   0.019933
     35       0.001021  -0.053855   0.031925   0.344942   0.456653  -0.123618
     36       0.006188   0.031933   0.049668  -0.002388   0.003988   0.007588
     37      -0.004319  -0.011953  -0.018005   0.000861  -0.001440  -0.002434
     38      -0.000646  -0.037379  -0.056281   0.001935  -0.005583  -0.014018
     39      -0.006118   0.046864  -0.029917   0.001328   0.003974  -0.006704
     40      -0.004322   0.018290  -0.011289   0.000487   0.001519  -0.002324
     41      -0.001145   0.060129  -0.037067   0.000622   0.005925  -0.014155
     42      -0.001447  -0.000801  -0.000293   0.000383   0.000070   0.001191
     43       0.040174   0.003926  -0.018369   0.022207   0.002552   0.064375
     44       0.060039  -0.001261   0.006362  -0.019037  -0.002199  -0.058832
     45      -0.079251  -0.401251  -0.609877   0.026700  -0.051124  -0.103568
     46       0.037787   0.167063   0.253490  -0.009966   0.020173   0.042024
     47       0.044574   0.212959   0.323929  -0.014233   0.027436   0.056199
     48      -0.003332   0.024636   0.037509  -0.000678   0.004440   0.013476
     49       0.004048  -0.030436  -0.045116   0.000109  -0.003772  -0.012650
     50      -0.043069   0.230258   0.346910  -0.008582   0.037958   0.107892
     51       0.019431   0.002724   0.000852  -0.003282  -0.000121  -0.010302
     52      -0.000509  -0.000364   0.001601   0.002188   0.000257   0.007376
     53      -0.859806   0.001010  -0.011113   0.143525   0.016671   0.455205
     54      -0.002611   0.000201   0.001187  -0.001351  -0.000344  -0.003996
     55      -0.454863  -0.045273   0.212114  -0.261406  -0.030039  -0.761390
     56       0.158426   0.014485  -0.067850   0.085297   0.009806   0.249093
     57       0.004963   0.054741  -0.033984  -0.000404   0.006133  -0.018242
     58       0.003859   0.048266  -0.029221  -0.000796   0.003747  -0.012922
     59      -0.040466  -0.356722   0.219441   0.000490  -0.038049   0.106347
     60       0.077158  -0.601818   0.374524  -0.013271  -0.052244   0.097942
     61       0.038014  -0.258540   0.160621  -0.004835  -0.021115   0.041031
     62       0.048349  -0.357175   0.222440  -0.007864  -0.031299   0.059376
                 60         61         62    
      0      -0.000060  -0.000962   0.003044
      1      -0.000110  -0.000099  -0.002223
      2       0.000010  -0.000058   0.000415
      3      -0.000143   0.000148   0.000193
      4      -0.001280  -0.002731   0.089260
      5       0.000250   0.000521  -0.016467
      6       0.000919   0.000183  -0.003067
      7      -0.000124  -0.000082  -0.002255
      8      -0.000027   0.000003   0.000298
      9      -0.002666   0.002122  -0.001451
     10       0.014364   0.030472  -0.978527
     11      -0.002429  -0.004869   0.180652
     12       0.001744  -0.041913  -0.000888
     13      -0.003534   0.084421   0.002686
     14       0.000525  -0.012554  -0.000378
     15       0.042060   0.001725   0.000337
     16       0.084817   0.003453   0.001468
     17      -0.009841  -0.000406  -0.000117
     18      -0.006510   0.158059   0.002214
     19       0.001384  -0.033546  -0.001587
     20      -0.011640   0.281319   0.005673
     21      -0.007100   0.173866   0.002256
     22       0.004273  -0.104553  -0.003003
     23       0.010304  -0.251046  -0.004794
     24      -0.007320   0.176840   0.005753
     25       0.035650  -0.856537  -0.028508
     26      -0.004919   0.117583   0.004784
     27      -0.176742  -0.007260  -0.003747
     28      -0.856487  -0.035080  -0.015660
     29       0.110899   0.004510   0.002518
     30      -0.169030  -0.007071  -0.000219
     31      -0.108992  -0.004537  -0.001801
     32      -0.265134  -0.011030  -0.001970
     33      -0.164740  -0.006842  -0.000183
     34      -0.033618  -0.001384  -0.001109
     35       0.269752   0.011122   0.001947
     36      -0.000038  -0.000648   0.001364
     37       0.000034  -0.000192  -0.001280
     38       0.000046   0.001012   0.000196
     39       0.000559   0.000105  -0.001365
     40      -0.000221   0.000032  -0.001277
     41       0.001005   0.000126   0.000128
     42      -0.000001   0.000006  -0.000003
     43      -0.000000   0.000007  -0.000203
     44      -0.000085  -0.000097   0.000137
     45       0.000181   0.005979  -0.009841
     46      -0.000209  -0.004105   0.003734
     47      -0.000194  -0.003251   0.005000
     48      -0.000018  -0.000853  -0.000380
     49      -0.000065   0.000265   0.000868
     50      -0.000254  -0.007337  -0.005206
     51      -0.000084   0.000051   0.000033
     52       0.000049   0.000056  -0.000053
     53       0.000634   0.000698  -0.001589
     54      -0.000119   0.000105   0.000011
     55      -0.000492  -0.000597   0.003040
     56       0.000217   0.000251  -0.000618
     57       0.001167   0.000115   0.000619
     58       0.000307  -0.000050   0.000896
     59      -0.007185  -0.000788  -0.005128
     60      -0.005414  -0.000783   0.009558
     61      -0.003978  -0.000598   0.003752
     62      -0.003302  -0.000580   0.005449


-----------
IR SPECTRUM
-----------

 Mode   freq       eps      Int      T**2         TX        TY        TZ
       cm**-1   L/(mol*cm) km/mol    a.u.
----------------------------------------------------------------------------
  6:     94.37   0.000001    0.00  0.000002  ( 0.001371 -0.000068 -0.000571)
  7:    118.09   0.000292    1.48  0.000772  (-0.002801  0.006981  0.026744)
  8:    129.03   0.000053    0.27  0.000129  (-0.010267 -0.000885 -0.004739)
  9:    184.99   0.001202    6.08  0.002029  (-0.000156  0.011560  0.043530)
 10:    271.29   0.000033    0.17  0.000038  ( 0.000049  0.001695  0.005948)
 11:    293.54   0.000028    0.14  0.000030  (-0.005449  0.000241  0.000342)
 12:    314.08   0.000004    0.02  0.000004  (-0.000070  0.001688  0.001098)
 13:    421.84   0.000018    0.09  0.000013  ( 0.003659  0.000020 -0.000143)
 14:    456.94   0.006514   32.92  0.004449  (-0.001727  0.010643  0.065821)
 15:    477.21   0.001313    6.63  0.000859  (-0.029284 -0.000037 -0.001002)
 16:    530.92   0.001925    9.73  0.001132  ( 0.000788 -0.012679 -0.031147)
 17:    623.50   0.000033    0.16  0.000016  ( 0.000050  0.002370 -0.003266)
 18:    808.87   0.000221    1.11  0.000085  ( 0.000220 -0.005058 -0.007709)
 19:    882.08   0.000398    2.01  0.000141  (-0.011869  0.000055 -0.000142)
 20:    915.83   0.000045    0.23  0.000015  (-0.003893  0.000059 -0.000188)
 21:    940.64   0.000333    1.68  0.000110  ( 0.000309  0.001480 -0.010395)
 22:   1011.50   0.000508    2.57  0.000157  ( 0.000566  0.004882 -0.011518)
 23:   1044.51   0.005829   29.46  0.001741  (-0.000243 -0.037843  0.017586)
 24:   1071.48   0.000161    0.82  0.000047  (-0.006849  0.000266 -0.000244)
 25:   1121.80   0.001102    5.57  0.000307  ( 0.000741  0.014048 -0.010422)
 26:   1122.97   0.002744   13.87  0.000763  (-0.000722 -0.021908 -0.016798)
 27:   1133.38   0.005049   25.51  0.001390  (-0.037278  0.000407 -0.000477)
 28:   1135.66   0.000910    4.60  0.000250  ( 0.015794 -0.000767  0.000039)
 29:   1157.37   0.000296    1.50  0.000080  ( 0.000233  0.004231  0.007864)
 30:   1204.98   0.015774   79.72  0.004085  ( 0.063903  0.000154  0.001196)
 31:   1236.96   0.012676   64.06  0.003198  ( 0.056540  0.000062  0.001157)
 32:   1273.59   0.000836    4.22  0.000205  (-0.013958 -0.002780 -0.001494)
 33:   1280.63   0.007025   35.50  0.001712  (-0.001752  0.038920  0.013933)
 34:   1340.09   0.002392   12.09  0.000557  ( 0.000207  0.021439 -0.009867)
 35:   1352.49   0.010393   52.52  0.002398  ( 0.048952  0.000725  0.001096)
 36:   1404.75   0.004997   25.25  0.001110  (-0.033313 -0.000146 -0.000630)
 37:   1418.73   0.003754   18.97  0.000826  (-0.028708 -0.001089 -0.000608)
 38:   1427.01   0.006843   34.58  0.001497  ( 0.000818 -0.037263  0.010360)
 39:   1440.85   0.006555   33.13  0.001420  ( 0.002254  0.005117  0.037262)
 40:   1441.74   0.008383   42.37  0.001815  (-0.034509  0.002816  0.024815)
 41:   1443.56   0.010277   51.94  0.002222  ( 0.043303  0.003081  0.018357)
 42:   1447.39   0.001484    7.50  0.000320  (-0.001506  0.017021  0.005290)
 43:   1454.19   0.000054    0.27  0.000012  (-0.001845  0.002714 -0.000913)
 44:   1460.77   0.000081    0.41  0.000017  ( 0.004158 -0.000194 -0.000171)
 45:   1462.58   0.007009   35.42  0.001496  (-0.001371  0.038639  0.000825)
 46:   1472.24   0.000511    2.58  0.000108  (-0.000854  0.009894  0.003105)
 47:   1487.79   0.006180   31.23  0.001296  (-0.035989 -0.000912 -0.000494)
 48:   1587.45   0.009293   46.97  0.001827  (-0.000003  0.040699 -0.013058)
 49:   1798.08   0.192170  971.15  0.033352  ( 0.182587  0.000411  0.003709)
 50:   3079.18   0.012217   61.74  0.001238  (-0.035174  0.000622 -0.000699)
 51:   3080.24   0.001149    5.81  0.000116  ( 0.002421  0.010367 -0.001764)
 52:   3088.64   0.003887   19.64  0.000393  (-0.019808 -0.000020 -0.000593)
 53:   3091.39   0.004469   22.58  0.000451  ( 0.000554  0.011910 -0.017578)
 54:   3105.64   0.002747   13.88  0.000276  (-0.000349  0.006712  0.015193)
 55:   3168.23   0.000971    4.91  0.000096  ( 0.009159  0.001382  0.003134)
 56:   3169.47   0.002126   10.75  0.000209  ( 0.002303 -0.006512 -0.012714)
 57:   3183.09   0.003200   16.17  0.000314  ( 0.000311 -0.000672 -0.017696)
 58:   3183.21   0.000043    0.22  0.000004  ( 0.000084 -0.000012 -0.002057)
 59:   3184.50   0.000594    3.00  0.000058  ( 0.000171  0.005573 -0.005211)
 60:   3217.45   0.000530    2.68  0.000051  ( 0.005093  0.005027 -0.000497)
 61:   3217.85   0.000558    2.82  0.000054  (-0.004621  0.005662 -0.000855)
 62:   3243.61   0.000608    3.07  0.000058  (-0.000077 -0.007289  0.002311)

* The epsilon (eps) is given for a Dirac delta lineshape.
** The dipole moment derivative (T) already includes vibrational overlap.

The first frequency considered to be a vibration is 6
The total number of vibrations considered is 57


--------------------------
THERMOCHEMISTRY AT 298.15K
--------------------------

Temperature         ... 298.15 K
Pressure            ... 1.00 atm
Total Mass          ... 113.18 AMU

Throughout the following assumptions are being made:
  (1) The electronic state is orbitally nondegenerate
  (2) There are no thermally accessible electronically excited states
  (3) Hindered rotations indicated by low frequency modes are not
      treated as such but are treated as vibrations and this may
      cause some error
  (4) All equations used are the standard statistical mechanics
      equations for an ideal gas
  (5) All vibrations are strictly harmonic

freq.      94.37  E(vib)   ...       0.47 
freq.     118.09  E(vib)   ...       0.44 
freq.     129.03  E(vib)   ...       0.43 
freq.     184.99  E(vib)   ...       0.37 
freq.     271.29  E(vib)   ...       0.29 
freq.     293.54  E(vib)   ...       0.27 
freq.     314.08  E(vib)   ...       0.25 
freq.     421.84  E(vib)   ...       0.18 
freq.     456.94  E(vib)   ...       0.16 
freq.     477.21  E(vib)   ...       0.15 
freq.     530.92  E(vib)   ...       0.13 
freq.     623.50  E(vib)   ...       0.09 
freq.     808.87  E(vib)   ...       0.05 
freq.     882.08  E(vib)   ...       0.04 
freq.     915.83  E(vib)   ...       0.03 
freq.     940.64  E(vib)   ...       0.03 
freq.    1011.50  E(vib)   ...       0.02 
freq.    1044.51  E(vib)   ...       0.02 
freq.    1071.48  E(vib)   ...       0.02 
freq.    1121.80  E(vib)   ...       0.01 
freq.    1122.97  E(vib)   ...       0.01 
freq.    1133.38  E(vib)   ...       0.01 
freq.    1135.66  E(vib)   ...       0.01 
freq.    1157.37  E(vib)   ...       0.01 
freq.    1204.98  E(vib)   ...       0.01 
freq.    1236.96  E(vib)   ...       0.01 
freq.    1273.59  E(vib)   ...       0.01 
freq.    1280.63  E(vib)   ...       0.01 
freq.    1340.09  E(vib)   ...       0.01 
freq.    1352.49  E(vib)   ...       0.01 
freq.    1404.75  E(vib)   ...       0.00 
freq.    1418.73  E(vib)   ...       0.00 
freq.    1427.01  E(vib)   ...       0.00 
freq.    1440.85  E(vib)   ...       0.00 
freq.    1441.74  E(vib)   ...       0.00 
freq.    1443.56  E(vib)   ...       0.00 
freq.    1447.39  E(vib)   ...       0.00 
freq.    1454.19  E(vib)   ...       0.00 
freq.    1460.77  E(vib)   ...       0.00 
freq.    1462.58  E(vib)   ...       0.00 
freq.    1472.24  E(vib)   ...       0.00 
freq.    1487.79  E(vib)   ...       0.00 
freq.    1587.45  E(vib)   ...       0.00 
freq.    1798.08  E(vib)   ...       0.00 
freq.    3079.18  E(vib)   ...       0.00 
freq.    3080.24  E(vib)   ...       0.00 
freq.    3088.64  E(vib)   ...       0.00 
freq.    3091.39  E(vib)   ...       0.00 
freq.    3105.64  E(vib)   ...       0.00 
freq.    3168.23  E(vib)   ...       0.00 
freq.    3169.47  E(vib)   ...       0.00 
freq.    3183.09  E(vib)   ...       0.00 
freq.    3183.21  E(vib)   ...       0.00 
freq.    3184.50  E(vib)   ...       0.00 
freq.    3217.45  E(vib)   ...       0.00 
freq.    3217.85  E(vib)   ...       0.00 
freq.    3243.61  E(vib)   ...       0.00 

------------
INNER ENERGY
------------

The inner energy is: U= E(el) + E(ZPE) + E(vib) + E(rot) + E(trans)
    E(el)   - is the total energy from the electronic structure calculation
              = E(kin-el) + E(nuc-el) + E(el-el) + E(nuc-nuc)
    E(ZPE)  - the the zero temperature vibrational energy from the frequency calculation
    E(vib)  - the the finite temperature correction to E(ZPE) due to population
              of excited vibrational states
    E(rot)  - is the rotational thermal energy
    E(trans)- is the translational thermal energy

Summary of contributions to the inner energy U:
Electronic energy                ...   -345.50846385 Eh
Zero point energy                ...      0.19526240 Eh     122.53 kcal/mol
Thermal vibrational correction   ...      0.00572443 Eh       3.59 kcal/mol
Thermal rotational correction    ...      0.00141627 Eh       0.89 kcal/mol
Thermal translational correction ...      0.00141627 Eh       0.89 kcal/mol
-----------------------------------------------------------------------
Total thermal energy                   -345.30464448 Eh


Summary of corrections to the electronic energy:
(perhaps to be used in another calculation)
Total thermal correction                  0.00855697 Eh       5.37 kcal/mol
Non-thermal (ZPE) correction              0.19526240 Eh     122.53 kcal/mol
-----------------------------------------------------------------------
Total correction                          0.20381937 Eh     127.90 kcal/mol


--------
ENTHALPY
--------

The enthalpy is H = U + kB*T
                kB is Boltzmann's constant
Total free energy                 ...   -345.30464448 Eh 
Thermal Enthalpy correction       ...      0.00094421 Eh       0.59 kcal/mol
-----------------------------------------------------------------------
Total Enthalpy                    ...   -345.30370028 Eh


Note: Only C1 symmetry has been detected, increase convergence thresholds 
      if your molecule has a higher symmetry. Symmetry factor of 1.0 is   
      used for the rotational entropy correction. 
 

Note: Rotational entropy computed according to Herzberg 
Infrared and Raman Spectra, Chapter V,1, Van Nostrand Reinhold, 1945 
Point Group:  C1, Symmetry Number:   1  
Rotational constants in cm-1:     0.107454     0.059056     0.040175 

Vibrational entropy computed according to the QRRHO of S. Grimme
Chem.Eur.J. 2012 18 9955


-------
ENTROPY
-------

The entropy contributions are T*S = T*(S(el)+S(vib)+S(rot)+S(trans))
     S(el)   - electronic entropy
     S(vib)  - vibrational entropy
     S(rot)  - rotational entropy
     S(trans)- translational entropy
The entropies will be listed as multiplied by the temperature to get
units of energy

Electronic entropy                ...      0.00000000 Eh      0.00 kcal/mol
Vibrational entropy               ...      0.00977804 Eh      6.14 kcal/mol
Rotational entropy                ...      0.01341710 Eh      8.42 kcal/mol
Translational entropy             ...      0.01904664 Eh     11.95 kcal/mol
-----------------------------------------------------------------------
Final entropy term                ...      0.04224178 Eh     26.51 kcal/mol

In case the symmetry of your molecule has not been determined correctly
or in case you have a reason to use a different symmetry number we print 
out the resulting rotational entropy values for sn=1,12 :
 --------------------------------------------------------
|  sn= 1 | S(rot)=       0.01341710 Eh      8.42 kcal/mol|
|  sn= 2 | S(rot)=       0.01276265 Eh      8.01 kcal/mol|
|  sn= 3 | S(rot)=       0.01237982 Eh      7.77 kcal/mol|
|  sn= 4 | S(rot)=       0.01210819 Eh      7.60 kcal/mol|
|  sn= 5 | S(rot)=       0.01189750 Eh      7.47 kcal/mol|
|  sn= 6 | S(rot)=       0.01172536 Eh      7.36 kcal/mol|
|  sn= 7 | S(rot)=       0.01157981 Eh      7.27 kcal/mol|
|  sn= 8 | S(rot)=       0.01145374 Eh      7.19 kcal/mol|
|  sn= 9 | S(rot)=       0.01134253 Eh      7.12 kcal/mol|
|  sn=10 | S(rot)=       0.01124305 Eh      7.06 kcal/mol|
|  sn=11 | S(rot)=       0.01115306 Eh      7.00 kcal/mol|
|  sn=12 | S(rot)=       0.01107090 Eh      6.95 kcal/mol|
 --------------------------------------------------------


-------------------
GIBBS FREE ENERGY
-------------------

The Gibbs free energy is G = H - T*S

Total enthalpy                    ...   -345.30370028 Eh 
Total entropy correction          ...     -0.04224178 Eh    -26.51 kcal/mol
-----------------------------------------------------------------------
Final Gibbs free energy         ...   -345.34594206 Eh

For completeness - the Gibbs free energy minus the electronic energy
G-E(el)                           ...      0.16252180 Eh    101.98 kcal/mol


Timings for individual modules:

Sum of individual times         ...     4297.056 sec (=  71.618 min)
GTO integral calculation        ...        4.606 sec (=   0.077 min)   0.1 %
SCF iterations                  ...     2785.279 sec (=  46.421 min)  64.8 %
SCF Gradient evaluation         ...      771.313 sec (=  12.855 min)  17.9 %
Geometry relaxation             ...        0.931 sec (=   0.016 min)   0.0 %
Analytical frequency calculation...      734.927 sec (=  12.249 min)  17.1 %
                             ****ORCA TERMINATED NORMALLY****
TOTAL RUN TIME: 0 days 1 hours 11 minutes 39 seconds 213 msec
