
                                 *****************
                                 * O   R   C   A *
                                 *****************

                                            #,                                       
                                            ###                                      
                                            ####                                     
                                            #####                                    
                                            ######                                   
                                           ########,                                 
                                     ,,################,,,,,                         
                               ,,#################################,,                 
                          ,,##########################################,,             
                       ,#########################################, ''#####,          
                    ,#############################################,,   '####,        
                  ,##################################################,,,,####,       
                ,###########''''           ''''###############################       
              ,#####''   ,,,,##########,,,,          '''####'''          '####       
            ,##' ,,,,###########################,,,                        '##       
           ' ,,###''''                  '''############,,,                           
         ,,##''                                '''############,,,,        ,,,,,,###''
      ,#''                                            '''#######################'''  
     '                                                          ''''####''''         
             ,#######,   #######,   ,#######,      ##                                
            ,#'     '#,  ##    ##  ,#'     '#,    #''#        ######   ,####,        
            ##       ##  ##   ,#'  ##            #'  '#       #        #'  '#        
            ##       ##  #######   ##           ,######,      #####,   #    #        
            '#,     ,#'  ##    ##  '#,     ,#' ,#      #,         ##   #,  ,#        
             '#######'   ##     ##  '#######'  #'      '#     #####' # '####'        



                  #######################################################
                  #                        -***-                        #
                  #          Department of theory and spectroscopy      #
                  #    Directorship and core code : Frank Neese         #
                  #        Max Planck Institute fuer Kohlenforschung    #
                  #                Kaiser Wilhelm Platz 1               #
                  #                 D-45470 Muelheim/Ruhr               #
                  #                      Germany                        #
                  #                                                     #
                  #                  All rights reserved                #
                  #                        -***-                        #
                  #######################################################


                         Program Version 5.0.4 -  RELEASE  -


 With contributions from (in alphabetic order):
   Daniel Aravena         : Magnetic Suceptibility
   Michael Atanasov       : Ab Initio Ligand Field Theory (pilot matlab implementation)
   Alexander A. Auer      : GIAO ZORA, VPT2 properties, NMR spectrum
   Ute Becker             : Parallelization
   Giovanni Bistoni       : ED, misc. LED, open-shell LED, HFLD
   Martin Brehm           : Molecular dynamics
   Dmytro Bykov           : SCF Hessian
   Vijay G. Chilkuri      : MRCI spin determinant printing, contributions to CSF-ICE
   Dipayan Datta          : RHF DLPNO-CCSD density
   Achintya Kumar Dutta   : EOM-CC, STEOM-CC
   Dmitry Ganyushin       : Spin-Orbit,Spin-Spin,Magnetic field MRCI
   Miquel Garcia          : C-PCM and meta-GGA Hessian, CC/C-PCM, Gaussian charge scheme
   Yang Guo               : DLPNO-NEVPT2, F12-NEVPT2, CIM, IAO-localization
   Andreas Hansen         : Spin unrestricted coupled pair/coupled cluster methods
   Benjamin Helmich-Paris : MC-RPA, TRAH-SCF, COSX integrals
   Lee Huntington         : MR-EOM, pCC
   Robert Izsak           : Overlap fitted RIJCOSX, COSX-SCS-MP3, EOM
   Marcus Kettner         : VPT2
   Christian Kollmar      : KDIIS, OOCD, Brueckner-CCSD(T), CCSD density, CASPT2, CASPT2-K
   Simone Kossmann        : Meta GGA functionals, TD-DFT gradient, OOMP2, MP2 Hessian
   Martin Krupicka        : Initial AUTO-CI
   Lucas Lang             : DCDCAS
   Marvin Lechner         : AUTO-CI (C++ implementation), FIC-MRCC
   Dagmar Lenk            : GEPOL surface, SMD
   Dimitrios Liakos       : Extrapolation schemes; Compound Job, initial MDCI parallelization
   Dimitrios Manganas     : Further ROCIS development; embedding schemes
   Dimitrios Pantazis     : SARC Basis sets
   Anastasios Papadopoulos: AUTO-CI, single reference methods and gradients
   Taras Petrenko         : DFT Hessian,TD-DFT gradient, ASA, ECA, R-Raman, ABS, FL, XAS/XES, NRVS
   Peter Pinski           : DLPNO-MP2, DLPNO-MP2 Gradient
   Christoph Reimann      : Effective Core Potentials
   Marius Retegan         : Local ZFS, SOC
   Christoph Riplinger    : Optimizer, TS searches, QM/MM, DLPNO-CCSD(T), (RO)-DLPNO pert. Triples
   Tobias Risthaus        : Range-separated hybrids, TD-DFT gradient, RPA, STAB
   Michael Roemelt        : Original ROCIS implementation
   Masaaki Saitow         : Open-shell DLPNO-CCSD energy and density
   Barbara Sandhoefer     : DKH picture change effects
   Avijit Sen             : IP-ROCIS
   Kantharuban Sivalingam : CASSCF convergence, NEVPT2, FIC-MRCI
   Bernardo de Souza      : ESD, SOC TD-DFT
   Georgi Stoychev        : AutoAux, RI-MP2 NMR, DLPNO-MP2 response
   Willem Van den Heuvel  : Paramagnetic NMR
   Boris Wezisla          : Elementary symmetry handling
   Frank Wennmohs         : Technical directorship


 We gratefully acknowledge several colleagues who have allowed us to
 interface, adapt or use parts of their codes:
   Stefan Grimme, W. Hujo, H. Kruse, P. Pracht,  : VdW corrections, initial TS optimization,
                  C. Bannwarth, S. Ehlert          DFT functionals, gCP, sTDA/sTD-DF
   Ed Valeev, F. Pavosevic, A. Kumar             : LibInt (2-el integral package), F12 methods
   Garnet Chan, S. Sharma, J. Yang, R. Olivares  : DMRG
   Ulf Ekstrom                                   : XCFun DFT Library
   Mihaly Kallay                                 : mrcc  (arbitrary order and MRCC methods)
   Jiri Pittner, Ondrej Demel                    : Mk-CCSD
   Frank Weinhold                                : gennbo (NPA and NBO analysis)
   Christopher J. Cramer and Donald G. Truhlar   : smd solvation model
   Lars Goerigk                                  : TD-DFT with DH, B97 family of functionals
   V. Asgeirsson, H. Jonsson                     : NEB implementation
   FAccTs GmbH                                   : IRC, NEB, NEB-TS, DLPNO-Multilevel, CI-OPT
                                                   MM, QMMM, 2- and 3-layer-ONIOM, Crystal-QMMM,
                                                   LR-CPCM, SF, NACMEs, symmetry and pop. for TD-DFT,
                                                   nearIR, NL-DFT gradient (VV10), updates on ESD,
                                                   ML-optimized integration grids
   S Lehtola, MJT Oliveira, MAL Marques          : LibXC Library
   Liviu Ungur et al                             : ANISO software


 Your calculation uses the libint2 library for the computation of 2-el integrals
 For citations please refer to: http://libint.valeyev.net

 Your ORCA version has been built with support for libXC version: 5.1.0
 For citations please refer to: https://tddft.org/programs/libxc/

 This ORCA versions uses:
   CBLAS   interface :  Fast vector & matrix operations
   LAPACKE interface :  Fast linear algebra routines
   SCALAPACK package :  Parallel linear algebra routines
   Shared memory     :  Shared parallel matrices
   BLAS/LAPACK       :  OpenBLAS 0.3.15  USE64BITINT DYNAMIC_ARCH NO_AFFINITY SkylakeX SINGLE_THREADED
        Core in use  :  SkylakeX
   Copyright (c) 2011-2014, The OpenBLAS Project




***************************************
The coordinates will be read from file: 11_deprot_aq_1.xyz
***************************************


Your calculation utilizes the atom-pairwise dispersion correction
based on tight binding partial charges (D4)
Cite in your paper:
E.Caldeweyher, C.Bannwarth, S.Grimme, J.Chem.Phys., (2017), 147, 034112.
E.Caldeweyher, S.Ehlert, A.Hansen, H.Neugebauer, S.Grimme, J.Chem.Phys., (2018), in progress.
   

XCFun DFT library Copyright 2009-2010 Ulf Ekstrom and contributors.
See http://admol.org/xcfun for more information.
This is free software; see the source code for copying conditions.
There is ABSOLUTELY NO WARRANTY; not even for MERCHANTABILITY or FITNESS FOR A PARTICULAR PURPOSE.
For details see the documentation.
Scientific users of this library should cite U. Ekstrom, L. Visscher, R. Bast, A. J. Thorvaldsen and K. Ruud;
J.Chem.Theor.Comp. 2010, DOI: 10.1021/ct100117s
XCFun Version 0.99 

================================================================================

----- Orbital basis set information -----
Your calculation utilizes the basis: def2-SVP
   F. Weigend and R. Ahlrichs, Phys. Chem. Chem. Phys. 7, 3297 (2005).

----- AuxJ basis set information -----
Your calculation utilizes the auxiliary basis: def2/J
   F. Weigend, Phys. Chem. Chem. Phys. 8, 1057 (2006).

================================================================================
                                        WARNINGS
                       Please study these warnings very carefully!
================================================================================


WARNING: Geometry Optimization
  ===> : Switching off AutoStart
         For restart on a previous wavefunction, please use MOREAD

INFO   : the flag for use of the SHARK integral package has been found!

================================================================================
                                       INPUT FILE
================================================================================
NAME = 11_deprot_aq_1.inp
|  1> # ORCA 5.0.4 - /users/bwb16179/postgrad/2024_03/DFT_Crest_Conformers/Opt/deprot/11_deprot_aq_1.inp # write input file
|  2> # Basic Mode
|  3> #
|  4> ! Opt Freq wB97X Def2-SVP D4 SlowConv TightSCF Defgrid2 Def2/J RIJCOSX CPCM(Water)
|  5> 
|  6> 
|  7> 
|  8> %maxcore 4500
|  9> 
| 10> %geom
| 11> Maxiter 150
| 12> END
| 13> 
| 14> * xyzfile 0 1 11_deprot_aq_1.xyz
| 15> 
| 16>                          ****END OF INPUT****
================================================================================

                       *****************************
                       * Geometry Optimization Run *
                       *****************************

Geometry optimization settings:
Update method            Update   .... BFGS
Choice of coordinates    CoordSys .... Z-matrix Internals
Initial Hessian          InHess   .... Almoef's Model

Convergence Tolerances:
Energy Change            TolE     ....  5.0000e-06 Eh
Max. Gradient            TolMAXG  ....  3.0000e-04 Eh/bohr
RMS Gradient             TolRMSG  ....  1.0000e-04 Eh/bohr
Max. Displacement        TolMAXD  ....  4.0000e-03 bohr
RMS Displacement         TolRMSD  ....  2.0000e-03 bohr
Strict Convergence                ....  False
------------------------------------------------------------------------------
                        ORCA OPTIMIZATION COORDINATE SETUP
------------------------------------------------------------------------------

The optimization will be done in new redundant internal coordinates
Making redundant internal coordinates   ...  (new redundants) done
Evaluating the initial hessian          ...  (Almloef) done
Evaluating the coordinates              ...  done
Calculating the B-matrix                .... done
Calculating the G-matrix                .... done
Diagonalizing the G-matrix              .... done
Small eigenvalue found = 1.063e-02
Small eigenvalue found = 2.862e-02
The first mode is                       ....   26
The number of degrees of freedom        ....   51

    -----------------------------------------------------------------
                    Redundant Internal Coordinates


    -----------------------------------------------------------------
         Definition                    Initial Value    Approx d2E/dq
    -----------------------------------------------------------------
      1. B(C   1,N   0)                  1.3295         0.698802   
      2. B(N   2,C   1)                  1.3295         0.698829   
      3. B(C   3,N   0)                  1.4475         0.453121   
      4. B(C   4,N   2)                  1.4474         0.453136   
      5. B(H   5,C   3)                  1.0869         0.364238   
      6. B(H   6,C   3)                  1.0947         0.353899   
      7. B(H   7,C   3)                  1.0946         0.354053   
      8. B(H   8,C   4)                  1.0869         0.364191   
      9. B(H   9,C   4)                  1.0947         0.353886   
     10. B(H  10,C   4)                  1.0946         0.354005   
     11. B(C  11,N   0)                  1.4601         0.432483   
     12. B(H  12,C  11)                  1.0916         0.357997   
     13. B(H  13,C  11)                  1.0864         0.364925   
     14. B(H  14,C  11)                  1.0953         0.353128   
     15. B(C  15,N   2)                  1.4601         0.432480   
     16. B(H  16,C  15)                  1.0865         0.364786   
     17. B(H  17,C  15)                  1.0954         0.353013   
     18. B(H  18,C  15)                  1.0917         0.357899   
     19. A(C   1,N   0,C   3)          115.2798         0.413836   
     20. A(C   3,N   0,C  11)          112.1672         0.380406   
     21. A(C   1,N   0,C  11)          132.5199         0.410427   
     22. A(N   0,C   1,N   2)          123.4502         0.447304   
     23. A(C   1,N   2,C  15)          132.5185         0.410429   
     24. A(C   4,N   2,C  15)          112.1678         0.380408   
     25. A(C   1,N   2,C   4)          115.2804         0.413841   
     26. A(N   0,C   3,H   7)          110.6417         0.331873   
     27. A(H   5,C   3,H   6)          109.1646         0.290568   
     28. A(N   0,C   3,H   6)          110.8668         0.331849   
     29. A(H   6,C   3,H   7)          108.3557         0.289278   
     30. A(H   5,C   3,H   7)          109.1009         0.290588   
     31. A(N   0,C   3,H   5)          108.6811         0.333437   
     32. A(H   9,C   4,H  10)          108.3567         0.289271   
     33. A(H   8,C   4,H  10)          109.0976         0.290576   
     34. A(N   2,C   4,H  10)          110.6401         0.331867   
     35. A(H   8,C   4,H   9)          109.1686         0.290561   
     36. A(N   2,C   4,H   9)          110.8702         0.331849   
     37. A(N   2,C   4,H   8)          108.6776         0.333432   
     38. A(H  13,C  11,H  14)          109.6206         0.290555   
     39. A(H  12,C  11,H  14)          107.9551         0.289682   
     40. A(N   0,C  11,H  14)          111.7631         0.329182   
     41. A(H  12,C  11,H  13)          107.7969         0.291180   
     42. A(N   0,C  11,H  13)          110.9664         0.330974   
     43. A(N   0,C  11,H  12)          108.6040         0.329927   
     44. A(H  16,C  15,H  18)          107.8027         0.291150   
     45. A(N   2,C  15,H  18)          108.6016         0.329912   
     46. A(H  16,C  15,H  17)          109.6247         0.290522   
     47. A(N   2,C  15,H  17)          111.7592         0.329163   
     48. A(H  17,C  15,H  18)          107.9574         0.289655   
     49. A(N   2,C  15,H  16)          110.9611         0.330953   
     50. D(N   2,C   1,N   0,C  11)      4.2725         0.036557   
     51. D(N   2,C   1,N   0,C   3)   -173.4349         0.036557   
     52. D(C   4,N   2,C   1,N   0)   -173.4475         0.036560   
     53. D(C  15,N   2,C   1,N   0)      4.2493         0.036560   
     54. D(H   5,C   3,N   0,C  11)   -178.9396         0.017518   
     55. D(H   6,C   3,N   0,C   1)   -120.7477         0.017518   
     56. D(H   7,C   3,N   0,C  11)    -59.1710         0.017518   
     57. D(H   7,C   3,N   0,C   1)    119.0046         0.017518   
     58. D(H   5,C   3,N   0,C   1)     -0.7640         0.017518   
     59. D(H   6,C   3,N   0,C  11)     61.0767         0.017518   
     60. D(H   9,C   4,N   2,C  15)     61.1021         0.017519   
     61. D(H   9,C   4,N   2,C   1)   -120.7308         0.017519   
     62. D(H   8,C   4,N   2,C  15)   -178.9094         0.017519   
     63. D(H  10,C   4,N   2,C   1)    119.0191         0.017519   
     64. D(H   8,C   4,N   2,C   1)     -0.7423         0.017519   
     65. D(H  10,C   4,N   2,C  15)    -59.1481         0.017519   
     66. D(H  14,C  11,N   0,C   3)     88.7848         0.015947   
     67. D(H  14,C  11,N   0,C   1)    -88.9768         0.015947   
     68. D(H  13,C  11,N   0,C   3)   -148.5196         0.015947   
     69. D(H  13,C  11,N   0,C   1)     33.7188         0.015947   
     70. D(H  12,C  11,N   0,C   3)    -30.2025         0.015947   
     71. D(H  12,C  11,N   0,C   1)    152.0359         0.015947   
     72. D(H  18,C  15,N   2,C   4)    -30.1727         0.015947   
     73. D(H  18,C  15,N   2,C   1)    152.0760         0.015947   
     74. D(H  17,C  15,N   2,C   4)     88.8135         0.015947   
     75. D(H  17,C  15,N   2,C   1)    -88.9377         0.015947   
     76. D(H  16,C  15,N   2,C   4)   -148.4922         0.015947   
     77. D(H  16,C  15,N   2,C   1)     33.7566         0.015947   
    -----------------------------------------------------------------

Number of atoms                         .... 19
Number of degrees of freedom            .... 77

         *************************************************************
         *                GEOMETRY OPTIMIZATION CYCLE   1            *
         *************************************************************
---------------------------------
CARTESIAN COORDINATES (ANGSTROEM)
---------------------------------
  N     -1.170503   -0.101175   -0.029904
  C      0.000015   -0.730973   -0.000083
  N      1.170515   -0.101174    0.029924
  C     -2.334243   -0.953508    0.089919
  C      2.334275   -0.953468   -0.089863
  H     -2.003045   -1.985537    0.170872
  H     -2.983655   -0.852102   -0.785531
  H     -2.913719   -0.692336    0.981079
  H      2.003017   -1.985473   -0.171344
  H      2.983491   -0.852407    0.785784
  H      2.913977   -0.691994   -0.980833
  C     -1.529058    1.311448   -0.119060
  H     -2.505067    1.393257   -0.601027
  H     -0.812124    1.856904   -0.726265
  H     -1.601207    1.775367    0.870538
  C      1.529012    1.311467    0.119066
  H      0.812188    1.856777    0.726718
  H      1.600653    1.775469   -0.870628
  H      2.505317    1.393252    0.600606

----------------------------
CARTESIAN COORDINATES (A.U.)
----------------------------
  NO LB      ZA    FRAG     MASS         X           Y           Z
   0 N     7.0000    0    14.007   -2.211930   -0.191193   -0.056510
   1 C     6.0000    0    12.011    0.000028   -1.381338   -0.000157
   2 N     7.0000    0    14.007    2.211952   -0.191191    0.056549
   3 C     6.0000    0    12.011   -4.411079   -1.801868    0.169922
   4 C     6.0000    0    12.011    4.411141   -1.801793   -0.169816
   5 H     1.0000    0     1.008   -3.785207   -3.752121    0.322901
   6 H     1.0000    0     1.008   -5.638291   -1.610239   -1.484438
   7 H     1.0000    0     1.008   -5.506131   -1.308325    1.853971
   8 H     1.0000    0     1.008    3.785153   -3.752000   -0.323792
   9 H     1.0000    0     1.008    5.637981   -1.610817    1.484916
  10 H     1.0000    0     1.008    5.506619   -1.307679   -1.853506
  11 C     6.0000    0    12.011   -2.889501    2.478277   -0.224991
  12 H     1.0000    0     1.008   -4.733890    2.632875   -1.135777
  13 H     1.0000    0     1.008   -1.534691    3.509040   -1.372442
  14 H     1.0000    0     1.008   -3.025842    3.354957    1.645078
  15 C     6.0000    0    12.011    2.889414    2.478313    0.225001
  16 H     1.0000    0     1.008    1.534814    3.508799    1.373297
  17 H     1.0000    0     1.008    3.024796    3.355149   -1.645249
  18 H     1.0000    0     1.008    4.734363    2.632865    1.134980

--------------------------------
INTERNAL COORDINATES (ANGSTROEM)
--------------------------------
 N      0   0   0     0.000000000000     0.00000000     0.00000000
 C      1   0   0     1.329528472603     0.00000000     0.00000000
 N      2   1   0     1.329517851321   123.45019873     0.00000000
 C      1   2   3     1.447452459309   115.27982915   186.56506438
 C      3   2   1     1.447443356275   115.28040925   186.55247347
 H      4   1   2     1.086889779050   108.68114545   359.23601223
 H      4   1   2     1.094728476834   110.86678053   239.25230488
 H      4   1   2     1.094609852901   110.64168168   119.00462276
 H      5   3   2     1.086924897317   108.67764252   359.25772069
 H      5   3   2     1.094738094039   110.87023166   239.26923043
 H      5   3   2     1.094646806677   110.64005239   119.01905791
 C      1   2   3     1.460141712170   132.51991519     4.27250416
 H     12   1   2     1.091594200063   108.60401102   152.03589424
 H     12   1   2     1.086377200173   110.96644764    33.71884915
 H     12   1   2     1.095321721734   111.76314590   271.02319109
 C      3   2   1     1.460143551869   132.51845648     4.24932243
 H     16   3   2     1.086480612854   110.96105816    33.75660596
 H     16   3   2     1.095410643203   111.75918410   271.06229121
 H     16   3   2     1.091669139840   108.60160514   152.07604732

---------------------------
INTERNAL COORDINATES (A.U.)
---------------------------
 N      0   0   0     0.000000000000     0.00000000     0.00000000
 C      1   0   0     2.512444700470     0.00000000     0.00000000
 N      2   1   0     2.512424629156   123.45019873     0.00000000
 C      1   2   3     2.735288739965   115.27982915   186.56506438
 C      3   2   1     2.735271537724   115.28040925   186.55247347
 H      4   1   2     2.053924020163   108.68114545   359.23601223
 H      4   1   2     2.068737012221   110.86678053   239.25230488
 H      4   1   2     2.068512845475   110.64168168   119.00462276
 H      5   3   2     2.053990384069   108.67764252   359.25772069
 H      5   3   2     2.068755186104   110.87023166   239.26923043
 H      5   3   2     2.068582677991   110.64005239   119.01905791
 C      1   2   3     2.759267952716   132.51991519     4.27250416
 H     12   1   2     2.062814087495   108.60401102   152.03589424
 H     12   1   2     2.052955386464   110.96644764    33.71884915
 H     12   1   2     2.069858082613   111.76314590   271.02319109
 C      3   2   1     2.759271429243   132.51845648     4.24932243
 H     16   3   2     2.053150808108   110.96105816    33.75660596
 H     16   3   2     2.070026119836   111.75918410   271.06229121
 H     16   3   2     2.062955703150   108.60160514   152.07604732

---------------------
BASIS SET INFORMATION
---------------------
There are 3 groups of distinct atoms

 Group   1 Type N   : 7s4p1d contracted to 3s2p1d pattern {511/31/1}
 Group   2 Type C   : 7s4p1d contracted to 3s2p1d pattern {511/31/1}
 Group   3 Type H   : 4s1p contracted to 2s1p pattern {31/1}

Atom   0N    basis set group =>   1
Atom   1C    basis set group =>   2
Atom   2N    basis set group =>   1
Atom   3C    basis set group =>   2
Atom   4C    basis set group =>   2
Atom   5H    basis set group =>   3
Atom   6H    basis set group =>   3
Atom   7H    basis set group =>   3
Atom   8H    basis set group =>   3
Atom   9H    basis set group =>   3
Atom  10H    basis set group =>   3
Atom  11C    basis set group =>   2
Atom  12H    basis set group =>   3
Atom  13H    basis set group =>   3
Atom  14H    basis set group =>   3
Atom  15C    basis set group =>   2
Atom  16H    basis set group =>   3
Atom  17H    basis set group =>   3
Atom  18H    basis set group =>   3
---------------------------------
AUXILIARY/J BASIS SET INFORMATION
---------------------------------
There are 3 groups of distinct atoms

 Group   1 Type N   : 12s5p4d2f1g contracted to 6s4p3d1f1g pattern {711111/2111/211/2/1}
 Group   2 Type C   : 12s5p4d2f1g contracted to 6s4p3d1f1g pattern {711111/2111/211/2/1}
 Group   3 Type H   : 5s2p1d contracted to 3s1p1d pattern {311/2/1}

Atom   0N    basis set group =>   1
Atom   1C    basis set group =>   2
Atom   2N    basis set group =>   1
Atom   3C    basis set group =>   2
Atom   4C    basis set group =>   2
Atom   5H    basis set group =>   3
Atom   6H    basis set group =>   3
Atom   7H    basis set group =>   3
Atom   8H    basis set group =>   3
Atom   9H    basis set group =>   3
Atom  10H    basis set group =>   3
Atom  11C    basis set group =>   2
Atom  12H    basis set group =>   3
Atom  13H    basis set group =>   3
Atom  14H    basis set group =>   3
Atom  15C    basis set group =>   2
Atom  16H    basis set group =>   3
Atom  17H    basis set group =>   3
Atom  18H    basis set group =>   3
------------------------------------------------------------------------------
                           ORCA GTO INTEGRAL CALCULATION
                           -- RI-GTO INTEGRALS CHOSEN --
------------------------------------------------------------------------------
------------------------------------------------------------------------------
                   ___                                                        
                  /   \      - P O W E R E D   B Y -                         
                 /     \                                                     
                 |  |  |   _    _      __       _____    __    __             
                 |  |  |  | |  | |    /  \     |  _  \  |  |  /  |          
                  \  \/   | |  | |   /    \    | | | |  |  | /  /          
                 / \  \   | |__| |  /  /\  \   | |_| |  |  |/  /          
                |  |  |   |  __  | /  /__\  \  |    /   |      \           
                |  |  |   | |  | | |   __   |  |    \   |  |\   \          
                \     /   | |  | | |  |  |  |  | |\  \  |  | \   \       
                 \___/    |_|  |_| |__|  |__|  |_| \__\ |__|  \__/        
                                                                              
                      - O R C A' S   B I G   F R I E N D -                    
                                      &                                       
                       - I N T E G R A L  F E E D E R -                       
                                                                              
 v1 FN, 2020, v2 2021                                                         
------------------------------------------------------------------------------


Reading SHARK input file 11_deprot_aq_1.SHARKINP.tmp ... ok
----------------------
SHARK INTEGRAL PACKAGE
----------------------

Number of atoms                             ...     19
Number of basis functions                   ...    158
Number of shells                            ...     78
Maximum angular momentum                    ...      2
Integral batch strategy                     ... SHARK/LIBINT Hybrid
RI-J (if used) integral strategy            ... SPLIT-RIJ (Revised 2003 algorithm where possible)
Printlevel                                  ...      1
Contraction scheme used                     ... SEGMENTED contraction
Coulomb Range Separation                    ... NOT USED
Exchange Range Separation                   ... Long Range
   Mu parameter                             ...  0.300000
   Scaling (regular/separated)              ...  0.157706  0.842294
Finite Nucleus Model                        ... NOT USED
Auxiliary Coulomb fitting basis             ... AVAILABLE
   # of basis functions in Aux-J            ...    475
   # of shells in Aux-J                     ...    165
   Maximum angular momentum in Aux-J        ...      4
Auxiliary J/K fitting basis                 ... NOT available
Auxiliary Correlation fitting basis         ... NOT available
Auxiliary 'external' fitting basis          ... NOT available
Integral threshold                          ...     2.500000e-11
Primitive cut-off                           ...     2.500000e-12
Primitive pair pre-selection threshold      ...     2.500000e-12

Calculating pre-screening integrals         ... done (  0.0 sec) Dimension = 78
Organizing shell pair data                  ... done (  0.0 sec)
Shell pair information
Total number of shell pairs                 ...      3081
Shell pairs after pre-screening             ...      2903
Total number of primitive shell pairs       ...     10567
Primitive shell pairs kept                  ...      7426
          la=0 lb=0:    984 shell pairs
          la=1 lb=0:   1100 shell pairs
          la=1 lb=1:    320 shell pairs
          la=2 lb=0:    303 shell pairs
          la=2 lb=1:    168 shell pairs
          la=2 lb=2:     28 shell pairs

Calculating one electron integrals          ... done (  0.0 sec)
Calculating RI/J V-Matrix + Cholesky decomp.... done (  0.0 sec)
Calculating Nuclear repulsion               ... done (  0.0 sec) ENN=    321.067846505667 Eh

SHARK setup successfully completed in   0.2 seconds

Maximum memory used throughout the entire GTOINT-calculation: 19.6 MB
-------------------------------------------------------------------------------
                                 ORCA SCF
-------------------------------------------------------------------------------

------------
SCF SETTINGS
------------
Hamiltonian:
 Density Functional     Method          .... DFT(GTOs)
 Exchange Functional    Exchange        .... WB97X
 Correlation Functional Correlation     .... WB97X
 Gradients option       PostSCFGGA      .... off
 Hybrid DFT is turned on
   Fraction HF Exchange ScalHFX         ....  0.157706
   Scaling of DF-GGA-X  ScalDFX         ....  0.000000
   Scaling of DF-GGA-C  ScalDFC         ....  1.000000
   Scaling of DF-LDA-C  ScalLDAC        ....  1.000000
   Perturbative correction              ....  0.000000
   Density functional embedding theory  .... OFF
 Long-range corrected/Screened/Range-Separated Hybrid DFT is turned on
   Amount of maximum screened exact exchange              ....  0.842294
   Range separation parameter mu (erf(mu*r12)/r12)        ....  0.300000
 RI-approximation to the Coulomb term is turned on
   Number of AuxJ basis functions       .... 475
   RIJ-COSX (HFX calculated with COS-X)).... on


General Settings:
 Integral files         IntName         .... 11_deprot_aq_1
 Hartree-Fock type      HFTyp           .... RHF
 Total Charge           Charge          ....    0
 Multiplicity           Mult            ....    1
 Number of Electrons    NEL             ....   56
 Basis Dimension        Dim             ....  158
 Nuclear Repulsion      ENuc            ....    321.0678465057 Eh

Convergence Acceleration:
 DIIS                   CNVDIIS         .... on
   Start iteration      DIISMaxIt       ....     0
   Startup error        DIISStart       ....  0.200000
   # of expansion vecs  DIISMaxEq       ....     5
   Bias factor          DIISBfac        ....   1.050
   Max. coefficient     DIISMaxC        ....  10.000
 Trust-Rad. Augm. Hess. CNVTRAH         .... auto
   Auto Start mean grad. ratio tolernc. ....  1.125000
   Auto Start start iteration           ....    20
   Auto Start num. interpolation iter.  ....    10
   Max. Number of Micro iterations      ....    16
   Max. Number of Macro iterations      .... Maxiter - #DIIS iter
   Number of Davidson start vectors     ....     2
   Converg. threshold I  (grad. norm)   ....   1.000e-05
   Converg. threshold II (energy diff.) ....   1.000e-08
   Grad. Scal. Fac. for Micro threshold ....   0.100
   Minimum threshold for Micro iter.    ....   0.010
   NR start threshold (gradient norm)   ....   0.001
   Initial trust radius                 ....   0.400
   Minimum AH scaling param. (alpha)    ....   1.000
   Maximum AH scaling param. (alpha)    .... 1000.000
   Orbital update algorithm             .... Taylor
   White noise on init. David. guess    .... on
   Maximum white noise                  ....   0.010
   Quad. conv. algorithm                .... NR
 SOSCF                  CNVSOSCF        .... on
   Start iteration      SOSCFMaxIt      ....   150
   Startup grad/error   SOSCFStart      ....  0.001000
 Level Shifting         CNVShift        .... on
   Level shift para.    LevelShift      ....    0.2500
   Turn off err/grad.   ShiftErr        ....    0.0000
 Zerner damping         CNVZerner       .... off
 Static damping         CNVDamp         .... on
   Fraction old density DampFac         ....    0.8500
   Max. Damping (<1)    DampMax         ....    0.9800
   Min. Damping (>=0)   DampMin         ....    0.0000
   Turn off err/grad.   DampErr         ....    0.0300
 Fernandez-Rico         CNVRico         .... off

SCF Procedure:
 Maximum # iterations   MaxIter         ....   125
 SCF integral mode      SCFMode         .... Direct
   Integral package                     .... SHARK and LIBINT hybrid scheme
 Reset frequency        DirectResetFreq ....    20
 Integral Threshold     Thresh          ....  2.500e-11 Eh
 Primitive CutOff       TCut            ....  2.500e-12 Eh

Convergence Tolerance:
 Convergence Check Mode ConvCheckMode   .... Total+1el-Energy
 Convergence forced     ConvForced      .... 0
 Energy Change          TolE            ....  1.000e-08 Eh
 1-El. energy change                    ....  1.000e-05 Eh
 Orbital Gradient       TolG            ....  1.000e-05
 Orbital Rotation angle TolX            ....  1.000e-05
 DIIS Error             TolErr          ....  5.000e-07


Diagonalization of the overlap matrix:
Smallest eigenvalue                        ... 5.395e-03
Time for diagonalization                   ...    0.004 sec
Threshold for overlap eigenvalues          ... 1.000e-08
Number of eigenvalues below threshold      ... 0
Time for construction of square roots      ...    0.002 sec
Total time needed                          ...    0.006 sec

Time for model grid setup =    0.189 sec

------------------------------
INITIAL GUESS: MODEL POTENTIAL
------------------------------
Loading Hartree-Fock densities                     ... done
Calculating cut-offs                               ... done
Initializing the effective Hamiltonian             ... done
Setting up the integral package (SHARK)            ... done
Starting the Coulomb interaction                   ... done (   0.1 sec)
Reading the grid                                   ... done
Mapping shells                                     ... done
Starting the XC term evaluation                    ... done (   0.2 sec)
  promolecular density results
     # of electrons  =     55.990052094
     EX              =    -42.201099385
     EC              =     -1.833438307
     EX+EC           =    -44.034537692
Transforming the Hamiltonian                       ... done (   0.0 sec)
Diagonalizing the Hamiltonian                      ... done (   0.0 sec)
Back transforming the eigenvectors                 ... done (   0.0 sec)
Now organizing SCF variables                       ... done
                      ------------------
                      INITIAL GUESS DONE (   0.6 sec)
                      ------------------
-------------------
DFT GRID GENERATION
-------------------

General Integration Accuracy     IntAcc      ... 4.388
Radial Grid Type                 RadialGrid  ... OptM3 with GC (2021)
Angular Grid (max. ang.)         AngularGrid ... 4 (Lebedev-302)
Angular grid pruning method      GridPruning ... 4 (adaptive)
Weight generation scheme         WeightScheme... Becke
Basis function cutoff            BFCut       ... 1.0000e-11
Integration weight cutoff        WCut        ... 1.0000e-14
Angular grids for H and He will be reduced by one unit
Partially contracted basis set               ... off
Rotationally invariant grid construction     ... off

Total number of grid points                  ...    80653
Total number of batches                      ...     1267
Average number of points per batch           ...       63
Average number of grid points per atom       ...     4245
Time for grid setup =    0.867 sec

--------------------
COSX GRID GENERATION
--------------------

GRIDX 1
-------
General Integration Accuracy     IntAcc      ... 3.816
Radial Grid Type                 RadialGrid  ... OptM3 with GC (2021)
Angular Grid (max. ang.)         AngularGrid ... 1 (Lebedev-50)
Angular grid pruning method      GridPruning ... 4 (adaptive)
Weight generation scheme         WeightScheme... Becke
Basis function cutoff            BFCut       ... 1.0000e-11
Integration weight cutoff        WCut        ... 1.0000e-14
Angular grids for H and He will be reduced by one unit
Partially contracted basis set               ... on
Rotationally invariant grid construction     ... off

Total number of grid points                  ...    10384
Total number of batches                      ...      172
Average number of points per batch           ...       60
Average number of grid points per atom       ...      547
UseSFitting                                  ... on

GRIDX 2
-------
General Integration Accuracy     IntAcc      ... 4.020
Radial Grid Type                 RadialGrid  ... OptM3 with GC (2021)
Angular Grid (max. ang.)         AngularGrid ... 2 (Lebedev-110)
Angular grid pruning method      GridPruning ... 4 (adaptive)
Weight generation scheme         WeightScheme... Becke
Basis function cutoff            BFCut       ... 1.0000e-11
Integration weight cutoff        WCut        ... 1.0000e-14
Angular grids for H and He will be reduced by one unit
Partially contracted basis set               ... on
Rotationally invariant grid construction     ... off

Total number of grid points                  ...    21684
Total number of batches                      ...      349
Average number of points per batch           ...       62
Average number of grid points per atom       ...     1141
UseSFitting                                  ... on

GRIDX 3
-------
General Integration Accuracy     IntAcc      ... 4.338
Radial Grid Type                 RadialGrid  ... OptM3 with GC (2021)
Angular Grid (max. ang.)         AngularGrid ... 3 (Lebedev-194)
Angular grid pruning method      GridPruning ... 4 (adaptive)
Weight generation scheme         WeightScheme... Becke
Basis function cutoff            BFCut       ... 1.0000e-11
Integration weight cutoff        WCut        ... 1.0000e-14
Angular grids for H and He will be reduced by one unit
Partially contracted basis set               ... on
Rotationally invariant grid construction     ... off

Total number of grid points                  ...    47357
Total number of batches                      ...      754
Average number of points per batch           ...       62
Average number of grid points per atom       ...     2492
UseSFitting                                  ... on

Time for X-Grid setup             =    1.098 sec


--------------------
CPCM SOLVATION MODEL
--------------------
CPCM parameters:
  Epsilon                                         ...      80.4000
  Refrac                                          ...       1.3300
  Rsolv                                           ...       1.3000
  Surface type                                    ... GAUSSIAN VDW
  Epsilon function type                           ...         CPCM
Radii:
 Radius for N  used is    3.5149 Bohr (=   1.8600 Ang.)
 Radius for C  used is    3.8550 Bohr (=   2.0400 Ang.)
 Radius for H  used is    2.4944 Bohr (=   1.3200 Ang.)
Calculating surface                               ...        done! (  0.0s)
GEPOL surface points                              ...         1049
GEPOL Volume                                      ...     996.4462
GEPOL Surface-area                                ...     582.6182
Calculating surface distance matrix               ...        done! (  0.0s)
Performing Cholesky decomposition & store         ...        done! (  0.0s)
Overall time for CPCM initialization              ...                 0.0s
--------------
SCF ITERATIONS
--------------
ITER       Energy         Delta-E        Max-DP      RMS-DP      [F,P]     Damp
               ***  Starting incremental Fock matrix formation  ***
  0   -306.7282887030   0.000000000000 0.04092547  0.00087603  0.1328665 0.8500
  1   -306.7603055320  -0.032016828958 0.04430285  0.00085804  0.1083494 0.8500
                               ***Turning on DIIS***
  2   -306.7850261180  -0.024720585982 0.03876906  0.00071269  0.0844636 0.8500
  3   -306.8036237753  -0.018597657301 0.03051629  0.00051023  0.0651139 0.8500
  4   -306.8180815796  -0.014457804319 0.02447370  0.00038698  0.0523156 0.8500
  5   -306.8295271375  -0.011445557892 0.02032678  0.00031511  0.0434600 0.8500
  6   -306.8388525288  -0.009325391343 0.01722963  0.00026535  0.0366611 0.8500
  7   -306.8465788043  -0.007726275525 0.01486171  0.00022913  0.0311162 0.8500
  8   -306.8530449848  -0.006466180459 0.08585916  0.00131971  0.0263722 0.0000
  9   -306.8879502576  -0.034905272789 0.00125695  0.00005380  0.0014026 0.0000
                      *** Initiating the SOSCF procedure ***
                           *** Shutting down DIIS ***
                      *** Re-Reading the Fockian *** 
                      *** Removing any level shift *** 
ITER      Energy       Delta-E        Grad      Rot      Max-DP    RMS-DP
 10   -306.88796700  -0.0000167464  0.000289  0.000289  0.000762  0.000028
               *** Restarting incremental Fock matrix formation ***
 11   -306.88792150   0.0000455079  0.000301  0.000548  0.001337  0.000022
 12   -306.88792239  -0.0000008983  0.000073  0.000202  0.000536  0.000014
 13   -306.88792260  -0.0000002067  0.000031  0.000038  0.000206  0.000004
 14   -306.88792262  -0.0000000222  0.000003  0.000004  0.000014  0.000000
                  ***Gradient check signals convergence***
              ***Rediagonalizing the Fockian in SOSCF/NRSCF***

               *****************************************************
               *                     SUCCESS                       *
               *           SCF CONVERGED AFTER  15 CYCLES          *
               *****************************************************

Old exchange energy                            =    -14.204228337 Eh
New exchange energy                            =    -14.204184764 Eh
Exchange energy change after final integration =      0.000043574 Eh
Total energy after final integration           =   -306.887879053 Eh
Final COS-X integration done in                =    21.888 sec

----------------
TOTAL SCF ENERGY
----------------

Total Energy       :         -306.88787905 Eh           -8350.84374 eV

Components:
Nuclear Repulsion  :          321.06784651 Eh            8736.70027 eV
Electronic Energy  :         -627.95572556 Eh          -17087.54401 eV
One Electron Energy:        -1049.36098409 Eh          -28554.56406 eV
Two Electron Energy:          421.40525853 Eh           11467.02006 eV
Max COSX asymmetry :            0.00000254 Eh               0.00007 eV
CPCM Dielectric    :           -0.01330528 Eh              -0.36206 eV

Virial components:
Potential Energy   :         -610.31185859 Eh          -16607.42998 eV
Kinetic Energy     :          303.42397954 Eh            8256.58624 eV
Virial Ratio       :            2.01141604


DFT components:
N(Alpha)           :       27.999929892310 electrons
N(Beta)            :       27.999929892310 electrons
N(Total)           :       55.999859784620 electrons
E(XC)              :      -31.139350530222 Eh       
DFET-embed. en.    :        0.000000000000 Eh       
CPCM Solvation Model Properties:
Surface-charge          :           -0.02259271
Charge-correction       :           -0.00052936 Eh              -0.01440 eV
Free-energy (cav+disp)  :  This term is not implemented in the current solvation scheme

---------------
SCF CONVERGENCE
---------------

  Last Energy change         ...   -3.3411e-09  Tolerance :   1.0000e-08
  Last MAX-Density change    ...    3.1086e-15  Tolerance :   1.0000e-07
  Last RMS-Density change    ...    4.3472e-17  Tolerance :   5.0000e-09
  Last Orbital Gradient      ...    1.7571e-06  Tolerance :   1.0000e-05
  Last Orbital Rotation      ...    1.1468e-06  Tolerance :   1.0000e-05

             **** THE GBW FILE WAS UPDATED (11_deprot_aq_1.gbw) ****
             **** DENSITY 11_deprot_aq_1.scfp WAS UPDATED ****
             **** ENERGY FILE WAS UPDATED (11_deprot_aq_1.en.tmp) ****
             **** THE GBW FILE WAS UPDATED (11_deprot_aq_1.gbw) ****
             **** DENSITY 11_deprot_aq_1.scfp WAS UPDATED ****
----------------
ORBITAL ENERGIES
----------------

  NO   OCC          E(Eh)            E(eV) 
   0   2.0000     -14.421490      -392.4287 
   1   2.0000     -14.421481      -392.4284 
   2   2.0000     -10.289920      -280.0030 
   3   2.0000     -10.289882      -280.0019 
   4   2.0000     -10.281178      -279.7651 
   5   2.0000     -10.281148      -279.7643 
   6   2.0000     -10.271239      -279.4946 
   7   2.0000      -1.085258       -29.5314 
   8   2.0000      -1.033900       -28.1339 
   9   2.0000      -0.844418       -22.9778 
  10   2.0000      -0.833104       -22.6699 
  11   2.0000      -0.824315       -22.4308 
  12   2.0000      -0.754844       -20.5403 
  13   2.0000      -0.655224       -17.8296 
  14   2.0000      -0.609900       -16.5962 
  15   2.0000      -0.585602       -15.9350 
  16   2.0000      -0.581658       -15.8277 
  17   2.0000      -0.560378       -15.2487 
  18   2.0000      -0.540520       -14.7083 
  19   2.0000      -0.526913       -14.3380 
  20   2.0000      -0.502676       -13.6785 
  21   2.0000      -0.494680       -13.4609 
  22   2.0000      -0.482142       -13.1198 
  23   2.0000      -0.476559       -12.9678 
  24   2.0000      -0.455091       -12.3836 
  25   2.0000      -0.413587       -11.2543 
  26   2.0000      -0.314672        -8.5627 
  27   2.0000      -0.283281        -7.7085 
  28   0.0000       0.134958         3.6724 
  29   0.0000       0.151459         4.1214 
  30   0.0000       0.173684         4.7262 
  31   0.0000       0.201055         5.4710 
  32   0.0000       0.207985         5.6595 
  33   0.0000       0.215055         5.8519 
  34   0.0000       0.222274         6.0484 
  35   0.0000       0.238364         6.4862 
  36   0.0000       0.241680         6.5764 
  37   0.0000       0.242746         6.6055 
  38   0.0000       0.251716         6.8495 
  39   0.0000       0.262184         7.1344 
  40   0.0000       0.264193         7.1891 
  41   0.0000       0.270672         7.3653 
  42   0.0000       0.292471         7.9585 
  43   0.0000       0.321551         8.7499 
  44   0.0000       0.342441         9.3183 
  45   0.0000       0.403967        10.9925 
  46   0.0000       0.478432        13.0188 
  47   0.0000       0.498009        13.5515 
  48   0.0000       0.500139        13.6095 
  49   0.0000       0.549783        14.9604 
  50   0.0000       0.557528        15.1711 
  51   0.0000       0.571664        15.5558 
  52   0.0000       0.582157        15.8413 
  53   0.0000       0.608354        16.5542 
  54   0.0000       0.624396        16.9907 
  55   0.0000       0.647953        17.6317 
  56   0.0000       0.679080        18.4787 
  57   0.0000       0.715849        19.4792 
  58   0.0000       0.717658        19.5285 
  59   0.0000       0.722106        19.6495 
  60   0.0000       0.727521        19.7968 
  61   0.0000       0.745810        20.2945 
  62   0.0000       0.745935        20.2979 
  63   0.0000       0.765670        20.8350 
  64   0.0000       0.776808        21.1380 
  65   0.0000       0.781155        21.2563 
  66   0.0000       0.785108        21.3639 
  67   0.0000       0.793691        21.5974 
  68   0.0000       0.795031        21.6339 
  69   0.0000       0.803126        21.8542 
  70   0.0000       0.805144        21.9091 
  71   0.0000       0.814814        22.1722 
  72   0.0000       0.834854        22.7175 
  73   0.0000       0.842049        22.9133 
  74   0.0000       0.846082        23.0231 
  75   0.0000       0.885886        24.1062 
  76   0.0000       0.905101        24.6290 
  77   0.0000       0.916203        24.9311 
  78   0.0000       0.970085        26.3974 
  79   0.0000       1.002816        27.2880 
  80   0.0000       1.095828        29.8190 
  81   0.0000       1.114286        30.3213 
  82   0.0000       1.200923        32.6788 
  83   0.0000       1.229919        33.4678 
  84   0.0000       1.231481        33.5103 
  85   0.0000       1.276479        34.7348 
  86   0.0000       1.308276        35.6000 
  87   0.0000       1.326314        36.0909 
  88   0.0000       1.405834        38.2547 
  89   0.0000       1.418244        38.5924 
  90   0.0000       1.458882        39.6982 
  91   0.0000       1.485780        40.4301 
  92   0.0000       1.635383        44.5010 
  93   0.0000       1.648005        44.8445 
  94   0.0000       1.651044        44.9272 
  95   0.0000       1.653608        44.9970 
  96   0.0000       1.671858        45.4936 
  97   0.0000       1.689891        45.9843 
  98   0.0000       1.703005        46.3411 
  99   0.0000       1.706356        46.4323 
 100   0.0000       1.748267        47.5728 
 101   0.0000       1.799959        48.9794 
 102   0.0000       1.823342        49.6157 
 103   0.0000       1.868977        50.8574 
 104   0.0000       1.888913        51.3999 
 105   0.0000       1.889874        51.4261 
 106   0.0000       1.899028        51.6752 
 107   0.0000       1.911581        52.0168 
 108   0.0000       1.918798        52.2131 
 109   0.0000       1.934757        52.6474 
 110   0.0000       1.949040        53.0361 
 111   0.0000       1.951450        53.1017 
 112   0.0000       1.979539        53.8660 
 113   0.0000       2.009368        54.6777 
 114   0.0000       2.019236        54.9462 
 115   0.0000       2.049548        55.7710 
 116   0.0000       2.106066        57.3090 
 117   0.0000       2.106419        57.3186 
 118   0.0000       2.128148        57.9098 
 119   0.0000       2.156143        58.6716 
 120   0.0000       2.164737        58.9055 
 121   0.0000       2.166851        58.9630 
 122   0.0000       2.210801        60.1590 
 123   0.0000       2.247767        61.1648 
 124   0.0000       2.305515        62.7363 
 125   0.0000       2.307431        62.7884 
 126   0.0000       2.380910        64.7878 
 127   0.0000       2.399304        65.2884 
 128   0.0000       2.417483        65.7831 
 129   0.0000       2.420984        65.8783 
 130   0.0000       2.446674        66.5774 
 131   0.0000       2.489080        67.7313 
 132   0.0000       2.518454        68.5306 
 133   0.0000       2.564853        69.7932 
 134   0.0000       2.577898        70.1482 
 135   0.0000       2.633152        71.6517 
 136   0.0000       2.740208        74.5649 
 137   0.0000       2.747772        74.7707 
 138   0.0000       2.773854        75.4804 
 139   0.0000       2.776632        75.5560 
 140   0.0000       2.782423        75.7136 
 141   0.0000       2.817011        76.6548 
 142   0.0000       2.847153        77.4750 
 143   0.0000       2.909483        79.1711 
 144   0.0000       2.932178        79.7886 
 145   0.0000       3.005379        81.7805 
 146   0.0000       3.038755        82.6887 
 147   0.0000       3.039339        82.7046 
 148   0.0000       3.046289        82.8937 
 149   0.0000       3.054978        83.1302 
 150   0.0000       3.082640        83.8829 
 151   0.0000       3.087261        84.0087 
 152   0.0000       3.145958        85.6059 
 153   0.0000       3.151574        85.7587 
 154   0.0000       3.237715        88.1027 
 155   0.0000       3.239741        88.1578 
 156   0.0000       3.415242        92.9335 
 157   0.0000       3.586452        97.5923 

                    ********************************
                    * MULLIKEN POPULATION ANALYSIS *
                    ********************************

-----------------------
MULLIKEN ATOMIC CHARGES
-----------------------
   0 N :   -0.317449
   1 C :   -0.219852
   2 N :   -0.317428
   3 C :    0.121266
   4 C :    0.121220
   5 H :    0.020488
   6 H :    0.032783
   7 H :    0.030863
   8 H :    0.020496
   9 H :    0.032808
  10 H :    0.030869
  11 C :    0.072996
  12 H :    0.042177
  13 H :    0.050881
  14 H :    0.055911
  15 C :    0.072852
  16 H :    0.050932
  17 H :    0.055963
  18 H :    0.042223
Sum of atomic charges:   -0.0000000

--------------------------------
MULLIKEN REDUCED ORBITAL CHARGES
--------------------------------
  0 N s       :     3.401406  s :     3.401406
      pz      :     1.624084  p :     3.885919
      px      :     1.138188
      py      :     1.123646
      dz2     :     0.002083  d :     0.030124
      dxz     :     0.003866
      dyz     :     0.003341
      dx2y2   :     0.009815
      dxy     :     0.011020
  1 C s       :     3.521769  s :     3.521769
      pz      :     0.625058  p :     2.627607
      px      :     0.710364
      py      :     1.292185
      dz2     :     0.007620  d :     0.070475
      dxz     :     0.022057
      dyz     :     0.006592
      dx2y2   :     0.009302
      dxy     :     0.024906
  2 N s       :     3.401402  s :     3.401402
      pz      :     1.624075  p :     3.885901
      px      :     1.138184
      py      :     1.123642
      dz2     :     0.002083  d :     0.030125
      dxz     :     0.003866
      dyz     :     0.003341
      dx2y2   :     0.009815
      dxy     :     0.011020
  3 C s       :     2.979240  s :     2.979240
      pz      :     1.024267  p :     2.858297
      px      :     0.873224
      py      :     0.960806
      dz2     :     0.006565  d :     0.041197
      dxz     :     0.013754
      dyz     :     0.002786
      dx2y2   :     0.007517
      dxy     :     0.010574
  4 C s       :     2.979286  s :     2.979286
      pz      :     1.024261  p :     2.858297
      px      :     0.873222
      py      :     0.960813
      dz2     :     0.006564  d :     0.041197
      dxz     :     0.013754
      dyz     :     0.002787
      dx2y2   :     0.007516
      dxy     :     0.010575
  5 H s       :     0.955890  s :     0.955890
      pz      :     0.004832  p :     0.023622
      px      :     0.004952
      py      :     0.013838
  6 H s       :     0.944119  s :     0.944119
      pz      :     0.011690  p :     0.023098
      px      :     0.007395
      py      :     0.004013
  7 H s       :     0.946032  s :     0.946032
      pz      :     0.012059  p :     0.023105
      px      :     0.006582
      py      :     0.004464
  8 H s       :     0.955884  s :     0.955884
      pz      :     0.004831  p :     0.023620
      px      :     0.004953
      py      :     0.013836
  9 H s       :     0.944096  s :     0.944096
      pz      :     0.011692  p :     0.023096
      px      :     0.007392
      py      :     0.004012
 10 H s       :     0.946028  s :     0.946028
      pz      :     0.012054  p :     0.023103
      px      :     0.006583
      py      :     0.004465
 11 C s       :     2.995260  s :     2.995260
      pz      :     1.038631  p :     2.892528
      px      :     1.034460
      py      :     0.819437
      dz2     :     0.006000  d :     0.039216
      dxz     :     0.005357
      dyz     :     0.010785
      dx2y2   :     0.010423
      dxy     :     0.006651
 12 H s       :     0.934120  s :     0.934120
      pz      :     0.007255  p :     0.023704
      px      :     0.013571
      py      :     0.002878
 13 H s       :     0.925028  s :     0.925028
      pz      :     0.008524  p :     0.024090
      px      :     0.009715
      py      :     0.005852
 14 H s       :     0.920875  s :     0.920875
      pz      :     0.013545  p :     0.023214
      px      :     0.004836
      py      :     0.004833
 15 C s       :     2.995433  s :     2.995433
      pz      :     1.038620  p :     2.892502
      px      :     1.034448
      py      :     0.819433
      dz2     :     0.006002  d :     0.039213
      dxz     :     0.005352
      dyz     :     0.010785
      dx2y2   :     0.010426
      dxy     :     0.006648
 16 H s       :     0.924984  s :     0.924984
      pz      :     0.008525  p :     0.024084
      px      :     0.009710
      py      :     0.005848
 17 H s       :     0.920827  s :     0.920827
      pz      :     0.013543  p :     0.023209
      px      :     0.004833
      py      :     0.004833
 18 H s       :     0.934077  s :     0.934077
      pz      :     0.007249  p :     0.023699
      px      :     0.013574
      py      :     0.002877


                     *******************************
                     * LOEWDIN POPULATION ANALYSIS *
                     *******************************

----------------------
LOEWDIN ATOMIC CHARGES
----------------------
   0 N :   -0.049453
   1 C :   -0.269433
   2 N :   -0.049455
   3 C :    0.025156
   4 C :    0.025140
   5 H :    0.016693
   6 H :    0.017702
   7 H :    0.018322
   8 H :    0.016697
   9 H :    0.017705
  10 H :    0.018325
  11 C :    0.018563
  12 H :    0.030965
  13 H :    0.030093
  14 H :    0.026669
  15 C :    0.018534
  16 H :    0.030109
  17 H :    0.026685
  18 H :    0.030982

-------------------------------
LOEWDIN REDUCED ORBITAL CHARGES
-------------------------------
  0 N s       :     3.060674  s :     3.060674
      pz      :     1.549180  p :     3.918340
      px      :     1.199634
      py      :     1.169527
      dz2     :     0.003850  d :     0.070438
      dxz     :     0.006821
      dyz     :     0.005804
      dx2y2   :     0.023629
      dxy     :     0.030334
  1 C s       :     3.116886  s :     3.116886
      pz      :     0.673439  p :     2.990057
      px      :     0.884169
      py      :     1.432449
      dz2     :     0.018202  d :     0.162489
      dxz     :     0.048403
      dyz     :     0.009305
      dx2y2   :     0.030062
      dxy     :     0.056518
  2 N s       :     3.060674  s :     3.060674
      pz      :     1.549172  p :     3.918341
      px      :     1.199635
      py      :     1.169534
      dz2     :     0.003850  d :     0.070441
      dxz     :     0.006822
      dyz     :     0.005804
      dx2y2   :     0.023631
      dxy     :     0.030334
  3 C s       :     2.832638  s :     2.832638
      pz      :     1.073032  p :     3.040758
      px      :     0.954507
      py      :     1.013218
      dz2     :     0.016653  d :     0.101448
      dxz     :     0.035938
      dyz     :     0.005536
      dx2y2   :     0.017524
      dxy     :     0.025796
  4 C s       :     2.832659  s :     2.832659
      pz      :     1.073025  p :     3.040753
      px      :     0.954507
      py      :     1.013221
      dz2     :     0.016648  d :     0.101447
      dxz     :     0.035939
      dyz     :     0.005541
      dx2y2   :     0.017521
      dxy     :     0.025798
  5 H s       :     0.915524  s :     0.915524
      pz      :     0.012928  p :     0.067783
      px      :     0.014162
      py      :     0.040694
  6 H s       :     0.917291  s :     0.917291
      pz      :     0.031375  p :     0.065007
      px      :     0.022017
      py      :     0.011616
  7 H s       :     0.916553  s :     0.916553
      pz      :     0.032410  p :     0.065125
      px      :     0.019710
      py      :     0.013006
  8 H s       :     0.915524  s :     0.915524
      pz      :     0.012927  p :     0.067779
      px      :     0.014162
      py      :     0.040689
  9 H s       :     0.917289  s :     0.917289
      pz      :     0.031383  p :     0.065006
      px      :     0.022009
      py      :     0.011614
 10 H s       :     0.916556  s :     0.916556
      pz      :     0.032398  p :     0.065119
      px      :     0.019714
      py      :     0.013007
 11 C s       :     2.828749  s :     2.828749
      pz      :     1.081804  p :     3.055081
      px      :     1.069616
      py      :     0.903660
      dz2     :     0.014791  d :     0.097607
      dxz     :     0.013981
      dyz     :     0.026536
      dx2y2   :     0.026296
      dxy     :     0.016002
 12 H s       :     0.902915  s :     0.902915
      pz      :     0.019322  p :     0.066119
      px      :     0.036871
      py      :     0.009927
 13 H s       :     0.902228  s :     0.902228
      pz      :     0.022960  p :     0.067680
      px      :     0.026078
      py      :     0.018642
 14 H s       :     0.907303  s :     0.907303
      pz      :     0.036843  p :     0.066028
      px      :     0.012960
      py      :     0.016224
 15 C s       :     2.828826  s :     2.828826
      pz      :     1.081783  p :     3.055045
      px      :     1.069599
      py      :     0.903662
      dz2     :     0.014793  d :     0.097595
      dxz     :     0.013968
      dyz     :     0.026538
      dx2y2   :     0.026303
      dxy     :     0.015993
 16 H s       :     0.902228  s :     0.902228
      pz      :     0.022966  p :     0.067662
      px      :     0.026065
      py      :     0.018631
 17 H s       :     0.907300  s :     0.907300
      pz      :     0.036841  p :     0.066015
      px      :     0.012952
      py      :     0.016221
 18 H s       :     0.902910  s :     0.902910
      pz      :     0.019305  p :     0.066108
      px      :     0.036880
      py      :     0.009923


                      *****************************
                      * MAYER POPULATION ANALYSIS *
                      *****************************

  NA   - Mulliken gross atomic population
  ZA   - Total nuclear charge
  QA   - Mulliken gross atomic charge
  VA   - Mayer's total valence
  BVA  - Mayer's bonded valence
  FA   - Mayer's free valence

  ATOM       NA         ZA         QA         VA         BVA        FA
  0 N      7.3174     7.0000    -0.3174     3.2982     3.2982    -0.0000
  1 C      6.2199     6.0000    -0.2199     2.8344     2.8344    -0.0000
  2 N      7.3174     7.0000    -0.3174     3.2982     3.2982    -0.0000
  3 C      5.8787     6.0000     0.1213     3.8743     3.8743    -0.0000
  4 C      5.8788     6.0000     0.1212     3.8743     3.8743    -0.0000
  5 H      0.9795     1.0000     0.0205     1.0435     1.0435    -0.0000
  6 H      0.9672     1.0000     0.0328     0.9910     0.9910    -0.0000
  7 H      0.9691     1.0000     0.0309     0.9900     0.9900    -0.0000
  8 H      0.9795     1.0000     0.0205     1.0435     1.0435    -0.0000
  9 H      0.9672     1.0000     0.0328     0.9909     0.9909    -0.0000
 10 H      0.9691     1.0000     0.0309     0.9900     0.9900    -0.0000
 11 C      5.9270     6.0000     0.0730     3.9215     3.9215    -0.0000
 12 H      0.9578     1.0000     0.0422     0.9979     0.9979    -0.0000
 13 H      0.9491     1.0000     0.0509     1.0023     1.0023    -0.0000
 14 H      0.9441     1.0000     0.0559     0.9865     0.9865    -0.0000
 15 C      5.9271     6.0000     0.0729     3.9215     3.9215    -0.0000
 16 H      0.9491     1.0000     0.0509     1.0023     1.0023    -0.0000
 17 H      0.9440     1.0000     0.0560     0.9865     0.9865    -0.0000
 18 H      0.9578     1.0000     0.0422     0.9979     0.9979    -0.0000

  Mayer bond orders larger than 0.100000
B(  0-N ,  1-C ) :   1.3198 B(  0-N ,  3-C ) :   0.9760 B(  0-N , 11-C ) :   0.9263 
B(  1-C ,  2-N ) :   1.3199 B(  2-N ,  4-C ) :   0.9760 B(  2-N , 15-C ) :   0.9263 
B(  3-C ,  5-H ) :   0.9674 B(  3-C ,  6-H ) :   0.9745 B(  3-C ,  7-H ) :   0.9752 
B(  4-C ,  8-H ) :   0.9674 B(  4-C ,  9-H ) :   0.9745 B(  4-C , 10-H ) :   0.9752 
B( 11-C , 12-H ) :   0.9707 B( 11-C , 13-H ) :   0.9737 B( 11-C , 14-H ) :   0.9746 
B( 15-C , 16-H ) :   0.9737 B( 15-C , 17-H ) :   0.9746 B( 15-C , 18-H ) :   0.9707 


-------
TIMINGS
-------

Total SCF time: 0 days 0 hours 2 min 36 sec 

Total time                  ....     156.188 sec
Sum of individual times     ....     155.816 sec  ( 99.8%)

Fock matrix formation       ....     153.161 sec  ( 98.1%)
  Split-RI-J                ....       5.515 sec  (  3.6% of F)
  Chain of spheres X        ....     120.111 sec  ( 78.4% of F)
  XC integration            ....      17.655 sec  ( 11.5% of F)
    Basis function eval.    ....       6.496 sec  ( 36.8% of XC)
    Density eval.           ....       3.696 sec  ( 20.9% of XC)
    XC-Functional eval.     ....       2.859 sec  ( 16.2% of XC)
    XC-Potential eval.      ....       4.024 sec  ( 22.8% of XC)
Diagonalization             ....       0.052 sec  (  0.0%)
Density matrix formation    ....       0.007 sec  (  0.0%)
Population analysis         ....       0.006 sec  (  0.0%)
Initial guess               ....       0.401 sec  (  0.3%)
Orbital Transformation      ....       0.000 sec  (  0.0%)
Orbital Orthonormalization  ....       0.000 sec  (  0.0%)
DIIS solution               ....       0.017 sec  (  0.0%)
SOSCF solution              ....       0.017 sec  (  0.0%)
Grid generation             ....       2.154 sec  (  1.4%)

Maximum memory used throughout the entire SCF-calculation: 67.8 MB


-------------------------------------------------------------------------------
                          DFT DISPERSION CORRECTION                            
                                                                               
                                 DFTD4 V2.5                                    
-------------------------------------------------------------------------------
The WB97X functional is recognized
Active option DFTDOPT                   ...         5   

Starting D4
-------------------------   ----------------
Dispersion correction           -0.002166525
-------------------------   ----------------


-------------------------   --------------------
FINAL SINGLE POINT ENERGY      -306.890045577574
-------------------------   --------------------

------------------------------------------------------------------------------
                         ORCA SCF GRADIENT CALCULATION
------------------------------------------------------------------------------

 ... reading COSX grid (gridx3)
Gradient of the Kohn-Sham DFT energy:
Kohn-Sham wavefunction type      ... RKS
Hartree-Fock exchange scaling    ...    0.158
Number of operators              ...    1
Number of atoms                  ...   19
Basis set dimensions             ...  158
Integral neglect threshold       ... 2.5e-11
Integral primitive cutoff        ... 2.5e-12
SHARK Integral package           ... ON

Nuc. rep. gradient       (SHARK) ... done (  0.0 sec)
HCore & Overlap gradient (SHARK) ... done (  0.2 sec)
RI-J gradient            (SHARK) ... done (  1.2 sec)
COSX-gradient                    ... done ( 24.4 sec)
Exchange-correlation gradient    ... done
Dispersion correction            ... Starting D4


------------------- 
Dispersion Gradient 
------------------- 
   1  :   -0.000018582    0.000000201   -0.000000229
   2  :    0.000000001   -0.000009566   -0.000000001
   3  :    0.000018583    0.000000201    0.000000229
   4  :   -0.000045413   -0.000020358    0.000002148
   5  :    0.000045412   -0.000020356   -0.000002149
   6  :   -0.000009172   -0.000002615    0.000000102
   7  :   -0.000006744   -0.000003199    0.000000815
   8  :   -0.000006934   -0.000003251   -0.000000739
   9  :    0.000009172   -0.000002614   -0.000000101
  10  :    0.000006744   -0.000003199   -0.000000815
  11  :    0.000006934   -0.000003251    0.000000740
  12  :   -0.000027939    0.000032543   -0.000001956
  13  :   -0.000006107    0.000000802    0.000000165
  14  :   -0.000006759   -0.000000138    0.000000629
  15  :   -0.000007012    0.000000797   -0.000001476
  16  :    0.000027937    0.000032543    0.000001955
  17  :    0.000006762   -0.000000139   -0.000000631
  18  :    0.000007012    0.000000797    0.000001479
  19  :    0.000006104    0.000000803   -0.000000166

  |G| =    0.000100113

done

------------------
CARTESIAN GRADIENT
------------------

   1   N   :    0.008243642   -0.003219327   -0.001357299
   2   C   :    0.000006504    0.010314170   -0.000009630
   3   N   :   -0.008249683   -0.003225785    0.001366576
   4   C   :    0.001354655   -0.001459650    0.000790809
   5   C   :   -0.001361483   -0.001434457   -0.000755214
   6   H   :   -0.001181145    0.005614324   -0.000613086
   7   H   :    0.004899599   -0.000850630    0.004504636
   8   H   :    0.004516420   -0.001075115   -0.004798013
   9   H   :    0.001167176    0.005593121    0.000605507
  10   H   :   -0.004891385   -0.000847803   -0.004501837
  11   H   :   -0.004507427   -0.001070824    0.004774725
  12   C   :   -0.005758383    0.004360385   -0.001274011
  13   H   :    0.004627401   -0.000591765    0.002700618
  14   H   :   -0.004187862   -0.004642901    0.003407688
  15   H   :    0.000319084   -0.003370024   -0.004424756
  16   C   :    0.005761760    0.004317011    0.001266166
  17   H   :    0.004131593   -0.004617762   -0.003369878
  18   H   :   -0.000314435   -0.003353394    0.004364214
  19   H   :   -0.004576213   -0.000596943   -0.002677058

Difference to translation invariance:
           :   -0.0000001822   -0.0001573697    0.0000001573

Difference to rotation invariance:
           :    0.0000020548    0.0017491951    0.0000047405

Norm of the cartesian gradient     ...    0.0291146046
RMS gradient                       ...    0.0038563236
MAX gradient                       ...    0.0103141700

-------
TIMINGS
-------

Total SCF gradient time            ...       32.986 sec

One electron gradient       ....       0.230 sec  (  0.7%)
RI-J Coulomb gradient       ....       1.193 sec  (  3.6%)
COSX gradient               ....      24.397 sec  ( 74.0%)
XC gradient                 ....       5.686 sec  ( 17.2%)
CPCM gradient               ....       0.526 sec  (  1.6%)
   A-Matrix (El+Nuc)        ....       0.054 sec  (  0.2%)
   Potential                ....       0.472 sec  (  1.4%)

Maximum memory used throughout the entire SCFGRAD-calculation: 54.4 MB
------------------------------------------------------------------------------
                         ORCA GEOMETRY RELAXATION STEP
------------------------------------------------------------------------------

Reading the OPT-File                    .... done
Getting information on internals        .... done
Copying old internal coords+grads       .... done
Making the new internal coordinates     .... (new redundants).... done
Validating the new internal coordinates .... (new redundants).... done
Calculating the B-matrix                .... done
Calculating the G,G- and P matrices     .... done
Transforming gradient to internals      .... done
Projecting the internal gradient        .... done
Number of atoms                         ....  19
Number of internal coordinates          ....  77
Current Energy                          ....  -306.890045578 Eh
Current gradient norm                   ....     0.029114605 Eh/bohr
Maximum allowed component of the step   ....  0.300
Current trust radius                    ....  0.300
Evaluating the initial hessian          ....  (Almloef) done
Projecting the Hessian                  .... done
Forming the augmented Hessian           .... done
Diagonalizing the augmented Hessian     .... done
Last element of RFO vector              ....  0.993127895
Lowest eigenvalues of augmented Hessian:
 -0.004962463  0.015946739  0.015957320  0.017518819  0.017525929
Length of the computed step             ....  0.117843953
The final length of the internal step   ....  0.117843953
Converting the step to cartesian space:
 Initial RMS(Int)=    0.0134295648
Transforming coordinates:
 Iter   0:  RMS(Cart)=    0.0966845316 RMS(Int)=    0.0140883020
 Iter   1:  RMS(Cart)=    0.0033756361 RMS(Int)=    0.0013473699
 Iter   2:  RMS(Cart)=    0.0001555736 RMS(Int)=    0.0000387006
 Iter   3:  RMS(Cart)=    0.0000101096 RMS(Int)=    0.0000041549
 Iter   4:  RMS(Cart)=    0.0000004956 RMS(Int)=    0.0000001623
 Iter   5:  RMS(Cart)=    0.0000000321 RMS(Int)=    0.0000000122
done
Storing new coordinates                 .... done

                                .--------------------.
          ----------------------|Geometry convergence|-------------------------
          Item                value                   Tolerance       Converged
          ---------------------------------------------------------------------
          RMS gradient        0.0053059287            0.0001000000      NO
          MAX gradient        0.0216531646            0.0003000000      NO
          RMS step            0.0134295648            0.0020000000      NO
          MAX step            0.0478770421            0.0040000000      NO
          ........................................................
          Max(Bonds)      0.0105      Max(Angles)    2.74
          Max(Dihed)        1.19      Max(Improp)    0.00
          ---------------------------------------------------------------------

The optimization has not yet converged - more geometry cycles are needed


    ---------------------------------------------------------------------------
                         Redundant Internal Coordinates
                            (Angstroem and degrees)

        Definition                    Value    dE/dq     Step     New-Value
    ----------------------------------------------------------------------------
     1. B(C   1,N   0)                1.3295 -0.013716  0.0103    1.3398   
     2. B(N   2,C   1)                1.3295 -0.013723  0.0103    1.3398   
     3. B(C   3,N   0)                1.4475 -0.009057  0.0105    1.4579   
     4. B(C   4,N   2)                1.4474 -0.009067  0.0105    1.4579   
     5. B(H   5,C   3)                1.0869 -0.005747  0.0082    1.0951   
     6. B(H   6,C   3)                1.0947 -0.006566  0.0097    1.1044   
     7. B(H   7,C   3)                1.0946 -0.006571  0.0097    1.1043   
     8. B(H   8,C   4)                1.0869 -0.005722  0.0082    1.0951   
     9. B(H   9,C   4)                1.0947 -0.006559  0.0097    1.1044   
    10. B(H  10,C   4)                1.0946 -0.006547  0.0097    1.1043   
    11. B(C  11,N   0)                1.4601 -0.002869  0.0035    1.4636   
    12. B(H  12,C  11)                1.0916 -0.005367  0.0078    1.0994   
    13. B(H  13,C  11)                1.0864 -0.006985  0.0100    1.0964   
    14. B(H  14,C  11)                1.0953 -0.005457  0.0081    1.1034   
    15. B(C  15,N   2)                1.4601 -0.002875  0.0035    1.4636   
    16. B(H  16,C  15)                1.0865 -0.006914  0.0099    1.0964   
    17. B(H  17,C  15)                1.0954 -0.005395  0.0080    1.1034   
    18. B(H  18,C  15)                1.0917 -0.005312  0.0077    1.0994   
    19. A(C   1,N   0,C   3)          115.28 -0.012139    1.67    116.95   
    20. A(C   3,N   0,C  11)          112.17 -0.001369    0.21    112.38   
    21. A(C   1,N   0,C  11)          132.52  0.013503   -1.86    130.66   
    22. A(N   0,C   1,N   2)          123.45  0.021653   -2.74    120.71   
    23. A(C   1,N   2,C  15)          132.52  0.013506   -1.86    130.66   
    24. A(C   4,N   2,C  15)          112.17 -0.001373    0.21    112.38   
    25. A(C   1,N   2,C   4)          115.28 -0.012138    1.67    116.95   
    26. A(N   0,C   3,H   7)          110.64 -0.001195    0.18    110.83   
    27. A(H   5,C   3,H   6)          109.16  0.000304    0.02    109.18   
    28. A(N   0,C   3,H   6)          110.87 -0.000684    0.11    110.98   
    29. A(H   6,C   3,H   7)          108.36  0.001537   -0.38    107.97   
    30. A(H   5,C   3,H   7)          109.10  0.000769   -0.11    108.99   
    31. A(N   0,C   3,H   5)          108.68 -0.000690    0.17    108.85   
    32. A(H   9,C   4,H  10)          108.36  0.001538   -0.38    107.98   
    33. A(H   8,C   4,H  10)          109.10  0.000769   -0.11    108.99   
    34. A(N   2,C   4,H  10)          110.64 -0.001199    0.18    110.82   
    35. A(H   8,C   4,H   9)          109.17  0.000310    0.02    109.18   
    36. A(N   2,C   4,H   9)          110.87 -0.000676    0.11    110.98   
    37. A(N   2,C   4,H   8)          108.68 -0.000700    0.17    108.85   
    38. A(H  13,C  11,H  14)          109.62  0.001482   -0.27    109.35   
    39. A(H  12,C  11,H  14)          107.96  0.000406   -0.05    107.90   
    40. A(N   0,C  11,H  14)          111.76 -0.001287    0.24    112.00   
    41. A(H  12,C  11,H  13)          107.80  0.000686   -0.14    107.65   
    42. A(N   0,C  11,H  13)          110.97 -0.001405    0.24    111.21   
    43. A(N   0,C  11,H  12)          108.60  0.000224   -0.03    108.57   
    44. A(H  16,C  15,H  18)          107.80  0.000700   -0.15    107.66   
    45. A(N   2,C  15,H  18)          108.60  0.000216   -0.03    108.57   
    46. A(H  16,C  15,H  17)          109.62  0.001495   -0.28    109.35   
    47. A(N   2,C  15,H  17)          111.76 -0.001299    0.24    112.00   
    48. A(H  17,C  15,H  18)          107.96  0.000415   -0.05    107.90   
    49. A(N   2,C  15,H  16)          110.96 -0.001420    0.24    111.21   
    50. D(N   2,C   1,N   0,C  11)      4.27  0.000490   -0.60      3.67   
    51. D(N   2,C   1,N   0,C   3)   -173.43  0.000810   -1.19   -174.63   
    52. D(C   4,N   2,C   1,N   0)   -173.45  0.000804   -1.18   -174.63   
    53. D(C  15,N   2,C   1,N   0)      4.25  0.000481   -0.59      3.66   
    54. D(H   5,C   3,N   0,C  11)   -178.94 -0.000054   -0.46   -179.40   
    55. D(H   6,C   3,N   0,C   1)   -120.75  0.000584   -0.25   -121.00   
    56. D(H   7,C   3,N   0,C  11)    -59.17 -0.000265   -0.37    -59.55   
    57. D(H   7,C   3,N   0,C   1)    119.00 -0.000108    0.04    119.04   
    58. D(H   5,C   3,N   0,C   1)     -0.76  0.000103   -0.05     -0.81   
    59. D(H   6,C   3,N   0,C  11)     61.08  0.000427   -0.66     60.42   
    60. D(H   9,C   4,N   2,C  15)     61.10  0.000427   -0.66     60.44   
    61. D(H   9,C   4,N   2,C   1)   -120.73  0.000585   -0.25   -120.98   
    62. D(H   8,C   4,N   2,C  15)   -178.91 -0.000048   -0.47   -179.38   
    63. D(H  10,C   4,N   2,C   1)    119.02 -0.000110    0.04    119.05   
    64. D(H   8,C   4,N   2,C   1)     -0.74  0.000110   -0.05     -0.79   
    65. D(H  10,C   4,N   2,C  15)    -59.15 -0.000268   -0.38    -59.53   
    66. D(H  14,C  11,N   0,C   3)     88.78 -0.000160   -0.05     88.73   
    67. D(H  14,C  11,N   0,C   1)    -88.98  0.000355   -0.65    -89.63   
    68. D(H  13,C  11,N   0,C   3)   -148.52 -0.000175   -0.06   -148.58   
    69. D(H  13,C  11,N   0,C   1)     33.72  0.000340   -0.66     33.06   
    70. D(H  12,C  11,N   0,C   3)    -30.20 -0.000026   -0.11    -30.32   
    71. D(H  12,C  11,N   0,C   1)    152.04  0.000489   -0.71    151.32   
    72. D(H  18,C  15,N   2,C   4)    -30.17 -0.000025   -0.11    -30.29   
    73. D(H  18,C  15,N   2,C   1)    152.08  0.000493   -0.72    151.36   
    74. D(H  17,C  15,N   2,C   4)     88.81 -0.000161   -0.05     88.76   
    75. D(H  17,C  15,N   2,C   1)    -88.94  0.000357   -0.66    -89.59   
    76. D(H  16,C  15,N   2,C   4)   -148.49 -0.000178   -0.06   -148.55   
    77. D(H  16,C  15,N   2,C   1)     33.76  0.000340   -0.66     33.09   
    ----------------------------------------------------------------------------

         *************************************************************
         *                GEOMETRY OPTIMIZATION CYCLE   2            *
[...]
     51       0.189967   0.326903   0.135728   0.002137  -0.005431   0.042289
     52      -0.143426  -0.003425   0.138266   0.013776  -0.041083   0.306576
     53      -0.095630   0.031267   0.136347  -0.021350   0.060756  -0.423110
     54      -0.099956   0.008251  -0.000522   0.015495  -0.047995   0.329869
     55       0.205229   0.388039   0.364682  -0.001095   0.000841   0.005779
     56       0.125651  -0.040588  -0.005522   0.009142  -0.028778   0.197987
                 48         49         50         51         52         53    
      0      -0.000441   0.000111   0.000210  -0.000131  -0.000091  -0.000588
      1       0.000542  -0.000103  -0.000097   0.000099   0.000242   0.000319
      2      -0.000507  -0.000403  -0.000415  -0.000397  -0.000379  -0.000037
      3       0.000000  -0.000001   0.000275  -0.000000   0.000252  -0.001021
      4      -0.000912   0.000149   0.000001   0.000304   0.000000   0.000000
      5      -0.000000  -0.000003   0.000599  -0.000000   0.000527   0.000144
      6       0.000441  -0.000113   0.000208   0.000131  -0.000091  -0.000567
      7       0.000542  -0.000104   0.000096   0.000099  -0.000242  -0.000319
      8       0.000507   0.000408  -0.000410   0.000397  -0.000379  -0.000036
      9      -0.005577  -0.000909  -0.001041  -0.000266  -0.000484  -0.027086
     10      -0.000913   0.012261   0.012364  -0.000215   0.000030   0.059303
     11       0.000370   0.064737   0.065551  -0.006610  -0.005634  -0.010285
     12       0.005577   0.000917  -0.001028   0.000267  -0.000484  -0.026281
     13      -0.000912   0.012401  -0.012235  -0.000216  -0.000029  -0.057549
     14      -0.000370  -0.065448   0.064839   0.006612  -0.005632  -0.009984
     15      -0.007004  -0.009183  -0.009465   0.002292   0.002356   0.165713
     16       0.031363   0.035400   0.036683  -0.012438  -0.012037  -0.639187
     17      -0.005814   0.001109   0.000968   0.000784   0.000768   0.129582
     18       0.040637  -0.260470  -0.262882   0.024755   0.021268   0.086679
     19      -0.001125   0.022575   0.022894  -0.004069  -0.003697  -0.003206
     20       0.055148  -0.356652  -0.360085   0.036207   0.031409   0.127518
     21       0.032980   0.278280   0.282285  -0.025586  -0.020083   0.084391
     22      -0.021852  -0.202271  -0.205110   0.019726   0.015857  -0.060294
     23      -0.049825  -0.412602  -0.418594   0.039425   0.031450  -0.136921
     24       0.007003   0.009281  -0.009359  -0.002292   0.002354   0.160803
     25       0.031360   0.035782  -0.036277  -0.012438   0.012030   0.620278
     26       0.005815  -0.001120   0.000957  -0.000784   0.000767   0.125791
     27      -0.040634   0.263341  -0.260035  -0.024766   0.021264   0.084102
     28      -0.001122   0.022805  -0.022627  -0.004069   0.003695   0.003105
     29      -0.055140   0.360570  -0.356172  -0.036222   0.031401   0.123722
     30      -0.032977  -0.281327   0.279207   0.025593  -0.020075   0.081880
     31      -0.021856  -0.204537   0.202923   0.019737  -0.015855   0.058518
     32       0.049822   0.417135  -0.414044  -0.039438   0.031440  -0.132854
     33      -0.016958   0.003021   0.002599   0.030515   0.035508   0.004439
     34       0.033581   0.001210   0.001078   0.017190   0.018095   0.000337
     35       0.006181   0.005303   0.004260   0.056184   0.053052  -0.004135
     36       0.332633  -0.048900  -0.041160  -0.470815  -0.487490  -0.007674
     37      -0.007444   0.002613   0.002447   0.012794   0.013466  -0.000870
     38       0.200600  -0.028024  -0.023564  -0.268202  -0.279626  -0.004736
     39      -0.179890   0.008466   0.005294   0.069629   0.025004  -0.043649
     40      -0.085040   0.004499   0.002863   0.034190   0.013490  -0.021010
     41       0.150077  -0.006633  -0.004243  -0.043459  -0.010006   0.035527
     42       0.039330   0.003337   0.002797   0.042475   0.041379  -0.001277
     43      -0.307263  -0.022789  -0.019498  -0.255657  -0.245645   0.014959
     44      -0.424015  -0.028635  -0.024152  -0.349127  -0.336882   0.020505
     45       0.016958  -0.003050   0.002566  -0.030526   0.035499   0.004512
     46       0.033574   0.001222  -0.001065   0.017199  -0.018093  -0.000366
     47      -0.006179  -0.005350   0.004202  -0.056199   0.053034  -0.004154
     48       0.179839  -0.008521   0.005200  -0.069617   0.024962  -0.044194
     49      -0.085006   0.004529  -0.002813   0.034181  -0.013469   0.021270
     50      -0.150028   0.006677  -0.004169   0.043444  -0.009975   0.035947
     51      -0.039338  -0.003368   0.002762  -0.042501   0.041379  -0.001270
     52      -0.307226  -0.023004   0.019251  -0.255748   0.245582  -0.014948
     53       0.423918   0.028898  -0.023840   0.349213  -0.336761   0.020469
     54      -0.332572   0.049350  -0.040629   0.470957  -0.487338  -0.008052
     55      -0.007432   0.002638  -0.002417   0.012783  -0.013447   0.000821
     56      -0.200580   0.028284  -0.023261   0.268308  -0.279564  -0.004978
                 54         55         56    
      0       0.000708  -0.000027   0.000113
      1      -0.000003  -0.000465  -0.000420
      2       0.000045   0.000322   0.000416
      3      -0.000015   0.000187  -0.000000
      4      -0.000014   0.000001   0.000525
      5       0.000002   0.000168  -0.000000
      6      -0.000725  -0.000026  -0.000113
      7      -0.000012   0.000463  -0.000422
      8      -0.000046   0.000320  -0.000418
      9       0.026410   0.002268  -0.001698
     10      -0.057713  -0.005461   0.003063
     11       0.010070   0.001093  -0.000657
     12      -0.027204   0.002312   0.001699
     13      -0.059454   0.005555   0.003062
     14      -0.010376   0.001110   0.000656
     15      -0.161136  -0.015144   0.008784
     16       0.621879   0.058277  -0.034332
     17      -0.126144  -0.012085   0.006541
     18      -0.085006  -0.009563   0.004365
     19       0.003129  -0.000178  -0.000845
     20      -0.124981  -0.013520   0.006831
     21      -0.082280  -0.006373   0.005007
     22       0.058692   0.004057  -0.003978
     23       0.133469   0.010848  -0.007703
     24       0.165988  -0.015407  -0.008781
     25       0.640640  -0.059300  -0.034323
     26       0.129992  -0.012295  -0.006541
     27       0.087555  -0.009701  -0.004356
     28       0.003218   0.000170  -0.000848
     29       0.128725  -0.013725  -0.006821
     30       0.084749  -0.006510  -0.005011
     31       0.060473  -0.004158  -0.003985
     32      -0.137480   0.011068   0.007709
     33       0.003386   0.053285   0.054562
     34       0.001183   0.009824   0.012501
     35      -0.001242  -0.037496  -0.033006
     36      -0.015743  -0.150355  -0.182327
     37       0.001691   0.003900   0.002443
     38      -0.010016  -0.095540  -0.112695
     39      -0.026587  -0.475518  -0.477108
     40      -0.012780  -0.229247  -0.228505
     41       0.020837   0.381698   0.384089
     42       0.000158  -0.005769  -0.005379
     43       0.001199   0.114349   0.082473
     44       0.000948   0.156863   0.107668
     45      -0.003180   0.053008  -0.054836
     46       0.001159  -0.009761   0.012550
     47       0.001068  -0.037328   0.033200
     48       0.024640  -0.473121   0.479582
     49      -0.011841   0.228071  -0.229670
     50      -0.019258   0.379749  -0.386057
     51      -0.000204  -0.005748   0.005414
     52       0.000599  -0.113931   0.083069
     53      -0.000126   0.156300  -0.108475
     54       0.015303  -0.149401   0.183064
     55       0.001711  -0.003884   0.002456
     56       0.009742  -0.094960   0.113174


-----------
IR SPECTRUM
-----------

 Mode   freq       eps      Int      T**2         TX        TY        TZ
       cm**-1   L/(mol*cm) km/mol    a.u.
----------------------------------------------------------------------------
  6:     62.13   0.000028    0.14  0.000141  (-0.000004  0.011854 -0.000001)
  7:    150.61   0.001504    7.60  0.003116  ( 0.005147 -0.000001  0.055581)
  8:    167.75   0.000005    0.02  0.000009  (-0.000004  0.002989 -0.000062)
  9:    185.13   0.000064    0.32  0.000108  ( 0.000005 -0.010386  0.000016)
 10:    206.19   0.001090    5.51  0.001650  (-0.017005 -0.000007 -0.036889)
 11:    235.83   0.002636   13.32  0.003488  ( 0.017042  0.000001 -0.056546)
 12:    285.52   0.000851    4.30  0.000930  ( 0.000008 -0.030490 -0.000000)
 13:    322.29   0.000026    0.13  0.000025  (-0.000003 -0.005002  0.000003)
 14:    353.57   0.003915   19.79  0.003456  ( 0.048941  0.000003 -0.032563)
 15:    430.83   0.000020    0.10  0.000014  ( 0.000009  0.003797  0.000001)
 16:    438.48   0.003747   18.93  0.002666  (-0.049760  0.000001 -0.013795)
 17:    504.52   0.000763    3.85  0.000472  ( 0.020679  0.000000 -0.006634)
 18:    621.68   0.000554    2.80  0.000278  (-0.000000 -0.016670 -0.000002)
 19:    892.76   0.002827   14.29  0.000988  (-0.000002 -0.031435 -0.000001)
 20:    917.28   0.008266   41.77  0.002812  ( 0.052937  0.000000  0.003141)
 21:   1066.08   0.001232    6.23  0.000361  (-0.000005  0.018989  0.000001)
 22:   1070.28   0.001212    6.12  0.000353  (-0.018519 -0.000004  0.003215)
 23:   1094.86   0.000857    4.33  0.000244  (-0.000002 -0.015629  0.000000)
 24:   1109.90   0.000452    2.28  0.000127  (-0.003085 -0.000002  0.010839)
 25:   1112.74   0.000625    3.16  0.000175  (-0.000003  0.013243  0.000003)
 26:   1155.99   0.018413   93.05  0.004971  (-0.069933 -0.000002 -0.008945)
 27:   1161.57   0.000226    1.14  0.000061  (-0.000018 -0.007797  0.000006)
 28:   1165.65   0.013066   66.03  0.003498  (-0.057754  0.000002  0.012745)
 29:   1267.56   0.000402    2.03  0.000099  ( 0.009135 -0.000000 -0.003945)
 30:   1334.34   0.006991   35.33  0.001635  (-0.000002  0.040434  0.000002)
 31:   1409.16   0.033976  171.70  0.007524  ( 0.086502 -0.000001  0.006437)
 32:   1417.56   0.010732   54.24  0.002363  ( 0.048082 -0.000032 -0.007122)
 33:   1417.63   0.000023    0.12  0.000005  ( 0.000737  0.002114 -0.000107)
 34:   1418.85   0.000040    0.20  0.000009  ( 0.000031  0.002971 -0.000001)
 35:   1445.56   0.000675    3.41  0.000146  ( 0.000003  0.012074  0.000001)
 36:   1450.03   0.000410    2.07  0.000088  (-0.008928  0.000004 -0.002913)
 37:   1457.47   0.000887    4.48  0.000190  ( 0.000040 -0.013779 -0.000116)
 38:   1458.03   0.007581   38.31  0.001623  ( 0.012302  0.000046 -0.038357)
 39:   1464.41   0.009089   45.93  0.001937  (-0.043255 -0.000013 -0.008117)
 40:   1464.78   0.001058    5.34  0.000225  ( 0.000034 -0.015011  0.000002)
 41:   1475.35   0.004073   20.58  0.000862  (-0.007150  0.000010  0.028468)
 42:   1480.17   0.003620   18.29  0.000763  (-0.000001 -0.027625  0.000009)
 43:   1509.14   0.001750    8.84  0.000362  (-0.000005  0.019021  0.000002)
 44:   1590.23   0.113042  571.27  0.022183  ( 0.148797  0.000002  0.006526)
 45:   3037.93   0.036568  184.80  0.003756  ( 0.061228  0.000005  0.002719)
 46:   3040.04   0.002451   12.39  0.000252  (-0.000014  0.015863  0.000001)
 47:   3058.56   0.007871   39.78  0.000803  (-0.028274 -0.000004  0.001914)
 48:   3063.40   0.013985   70.67  0.001425  (-0.000002  0.037744  0.000001)
 49:   3119.65   0.000645    3.26  0.000065  (-0.000012  0.008029 -0.000249)
 50:   3119.71   0.020835  105.29  0.002084  ( 0.001977  0.000042  0.045610)
 51:   3144.79   0.000661    3.34  0.000066  (-0.000002  0.008101 -0.000003)
 52:   3147.52   0.009001   45.49  0.000892  ( 0.016842  0.000001  0.024673)
 53:   3209.93   0.001027    5.19  0.000100  (-0.008140  0.000255 -0.005793)
 54:   3210.02   0.002955   14.93  0.000287  (-0.000110 -0.016948 -0.000097)
 55:   3210.57   0.004773   24.12  0.000464  ( 0.016601  0.000026 -0.013723)
 56:   3212.80   0.000326    1.65  0.000032  (-0.000040  0.005623  0.000037)

* The epsilon (eps) is given for a Dirac delta lineshape.
** The dipole moment derivative (T) already includes vibrational overlap.

The first frequency considered to be a vibration is 6
The total number of vibrations considered is 51


--------------------------
THERMOCHEMISTRY AT 298.15K
--------------------------

Temperature         ... 298.15 K
Pressure            ... 1.00 atm
Total Mass          ... 100.16 AMU

Throughout the following assumptions are being made:
  (1) The electronic state is orbitally nondegenerate
  (2) There are no thermally accessible electronically excited states
  (3) Hindered rotations indicated by low frequency modes are not
      treated as such but are treated as vibrations and this may
      cause some error
  (4) All equations used are the standard statistical mechanics
      equations for an ideal gas
  (5) All vibrations are strictly harmonic

freq.      62.13  E(vib)   ...       0.51 
freq.     150.61  E(vib)   ...       0.40 
freq.     167.75  E(vib)   ...       0.38 
freq.     185.13  E(vib)   ...       0.37 
freq.     206.19  E(vib)   ...       0.35 
freq.     235.83  E(vib)   ...       0.32 
freq.     285.52  E(vib)   ...       0.28 
freq.     322.29  E(vib)   ...       0.25 
freq.     353.57  E(vib)   ...       0.22 
freq.     430.83  E(vib)   ...       0.18 
freq.     438.48  E(vib)   ...       0.17 
freq.     504.52  E(vib)   ...       0.14 
freq.     621.68  E(vib)   ...       0.09 
freq.     892.76  E(vib)   ...       0.03 
freq.     917.28  E(vib)   ...       0.03 
freq.    1066.08  E(vib)   ...       0.02 
freq.    1070.28  E(vib)   ...       0.02 
freq.    1094.86  E(vib)   ...       0.02 
freq.    1109.90  E(vib)   ...       0.02 
freq.    1112.74  E(vib)   ...       0.01 
freq.    1155.99  E(vib)   ...       0.01 
freq.    1161.57  E(vib)   ...       0.01 
freq.    1165.65  E(vib)   ...       0.01 
freq.    1267.56  E(vib)   ...       0.01 
freq.    1334.34  E(vib)   ...       0.01 
freq.    1409.16  E(vib)   ...       0.00 
freq.    1417.56  E(vib)   ...       0.00 
freq.    1417.63  E(vib)   ...       0.00 
freq.    1418.85  E(vib)   ...       0.00 
freq.    1445.56  E(vib)   ...       0.00 
freq.    1450.03  E(vib)   ...       0.00 
freq.    1457.47  E(vib)   ...       0.00 
freq.    1458.03  E(vib)   ...       0.00 
freq.    1464.41  E(vib)   ...       0.00 
freq.    1464.78  E(vib)   ...       0.00 
freq.    1475.35  E(vib)   ...       0.00 
freq.    1480.17  E(vib)   ...       0.00 
freq.    1509.14  E(vib)   ...       0.00 
freq.    1590.23  E(vib)   ...       0.00 
freq.    3037.93  E(vib)   ...       0.00 
freq.    3040.04  E(vib)   ...       0.00 
freq.    3058.56  E(vib)   ...       0.00 
freq.    3063.40  E(vib)   ...       0.00 
freq.    3119.65  E(vib)   ...       0.00 
freq.    3119.71  E(vib)   ...       0.00 
freq.    3144.79  E(vib)   ...       0.00 
freq.    3147.52  E(vib)   ...       0.00 
freq.    3209.93  E(vib)   ...       0.00 
freq.    3210.02  E(vib)   ...       0.00 
freq.    3210.57  E(vib)   ...       0.00 
freq.    3212.80  E(vib)   ...       0.00 

------------
INNER ENERGY
------------

The inner energy is: U= E(el) + E(ZPE) + E(vib) + E(rot) + E(trans)
    E(el)   - is the total energy from the electronic structure calculation
              = E(kin-el) + E(nuc-el) + E(el-el) + E(nuc-nuc)
    E(ZPE)  - the the zero temperature vibrational energy from the frequency calculation
    E(vib)  - the the finite temperature correction to E(ZPE) due to population
              of excited vibrational states
    E(rot)  - is the rotational thermal energy
    E(trans)- is the translational thermal energy

Summary of contributions to the inner energy U:
Electronic energy                ...   -306.89316299 Eh
Zero point energy                ...      0.17165282 Eh     107.71 kcal/mol
Thermal vibrational correction   ...      0.00621898 Eh       3.90 kcal/mol
Thermal rotational correction    ...      0.00141627 Eh       0.89 kcal/mol
Thermal translational correction ...      0.00141627 Eh       0.89 kcal/mol
-----------------------------------------------------------------------
Total thermal energy                   -306.71245864 Eh


Summary of corrections to the electronic energy:
(perhaps to be used in another calculation)
Total thermal correction                  0.00905152 Eh       5.68 kcal/mol
Non-thermal (ZPE) correction              0.17165282 Eh     107.71 kcal/mol
-----------------------------------------------------------------------
Total correction                          0.18070434 Eh     113.39 kcal/mol


--------
ENTHALPY
--------

The enthalpy is H = U + kB*T
                kB is Boltzmann's constant
Total free energy                 ...   -306.71245864 Eh 
Thermal Enthalpy correction       ...      0.00094421 Eh       0.59 kcal/mol
-----------------------------------------------------------------------
Total Enthalpy                    ...   -306.71151443 Eh


Note: Rotational entropy computed according to Herzberg 
Infrared and Raman Spectra, Chapter V,1, Van Nostrand Reinhold, 1945 
Point Group:  C2, Symmetry Number:   2  
Rotational constants in cm-1:     0.162598     0.056873     0.044754 

Vibrational entropy computed according to the QRRHO of S. Grimme
Chem.Eur.J. 2012 18 9955


-------
ENTROPY
-------

The entropy contributions are T*S = T*(S(el)+S(vib)+S(rot)+S(trans))
     S(el)   - electronic entropy
     S(vib)  - vibrational entropy
     S(rot)  - rotational entropy
     S(trans)- translational entropy
The entropies will be listed as multiplied by the temperature to get
units of energy

Electronic entropy                ...      0.00000000 Eh      0.00 kcal/mol
Vibrational entropy               ...      0.01066451 Eh      6.69 kcal/mol
Rotational entropy                ...      0.01253393 Eh      7.87 kcal/mol
Translational entropy             ...      0.01887358 Eh     11.84 kcal/mol
-----------------------------------------------------------------------
Final entropy term                ...      0.04207202 Eh     26.40 kcal/mol

In case the symmetry of your molecule has not been determined correctly
or in case you have a reason to use a different symmetry number we print 
out the resulting rotational entropy values for sn=1,12 :
 --------------------------------------------------------
|  sn= 1 | S(rot)=       0.01318838 Eh      8.28 kcal/mol|
|  sn= 2 | S(rot)=       0.01253393 Eh      7.87 kcal/mol|
|  sn= 3 | S(rot)=       0.01215110 Eh      7.62 kcal/mol|
|  sn= 4 | S(rot)=       0.01187947 Eh      7.45 kcal/mol|
|  sn= 5 | S(rot)=       0.01166878 Eh      7.32 kcal/mol|
|  sn= 6 | S(rot)=       0.01149664 Eh      7.21 kcal/mol|
|  sn= 7 | S(rot)=       0.01135109 Eh      7.12 kcal/mol|
|  sn= 8 | S(rot)=       0.01122502 Eh      7.04 kcal/mol|
|  sn= 9 | S(rot)=       0.01111381 Eh      6.97 kcal/mol|
|  sn=10 | S(rot)=       0.01101433 Eh      6.91 kcal/mol|
|  sn=11 | S(rot)=       0.01092434 Eh      6.86 kcal/mol|
|  sn=12 | S(rot)=       0.01084218 Eh      6.80 kcal/mol|
 --------------------------------------------------------


-------------------
GIBBS FREE ENERGY
-------------------

The Gibbs free energy is G = H - T*S

Total enthalpy                    ...   -306.71151443 Eh 
Total entropy correction          ...     -0.04207202 Eh    -26.40 kcal/mol
-----------------------------------------------------------------------
Final Gibbs free energy         ...   -306.75358645 Eh

For completeness - the Gibbs free energy minus the electronic energy
G-E(el)                           ...      0.13957654 Eh     87.59 kcal/mol


Timings for individual modules:

Sum of individual times         ...     2199.751 sec (=  36.663 min)
GTO integral calculation        ...        2.652 sec (=   0.044 min)   0.1 %
SCF iterations                  ...     1292.130 sec (=  21.536 min)  58.7 %
SCF Gradient evaluation         ...      362.214 sec (=   6.037 min)  16.5 %
Geometry relaxation             ...        0.485 sec (=   0.008 min)   0.0 %
Analytical frequency calculation...      542.270 sec (=   9.038 min)  24.7 %
                             ****ORCA TERMINATED NORMALLY****
TOTAL RUN TIME: 0 days 0 hours 36 minutes 41 seconds 96 msec
