
                                 *****************
                                 * O   R   C   A *
                                 *****************

                                            #,                                       
                                            ###                                      
                                            ####                                     
                                            #####                                    
                                            ######                                   
                                           ########,                                 
                                     ,,################,,,,,                         
                               ,,#################################,,                 
                          ,,##########################################,,             
                       ,#########################################, ''#####,          
                    ,#############################################,,   '####,        
                  ,##################################################,,,,####,       
                ,###########''''           ''''###############################       
              ,#####''   ,,,,##########,,,,          '''####'''          '####       
            ,##' ,,,,###########################,,,                        '##       
           ' ,,###''''                  '''############,,,                           
         ,,##''                                '''############,,,,        ,,,,,,###''
      ,#''                                            '''#######################'''  
     '                                                          ''''####''''         
             ,#######,   #######,   ,#######,      ##                                
            ,#'     '#,  ##    ##  ,#'     '#,    #''#        ######   ,####,        
            ##       ##  ##   ,#'  ##            #'  '#       #        #'  '#        
            ##       ##  #######   ##           ,######,      #####,   #    #        
            '#,     ,#'  ##    ##  '#,     ,#' ,#      #,         ##   #,  ,#        
             '#######'   ##     ##  '#######'  #'      '#     #####' # '####'        



                  #######################################################
                  #                        -***-                        #
                  #          Department of theory and spectroscopy      #
                  #    Directorship and core code : Frank Neese         #
                  #        Max Planck Institute fuer Kohlenforschung    #
                  #                Kaiser Wilhelm Platz 1               #
                  #                 D-45470 Muelheim/Ruhr               #
                  #                      Germany                        #
                  #                                                     #
                  #                  All rights reserved                #
                  #                        -***-                        #
                  #######################################################


                         Program Version 5.0.4 -  RELEASE  -


 With contributions from (in alphabetic order):
   Daniel Aravena         : Magnetic Suceptibility
   Michael Atanasov       : Ab Initio Ligand Field Theory (pilot matlab implementation)
   Alexander A. Auer      : GIAO ZORA, VPT2 properties, NMR spectrum
   Ute Becker             : Parallelization
   Giovanni Bistoni       : ED, misc. LED, open-shell LED, HFLD
   Martin Brehm           : Molecular dynamics
   Dmytro Bykov           : SCF Hessian
   Vijay G. Chilkuri      : MRCI spin determinant printing, contributions to CSF-ICE
   Dipayan Datta          : RHF DLPNO-CCSD density
   Achintya Kumar Dutta   : EOM-CC, STEOM-CC
   Dmitry Ganyushin       : Spin-Orbit,Spin-Spin,Magnetic field MRCI
   Miquel Garcia          : C-PCM and meta-GGA Hessian, CC/C-PCM, Gaussian charge scheme
   Yang Guo               : DLPNO-NEVPT2, F12-NEVPT2, CIM, IAO-localization
   Andreas Hansen         : Spin unrestricted coupled pair/coupled cluster methods
   Benjamin Helmich-Paris : MC-RPA, TRAH-SCF, COSX integrals
   Lee Huntington         : MR-EOM, pCC
   Robert Izsak           : Overlap fitted RIJCOSX, COSX-SCS-MP3, EOM
   Marcus Kettner         : VPT2
   Christian Kollmar      : KDIIS, OOCD, Brueckner-CCSD(T), CCSD density, CASPT2, CASPT2-K
   Simone Kossmann        : Meta GGA functionals, TD-DFT gradient, OOMP2, MP2 Hessian
   Martin Krupicka        : Initial AUTO-CI
   Lucas Lang             : DCDCAS
   Marvin Lechner         : AUTO-CI (C++ implementation), FIC-MRCC
   Dagmar Lenk            : GEPOL surface, SMD
   Dimitrios Liakos       : Extrapolation schemes; Compound Job, initial MDCI parallelization
   Dimitrios Manganas     : Further ROCIS development; embedding schemes
   Dimitrios Pantazis     : SARC Basis sets
   Anastasios Papadopoulos: AUTO-CI, single reference methods and gradients
   Taras Petrenko         : DFT Hessian,TD-DFT gradient, ASA, ECA, R-Raman, ABS, FL, XAS/XES, NRVS
   Peter Pinski           : DLPNO-MP2, DLPNO-MP2 Gradient
   Christoph Reimann      : Effective Core Potentials
   Marius Retegan         : Local ZFS, SOC
   Christoph Riplinger    : Optimizer, TS searches, QM/MM, DLPNO-CCSD(T), (RO)-DLPNO pert. Triples
   Tobias Risthaus        : Range-separated hybrids, TD-DFT gradient, RPA, STAB
   Michael Roemelt        : Original ROCIS implementation
   Masaaki Saitow         : Open-shell DLPNO-CCSD energy and density
   Barbara Sandhoefer     : DKH picture change effects
   Avijit Sen             : IP-ROCIS
   Kantharuban Sivalingam : CASSCF convergence, NEVPT2, FIC-MRCI
   Bernardo de Souza      : ESD, SOC TD-DFT
   Georgi Stoychev        : AutoAux, RI-MP2 NMR, DLPNO-MP2 response
   Willem Van den Heuvel  : Paramagnetic NMR
   Boris Wezisla          : Elementary symmetry handling
   Frank Wennmohs         : Technical directorship


 We gratefully acknowledge several colleagues who have allowed us to
 interface, adapt or use parts of their codes:
   Stefan Grimme, W. Hujo, H. Kruse, P. Pracht,  : VdW corrections, initial TS optimization,
                  C. Bannwarth, S. Ehlert          DFT functionals, gCP, sTDA/sTD-DF
   Ed Valeev, F. Pavosevic, A. Kumar             : LibInt (2-el integral package), F12 methods
   Garnet Chan, S. Sharma, J. Yang, R. Olivares  : DMRG
   Ulf Ekstrom                                   : XCFun DFT Library
   Mihaly Kallay                                 : mrcc  (arbitrary order and MRCC methods)
   Jiri Pittner, Ondrej Demel                    : Mk-CCSD
   Frank Weinhold                                : gennbo (NPA and NBO analysis)
   Christopher J. Cramer and Donald G. Truhlar   : smd solvation model
   Lars Goerigk                                  : TD-DFT with DH, B97 family of functionals
   V. Asgeirsson, H. Jonsson                     : NEB implementation
   FAccTs GmbH                                   : IRC, NEB, NEB-TS, DLPNO-Multilevel, CI-OPT
                                                   MM, QMMM, 2- and 3-layer-ONIOM, Crystal-QMMM,
                                                   LR-CPCM, SF, NACMEs, symmetry and pop. for TD-DFT,
                                                   nearIR, NL-DFT gradient (VV10), updates on ESD,
                                                   ML-optimized integration grids
   S Lehtola, MJT Oliveira, MAL Marques          : LibXC Library
   Liviu Ungur et al                             : ANISO software


 Your calculation uses the libint2 library for the computation of 2-el integrals
 For citations please refer to: http://libint.valeyev.net

 Your ORCA version has been built with support for libXC version: 5.1.0
 For citations please refer to: https://tddft.org/programs/libxc/

 This ORCA versions uses:
   CBLAS   interface :  Fast vector & matrix operations
   LAPACKE interface :  Fast linear algebra routines
   SCALAPACK package :  Parallel linear algebra routines
   Shared memory     :  Shared parallel matrices
   BLAS/LAPACK       :  OpenBLAS 0.3.15  USE64BITINT DYNAMIC_ARCH NO_AFFINITY SkylakeX SINGLE_THREADED
        Core in use  :  SkylakeX
   Copyright (c) 2011-2014, The OpenBLAS Project




***************************************
The coordinates will be read from file: 11_prot_aq_2.xyz
***************************************


Your calculation utilizes the atom-pairwise dispersion correction
based on tight binding partial charges (D4)
Cite in your paper:
E.Caldeweyher, C.Bannwarth, S.Grimme, J.Chem.Phys., (2017), 147, 034112.
E.Caldeweyher, S.Ehlert, A.Hansen, H.Neugebauer, S.Grimme, J.Chem.Phys., (2018), in progress.
   

XCFun DFT library Copyright 2009-2010 Ulf Ekstrom and contributors.
See http://admol.org/xcfun for more information.
This is free software; see the source code for copying conditions.
There is ABSOLUTELY NO WARRANTY; not even for MERCHANTABILITY or FITNESS FOR A PARTICULAR PURPOSE.
For details see the documentation.
Scientific users of this library should cite U. Ekstrom, L. Visscher, R. Bast, A. J. Thorvaldsen and K. Ruud;
J.Chem.Theor.Comp. 2010, DOI: 10.1021/ct100117s
XCFun Version 0.99 

================================================================================

----- Orbital basis set information -----
Your calculation utilizes the basis: def2-SVP
   F. Weigend and R. Ahlrichs, Phys. Chem. Chem. Phys. 7, 3297 (2005).

----- AuxJ basis set information -----
Your calculation utilizes the auxiliary basis: def2/J
   F. Weigend, Phys. Chem. Chem. Phys. 8, 1057 (2006).

================================================================================
                                        WARNINGS
                       Please study these warnings very carefully!
================================================================================


WARNING: Geometry Optimization
  ===> : Switching off AutoStart
         For restart on a previous wavefunction, please use MOREAD

INFO   : the flag for use of the SHARK integral package has been found!

================================================================================
                                       INPUT FILE
================================================================================
NAME = 11_prot_aq_2.inp
|  1> # ORCA 5.0.4 - /users/bwb16179/postgrad/2024_03/DFT_Crest_Conformers/Opt/prot/11_prot_aq_2.inp # write input file
|  2> # Basic Mode
|  3> #
|  4> ! Opt Freq wB97X Def2-SVP D4 SlowConv TightSCF Defgrid2 Def2/J RIJCOSX CPCM(Water)
|  5> 
|  6> 
|  7> 
|  8> %maxcore 4500
|  9> 
| 10> %geom
| 11> Maxiter 150
| 12> END
| 13> 
| 14> * xyzfile 1 1 11_prot_aq_2.xyz
| 15> 
| 16>                          ****END OF INPUT****
================================================================================

                       *****************************
                       * Geometry Optimization Run *
                       *****************************

Geometry optimization settings:
Update method            Update   .... BFGS
Choice of coordinates    CoordSys .... Z-matrix Internals
Initial Hessian          InHess   .... Almoef's Model

Convergence Tolerances:
Energy Change            TolE     ....  5.0000e-06 Eh
Max. Gradient            TolMAXG  ....  3.0000e-04 Eh/bohr
RMS Gradient             TolRMSG  ....  1.0000e-04 Eh/bohr
Max. Displacement        TolMAXD  ....  4.0000e-03 bohr
RMS Displacement         TolRMSD  ....  2.0000e-03 bohr
Strict Convergence                ....  False
------------------------------------------------------------------------------
                        ORCA OPTIMIZATION COORDINATE SETUP
------------------------------------------------------------------------------

The optimization will be done in new redundant internal coordinates
Making redundant internal coordinates   ...  (new redundants) done
Evaluating the initial hessian          ...  (Almloef) done
Evaluating the coordinates              ...  done
Calculating the B-matrix                .... done
Calculating the G-matrix                .... done
Diagonalizing the G-matrix              .... done
Small eigenvalue found = 1.304e-02
The first mode is                       ....   30
The number of degrees of freedom        ....   54

    -----------------------------------------------------------------
                    Redundant Internal Coordinates


    -----------------------------------------------------------------
         Definition                    Initial Value    Approx d2E/dq
    -----------------------------------------------------------------
      1. B(C   1,N   0)                  1.3108         0.748594   
      2. B(N   2,C   1)                  1.3125         0.743804   
      3. B(H   3,C   1)                  1.0857         0.365890   
      4. B(C   4,N   0)                  1.4508         0.447516   
      5. B(C   5,N   2)                  1.4508         0.447630   
      6. B(H   6,C   4)                  1.0909         0.358858   
      7. B(H   7,C   4)                  1.0865         0.364817   
      8. B(H   8,C   4)                  1.0907         0.359142   
      9. B(H   9,C   5)                  1.0909         0.358969   
     10. B(H  10,C   5)                  1.0909         0.358926   
     11. B(H  11,C   5)                  1.0868         0.364309   
     12. B(C  12,N   0)                  1.4472         0.453503   
     13. B(H  13,C  12)                  1.0804         0.373004   
     14. B(H  14,C  12)                  1.0915         0.358092   
     15. B(H  15,C  12)                  1.0917         0.357842   
     16. B(C  16,N   2)                  1.4511         0.447156   
     17. B(H  17,C  16)                  1.0874         0.363599   
     18. B(H  18,C  16)                  1.0905         0.359496   
     19. B(H  19,C  16)                  1.0904         0.359609   
     20. A(C   1,N   0,C  12)          129.4562         0.418999   
     21. A(C   1,N   0,C   4)          118.9576         0.418008   
     22. A(C   4,N   0,C  12)          111.5862         0.382725   
     23. A(N   0,C   1,H   3)          113.5160         0.363132   
     24. A(N   2,C   1,H   3)          113.5591         0.362734   
     25. A(N   0,C   1,N   2)          132.9249         0.458103   
     26. A(C   1,N   2,C  16)          127.0901         0.417471   
     27. A(C   5,N   2,C  16)          113.9052         0.381806   
     28. A(C   1,N   2,C   5)          119.0047         0.417549   
     29. A(N   0,C   4,H   7)          111.7098         0.332837   
     30. A(H   7,C   4,H   8)          108.6753         0.291313   
     31. A(H   6,C   4,H   8)          108.1773         0.290560   
     32. A(N   0,C   4,H   8)          109.7263         0.331973   
     33. A(H   6,C   4,H   7)          108.6871         0.291277   
     34. A(N   0,C   4,H   6)          109.7862         0.331930   
     35. A(N   2,C   5,H  11)          111.5400         0.332774   
     36. A(H   9,C   5,H  10)          108.6223         0.290547   
     37. A(N   2,C   5,H  10)          109.7515         0.331954   
     38. A(N   2,C   5,H   9)          109.7597         0.331961   
     39. A(H  10,C   5,H  11)          108.5518         0.291221   
     40. A(H   9,C   5,H  11)          108.5537         0.291227   
     41. A(H  14,C  12,H  15)          107.8460         0.290297   
     42. A(H  13,C  12,H  15)          108.7340         0.292165   
     43. A(N   0,C  12,H  15)          109.2133         0.332505   
     44. A(H  13,C  12,H  14)          108.6783         0.292197   
     45. A(N   0,C  12,H  14)          109.1266         0.332544   
     46. A(N   0,C  12,H  13)          113.1090         0.334803   
     47. A(N   2,C  16,H  19)          111.2700         0.332000   
     48. A(H  17,C  16,H  18)          107.5827         0.291205   
     49. A(N   2,C  16,H  18)          111.2572         0.331983   
     50. A(N   2,C  16,H  17)          108.6042         0.332608   
     51. A(H  18,C  16,H  19)          110.3629         0.290700   
     52. A(H  17,C  16,H  19)          107.6056         0.291219   
     53. D(H   3,C   1,N   0,C  12)   -179.9314         0.047039   
     54. D(H   3,C   1,N   0,C   4)      0.0676         0.047039   
     55. D(N   2,C   1,N   0,C   4)   -179.9653         0.047039   
     56. D(N   2,C   1,N   0,C  12)      0.0358         0.047039   
     57. D(C  16,N   2,C   1,N   0)      0.1343         0.046373   
     58. D(C   5,N   2,C   1,N   0)   -179.8914         0.046373   
     59. D(C   5,N   2,C   1,H   3)      0.0757         0.046373   
     60. D(C  16,N   2,C   1,H   3)   -179.8986         0.046373   
     61. D(H   7,C   4,N   0,C   1)     -1.3048         0.017082   
     62. D(H   7,C   4,N   0,C  12)    178.6944         0.017082   
     63. D(H   8,C   4,N   0,C   1)   -121.8954         0.017082   
     64. D(H   6,C   4,N   0,C  12)    -60.6597         0.017082   
     65. D(H   8,C   4,N   0,C  12)     58.1038         0.017082   
     66. D(H   6,C   4,N   0,C   1)    119.3411         0.017082   
     67. D(H   9,C   5,N   2,C   1)   -120.4118         0.017091   
     68. D(H  11,C   5,N   2,C  16)    179.9157         0.017091   
     69. D(H  11,C   5,N   2,C   1)     -0.0619         0.017091   
     70. D(H  10,C   5,N   2,C  16)    -59.7422         0.017091   
     71. D(H  10,C   5,N   2,C   1)    120.2802         0.017091   
     72. D(H   9,C   5,N   2,C  16)     59.5658         0.017091   
     73. D(H  15,C  12,N   0,C   4)    -60.1177         0.017548   
     74. D(H  15,C  12,N   0,C   1)    119.8813         0.017548   
     75. D(H  14,C  12,N   0,C   4)     57.5509         0.017548   
     76. D(H  14,C  12,N   0,C   1)   -122.4500         0.017548   
     77. D(H  13,C  12,N   0,C   4)    178.6504         0.017548   
     78. D(H  13,C  12,N   0,C   1)     -1.3506         0.017548   
     79. D(H  18,C  16,N   2,C   5)   -117.9247         0.017054   
     80. D(H  18,C  16,N   2,C   1)     62.0507         0.017054   
     81. D(H  17,C  16,N   2,C   5)      0.3019         0.017054   
     82. D(H  19,C  16,N   2,C   1)    -61.4605         0.017054   
     83. D(H  17,C  16,N   2,C   1)   -179.7227         0.017054   
     84. D(H  19,C  16,N   2,C   5)    118.5641         0.017054   
    -----------------------------------------------------------------

Number of atoms                         .... 20
Number of degrees of freedom            .... 84

         *************************************************************
         *                GEOMETRY OPTIMIZATION CYCLE   1            *
         *************************************************************
---------------------------------
CARTESIAN COORDINATES (ANGSTROEM)
---------------------------------
  N     -1.193862   -0.079102   -0.001859
  C      0.005497   -0.607979    0.000080
  N      1.211181   -0.089247    0.001815
  H      0.000194   -1.693625   -0.000277
  C     -2.348787   -0.957217   -0.002673
  C      2.358818   -0.976754    0.001345
  H     -2.948352   -0.779636    0.891272
  H     -2.057902   -2.003783   -0.024489
  H     -2.969067   -0.748859   -0.875325
  H      2.967781   -0.792620    0.887475
  H      2.967835   -0.791393   -0.884532
  H      2.056037   -2.020563    0.000599
  C     -1.584515    1.314398   -0.003439
  H     -0.742438    1.990883    0.020532
  H     -2.214964    1.510075    0.865851
  H     -2.174889    1.520995   -0.898208
  C      1.557572    1.319858    0.004768
  H      2.641128    1.410734    0.000608
  H      1.188866    1.815734    0.903245
  H      1.181111    1.821594   -0.887112

----------------------------
CARTESIAN COORDINATES (A.U.)
----------------------------
  NO LB      ZA    FRAG     MASS         X           Y           Z
   0 N     7.0000    0    14.007   -2.256071   -0.149482   -0.003513
   1 C     6.0000    0    12.011    0.010388   -1.148915    0.000152
   2 N     7.0000    0    14.007    2.288801   -0.168653    0.003430
   3 H     1.0000    0     1.008    0.000368   -3.200487   -0.000523
   4 C     6.0000    0    12.011   -4.438563   -1.808877   -0.005051
   5 C     6.0000    0    12.011    4.457519   -1.845797    0.002542
   6 H     1.0000    0     1.008   -5.571578   -1.473299    1.684261
   7 H     1.0000    0     1.008   -3.888872   -3.786600   -0.046278
   8 H     1.0000    0     1.008   -5.610723   -1.415139   -1.654125
   9 H     1.0000    0     1.008    5.608293   -1.497835    1.677085
  10 H     1.0000    0     1.008    5.608395   -1.495516   -1.671523
  11 H     1.0000    0     1.008    3.885347   -3.818311    0.001131
  12 C     6.0000    0    12.011   -2.994299    2.483851   -0.006498
  13 H     1.0000    0     1.008   -1.403005    3.762224    0.038800
  14 H     1.0000    0     1.008   -4.185676    2.853629    1.636222
  15 H     1.0000    0     1.008   -4.109945    2.874265   -1.697366
  16 C     6.0000    0    12.011    2.943384    2.494171    0.009010
  17 H     1.0000    0     1.008    4.991008    2.665902    0.001149
  18 H     1.0000    0     1.008    2.246631    3.431239    1.706885
  19 H     1.0000    0     1.008    2.231977    3.442314   -1.676398

--------------------------------
INTERNAL COORDINATES (ANGSTROEM)
--------------------------------
 N      0   0   0     0.000000000000     0.00000000     0.00000000
 C      1   0   0     1.310792112564     0.00000000     0.00000000
 N      2   1   0     1.312539737848   132.92491844     0.00000000
 H      2   1   3     1.085658208199   113.51597388   180.03286850
 C      1   2   3     1.450840250611   118.95762593   180.03474897
 C      3   2   1     1.450771183528   119.00468121   180.10855106
 H      5   1   2     1.090940815887   109.78622841   119.34113752
 H      5   1   2     1.086457464651   111.70976844   358.69523702
 H      5   1   2     1.090725457759   109.72627673   238.10462575
 H      6   3   2     1.090856389365   109.75966619   239.58823513
 H      6   3   2     1.090888963189   109.75153971   120.28023192
 H      6   3   2     1.086836900391   111.54002745   359.93811278
 C      1   2   3     1.447222928596   129.45620918     0.03577945
 H     13   1   2     1.080416507546   113.10896112   358.64941343
 H     13   1   2     1.091522434277   109.12658588   237.54995594
 H     13   1   2     1.091712297351   109.21327573   119.88133157
 C      3   2   1     1.451059585581   127.09008878     0.13425061
 H     17   3   2     1.087367822209   108.60419806   180.27731483
 H     17   3   2     1.090457328316   111.25717292    62.05071766
 H     17   3   2     1.090371513286   111.27003596   298.53951637

---------------------------
INTERNAL COORDINATES (A.U.)
---------------------------
 N      0   0   0     0.000000000000     0.00000000     0.00000000
 C      1   0   0     2.477038111250     0.00000000     0.00000000
 N      2   1   0     2.480340644421   132.92491844     0.00000000
 H      2   1   3     2.051596688540   113.51597388   180.03286850
 C      1   2   3     2.741690737725   118.95762593   180.03474897
 C      3   2   1     2.741560219852   119.00468121   180.10855106
 H      5   1   2     2.061579370343   109.78622841   119.34113752
 H      5   1   2     2.053107064344   111.70976844   358.69523702
 H      5   1   2     2.061172402460   109.72627673   238.10462575
 H      6   3   2     2.061419827338   109.75966619   239.58823513
 H      6   3   2     2.061481382944   109.75153971   120.28023192
 H      6   3   2     2.053824093978   111.54002745   359.93811278
 C      1   2   3     2.734854989778   129.45620918     0.03577945
 H     13   1   2     2.041691309830   113.10896112   358.64941343
 H     13   1   2     2.062678469815   109.12658588   237.54995594
 H     13   1   2     2.063037259027   109.21327573   119.88133157
 C      3   2   1     2.742105220750   127.09008878     0.13425061
 H     17   3   2     2.054827390813   108.60419806   180.27731483
 H     17   3   2     2.060665711244   111.25717292    62.05071766
 H     17   3   2     2.060503544340   111.27003596   298.53951637

---------------------
BASIS SET INFORMATION
---------------------
There are 3 groups of distinct atoms

 Group   1 Type N   : 7s4p1d contracted to 3s2p1d pattern {511/31/1}
 Group   2 Type C   : 7s4p1d contracted to 3s2p1d pattern {511/31/1}
 Group   3 Type H   : 4s1p contracted to 2s1p pattern {31/1}

Atom   0N    basis set group =>   1
Atom   1C    basis set group =>   2
Atom   2N    basis set group =>   1
Atom   3H    basis set group =>   3
Atom   4C    basis set group =>   2
Atom   5C    basis set group =>   2
Atom   6H    basis set group =>   3
Atom   7H    basis set group =>   3
Atom   8H    basis set group =>   3
Atom   9H    basis set group =>   3
Atom  10H    basis set group =>   3
Atom  11H    basis set group =>   3
Atom  12C    basis set group =>   2
Atom  13H    basis set group =>   3
Atom  14H    basis set group =>   3
Atom  15H    basis set group =>   3
Atom  16C    basis set group =>   2
Atom  17H    basis set group =>   3
Atom  18H    basis set group =>   3
Atom  19H    basis set group =>   3
---------------------------------
AUXILIARY/J BASIS SET INFORMATION
---------------------------------
There are 3 groups of distinct atoms

 Group   1 Type N   : 12s5p4d2f1g contracted to 6s4p3d1f1g pattern {711111/2111/211/2/1}
 Group   2 Type C   : 12s5p4d2f1g contracted to 6s4p3d1f1g pattern {711111/2111/211/2/1}
 Group   3 Type H   : 5s2p1d contracted to 3s1p1d pattern {311/2/1}

Atom   0N    basis set group =>   1
Atom   1C    basis set group =>   2
Atom   2N    basis set group =>   1
Atom   3H    basis set group =>   3
Atom   4C    basis set group =>   2
Atom   5C    basis set group =>   2
Atom   6H    basis set group =>   3
Atom   7H    basis set group =>   3
Atom   8H    basis set group =>   3
Atom   9H    basis set group =>   3
Atom  10H    basis set group =>   3
Atom  11H    basis set group =>   3
Atom  12C    basis set group =>   2
Atom  13H    basis set group =>   3
Atom  14H    basis set group =>   3
Atom  15H    basis set group =>   3
Atom  16C    basis set group =>   2
Atom  17H    basis set group =>   3
Atom  18H    basis set group =>   3
Atom  19H    basis set group =>   3
------------------------------------------------------------------------------
                           ORCA GTO INTEGRAL CALCULATION
                           -- RI-GTO INTEGRALS CHOSEN --
------------------------------------------------------------------------------
------------------------------------------------------------------------------
                   ___                                                        
                  /   \      - P O W E R E D   B Y -                         
                 /     \                                                     
                 |  |  |   _    _      __       _____    __    __             
                 |  |  |  | |  | |    /  \     |  _  \  |  |  /  |          
                  \  \/   | |  | |   /    \    | | | |  |  | /  /          
                 / \  \   | |__| |  /  /\  \   | |_| |  |  |/  /          
                |  |  |   |  __  | /  /__\  \  |    /   |      \           
                |  |  |   | |  | | |   __   |  |    \   |  |\   \          
                \     /   | |  | | |  |  |  |  | |\  \  |  | \   \       
                 \___/    |_|  |_| |__|  |__|  |_| \__\ |__|  \__/        
                                                                              
                      - O R C A' S   B I G   F R I E N D -                    
                                      &                                       
                       - I N T E G R A L  F E E D E R -                       
                                                                              
 v1 FN, 2020, v2 2021                                                         
------------------------------------------------------------------------------


Reading SHARK input file 11_prot_aq_2.SHARKINP.tmp ... ok
----------------------
SHARK INTEGRAL PACKAGE
----------------------

Number of atoms                             ...     20
Number of basis functions                   ...    163
Number of shells                            ...     81
Maximum angular momentum                    ...      2
Integral batch strategy                     ... SHARK/LIBINT Hybrid
RI-J (if used) integral strategy            ... SPLIT-RIJ (Revised 2003 algorithm where possible)
Printlevel                                  ...      1
Contraction scheme used                     ... SEGMENTED contraction
Coulomb Range Separation                    ... NOT USED
Exchange Range Separation                   ... Long Range
   Mu parameter                             ...  0.300000
   Scaling (regular/separated)              ...  0.157706  0.842294
Finite Nucleus Model                        ... NOT USED
Auxiliary Coulomb fitting basis             ... AVAILABLE
   # of basis functions in Aux-J            ...    486
   # of shells in Aux-J                     ...    170
   Maximum angular momentum in Aux-J        ...      4
Auxiliary J/K fitting basis                 ... NOT available
Auxiliary Correlation fitting basis         ... NOT available
Auxiliary 'external' fitting basis          ... NOT available
Integral threshold                          ...     2.500000e-11
Primitive cut-off                           ...     2.500000e-12
Primitive pair pre-selection threshold      ...     2.500000e-12

Calculating pre-screening integrals         ... done (  0.0 sec) Dimension = 81
Organizing shell pair data                  ... done (  0.0 sec)
Shell pair information
Total number of shell pairs                 ...      3321
Shell pairs after pre-screening             ...      3139
Total number of primitive shell pairs       ...     11305
Primitive shell pairs kept                  ...      7984
          la=0 lb=0:   1076 shell pairs
          la=1 lb=0:   1202 shell pairs
          la=1 lb=1:    343 shell pairs
          la=2 lb=0:    314 shell pairs
          la=2 lb=1:    176 shell pairs
          la=2 lb=2:     28 shell pairs

Calculating one electron integrals          ... done (  0.0 sec)
Calculating RI/J V-Matrix + Cholesky decomp.... done (  0.0 sec)
Calculating Nuclear repulsion               ... done (  0.0 sec) ENN=    333.486709725899 Eh

SHARK setup successfully completed in   0.2 seconds

Maximum memory used throughout the entire GTOINT-calculation: 20.3 MB
-------------------------------------------------------------------------------
                                 ORCA SCF
-------------------------------------------------------------------------------

------------
SCF SETTINGS
------------
Hamiltonian:
 Density Functional     Method          .... DFT(GTOs)
 Exchange Functional    Exchange        .... WB97X
 Correlation Functional Correlation     .... WB97X
 Gradients option       PostSCFGGA      .... off
 Hybrid DFT is turned on
   Fraction HF Exchange ScalHFX         ....  0.157706
   Scaling of DF-GGA-X  ScalDFX         ....  0.000000
   Scaling of DF-GGA-C  ScalDFC         ....  1.000000
   Scaling of DF-LDA-C  ScalLDAC        ....  1.000000
   Perturbative correction              ....  0.000000
   Density functional embedding theory  .... OFF
 Long-range corrected/Screened/Range-Separated Hybrid DFT is turned on
   Amount of maximum screened exact exchange              ....  0.842294
   Range separation parameter mu (erf(mu*r12)/r12)        ....  0.300000
 RI-approximation to the Coulomb term is turned on
   Number of AuxJ basis functions       .... 486
   RIJ-COSX (HFX calculated with COS-X)).... on


General Settings:
 Integral files         IntName         .... 11_prot_aq_2
 Hartree-Fock type      HFTyp           .... RHF
 Total Charge           Charge          ....    1
 Multiplicity           Mult            ....    1
 Number of Electrons    NEL             ....   56
 Basis Dimension        Dim             ....  163
 Nuclear Repulsion      ENuc            ....    333.4867097259 Eh

Convergence Acceleration:
 DIIS                   CNVDIIS         .... on
   Start iteration      DIISMaxIt       ....     0
   Startup error        DIISStart       ....  0.200000
   # of expansion vecs  DIISMaxEq       ....     5
   Bias factor          DIISBfac        ....   1.050
   Max. coefficient     DIISMaxC        ....  10.000
 Trust-Rad. Augm. Hess. CNVTRAH         .... auto
   Auto Start mean grad. ratio tolernc. ....  1.125000
   Auto Start start iteration           ....    20
   Auto Start num. interpolation iter.  ....    10
   Max. Number of Micro iterations      ....    16
   Max. Number of Macro iterations      .... Maxiter - #DIIS iter
   Number of Davidson start vectors     ....     2
   Converg. threshold I  (grad. norm)   ....   1.000e-05
   Converg. threshold II (energy diff.) ....   1.000e-08
   Grad. Scal. Fac. for Micro threshold ....   0.100
   Minimum threshold for Micro iter.    ....   0.010
   NR start threshold (gradient norm)   ....   0.001
   Initial trust radius                 ....   0.400
   Minimum AH scaling param. (alpha)    ....   1.000
   Maximum AH scaling param. (alpha)    .... 1000.000
   Orbital update algorithm             .... Taylor
   White noise on init. David. guess    .... on
   Maximum white noise                  ....   0.010
   Quad. conv. algorithm                .... NR
 SOSCF                  CNVSOSCF        .... on
   Start iteration      SOSCFMaxIt      ....   150
   Startup grad/error   SOSCFStart      ....  0.001000
 Level Shifting         CNVShift        .... on
   Level shift para.    LevelShift      ....    0.2500
   Turn off err/grad.   ShiftErr        ....    0.0000
 Zerner damping         CNVZerner       .... off
 Static damping         CNVDamp         .... on
   Fraction old density DampFac         ....    0.8500
   Max. Damping (<1)    DampMax         ....    0.9800
   Min. Damping (>=0)   DampMin         ....    0.0000
   Turn off err/grad.   DampErr         ....    0.0300
 Fernandez-Rico         CNVRico         .... off

SCF Procedure:
 Maximum # iterations   MaxIter         ....   125
 SCF integral mode      SCFMode         .... Direct
   Integral package                     .... SHARK and LIBINT hybrid scheme
 Reset frequency        DirectResetFreq ....    20
 Integral Threshold     Thresh          ....  2.500e-11 Eh
 Primitive CutOff       TCut            ....  2.500e-12 Eh

Convergence Tolerance:
 Convergence Check Mode ConvCheckMode   .... Total+1el-Energy
 Convergence forced     ConvForced      .... 0
 Energy Change          TolE            ....  1.000e-08 Eh
 1-El. energy change                    ....  1.000e-05 Eh
 Orbital Gradient       TolG            ....  1.000e-05
 Orbital Rotation angle TolX            ....  1.000e-05
 DIIS Error             TolErr          ....  5.000e-07


Diagonalization of the overlap matrix:
Smallest eigenvalue                        ... 4.142e-03
Time for diagonalization                   ...    0.005 sec
Threshold for overlap eigenvalues          ... 1.000e-08
Number of eigenvalues below threshold      ... 0
Time for construction of square roots      ...    0.002 sec
Total time needed                          ...    0.007 sec

Time for model grid setup =    0.237 sec

------------------------------
INITIAL GUESS: MODEL POTENTIAL
------------------------------
Loading Hartree-Fock densities                     ... done
Calculating cut-offs                               ... done
Initializing the effective Hamiltonian             ... done
Setting up the integral package (SHARK)            ... done
Starting the Coulomb interaction                   ... done (   0.2 sec)
Reading the grid                                   ... done
Mapping shells                                     ... done
Starting the XC term evaluation                    ... done (   0.3 sec)
  promolecular density results
     # of electrons  =     56.995384931
     EX              =    -42.567335847
     EC              =     -1.875033110
     EX+EC           =    -44.442368957
Transforming the Hamiltonian                       ... done (   0.0 sec)
Diagonalizing the Hamiltonian                      ... done (   0.0 sec)
Back transforming the eigenvectors                 ... done (   0.0 sec)
Now organizing SCF variables                       ... done
                      ------------------
                      INITIAL GUESS DONE (   0.7 sec)
                      ------------------
-------------------
DFT GRID GENERATION
-------------------

General Integration Accuracy     IntAcc      ... 4.388
Radial Grid Type                 RadialGrid  ... OptM3 with GC (2021)
Angular Grid (max. ang.)         AngularGrid ... 4 (Lebedev-302)
Angular grid pruning method      GridPruning ... 4 (adaptive)
Weight generation scheme         WeightScheme... Becke
Basis function cutoff            BFCut       ... 1.0000e-11
Integration weight cutoff        WCut        ... 1.0000e-14
Angular grids for H and He will be reduced by one unit
Partially contracted basis set               ... off
Rotationally invariant grid construction     ... off

Total number of grid points                  ...    83724
Total number of batches                      ...     1318
Average number of points per batch           ...       63
Average number of grid points per atom       ...     4186
Time for grid setup =    0.949 sec

--------------------
COSX GRID GENERATION
--------------------

GRIDX 1
-------
General Integration Accuracy     IntAcc      ... 3.816
Radial Grid Type                 RadialGrid  ... OptM3 with GC (2021)
Angular Grid (max. ang.)         AngularGrid ... 1 (Lebedev-50)
Angular grid pruning method      GridPruning ... 4 (adaptive)
Weight generation scheme         WeightScheme... Becke
Basis function cutoff            BFCut       ... 1.0000e-11
Integration weight cutoff        WCut        ... 1.0000e-14
Angular grids for H and He will be reduced by one unit
Partially contracted basis set               ... on
Rotationally invariant grid construction     ... off

Total number of grid points                  ...    10790
Total number of batches                      ...      180
Average number of points per batch           ...       59
Average number of grid points per atom       ...      540
UseSFitting                                  ... on

GRIDX 2
-------
General Integration Accuracy     IntAcc      ... 4.020
Radial Grid Type                 RadialGrid  ... OptM3 with GC (2021)
Angular Grid (max. ang.)         AngularGrid ... 2 (Lebedev-110)
Angular grid pruning method      GridPruning ... 4 (adaptive)
Weight generation scheme         WeightScheme... Becke
Basis function cutoff            BFCut       ... 1.0000e-11
Integration weight cutoff        WCut        ... 1.0000e-14
Angular grids for H and He will be reduced by one unit
Partially contracted basis set               ... on
Rotationally invariant grid construction     ... off

Total number of grid points                  ...    22372
Total number of batches                      ...      360
Average number of points per batch           ...       62
Average number of grid points per atom       ...     1119
UseSFitting                                  ... on

GRIDX 3
-------
General Integration Accuracy     IntAcc      ... 4.338
Radial Grid Type                 RadialGrid  ... OptM3 with GC (2021)
Angular Grid (max. ang.)         AngularGrid ... 3 (Lebedev-194)
Angular grid pruning method      GridPruning ... 4 (adaptive)
Weight generation scheme         WeightScheme... Becke
Basis function cutoff            BFCut       ... 1.0000e-11
Integration weight cutoff        WCut        ... 1.0000e-14
Angular grids for H and He will be reduced by one unit
Partially contracted basis set               ... on
Rotationally invariant grid construction     ... off

Total number of grid points                  ...    48765
Total number of batches                      ...      775
Average number of points per batch           ...       62
Average number of grid points per atom       ...     2438
UseSFitting                                  ... on

Time for X-Grid setup             =    1.152 sec


--------------------
CPCM SOLVATION MODEL
--------------------
CPCM parameters:
  Epsilon                                         ...      80.4000
  Refrac                                          ...       1.3300
  Rsolv                                           ...       1.3000
  Surface type                                    ... GAUSSIAN VDW
  Epsilon function type                           ...         CPCM
Radii:
 Radius for N  used is    3.5149 Bohr (=   1.8600 Ang.)
 Radius for C  used is    3.8550 Bohr (=   2.0400 Ang.)
 Radius for H  used is    2.4944 Bohr (=   1.3200 Ang.)
Calculating surface                               ...        done! (  0.0s)
GEPOL surface points                              ...         1100
GEPOL Volume                                      ...     998.9006
GEPOL Surface-area                                ...     586.0392
Calculating surface distance matrix               ...        done! (  0.0s)
Performing Cholesky decomposition & store         ...        done! (  0.0s)
Overall time for CPCM initialization              ...                 0.0s
--------------
SCF ITERATIONS
--------------
ITER       Energy         Delta-E        Max-DP      RMS-DP      [F,P]     Damp
               ***  Starting incremental Fock matrix formation  ***
  0   -307.3005011081   0.000000000000 0.02462619  0.00064411  0.1117674 0.8500
  1   -307.3221727899  -0.021671681727 0.02235601  0.00059498  0.0906406 0.8500
                               ***Turning on DIIS***
  2   -307.3386600709  -0.016487281000 0.01765543  0.00047997  0.0702266 0.8500
  3   -307.3509845939  -0.012324523014 0.01139946  0.00033650  0.0538300 0.8500
  4   -307.3605466093  -0.009562015423 0.00786834  0.00025586  0.0431533 0.8500
  5   -307.3681065319  -0.007559922617 0.00609044  0.00021007  0.0358474 0.8500
  6   -307.3742706333  -0.006164101406 0.00499707  0.00017755  0.0302618 0.8500
  7   -307.3793839258  -0.005113292468 0.02865767  0.00102214  0.0257036 0.0000
  8   -307.4067585364  -0.027374610602 0.00114090  0.00003407  0.0010764 0.0000
                      *** Initiating the SOSCF procedure ***
                           *** Shutting down DIIS ***
                      *** Re-Reading the Fockian *** 
                      *** Removing any level shift *** 
ITER      Energy       Delta-E        Grad      Rot      Max-DP    RMS-DP
  9   -307.40676833  -0.0000097983  0.000263  0.000263  0.000466  0.000015
               *** Restarting incremental Fock matrix formation ***
 10   -307.40683013  -0.0000617946  0.000247  0.000459  0.000444  0.000011
 11   -307.40683054  -0.0000004061  0.000086  0.000148  0.000172  0.000006
 12   -307.40683065  -0.0000001114  0.000022  0.000024  0.000025  0.000001
 13   -307.40683066  -0.0000000109  0.000004  0.000006  0.000008  0.000000
                  ***Gradient check signals convergence***
              ***Rediagonalizing the Fockian in SOSCF/NRSCF***

               *****************************************************
               *                     SUCCESS                       *
               *           SCF CONVERGED AFTER  14 CYCLES          *
               *****************************************************

Old exchange energy                            =    -14.240122151 Eh
New exchange energy                            =    -14.240060718 Eh
Exchange energy change after final integration =      0.000061433 Eh
Total energy after final integration           =   -307.406769228 Eh
Final COS-X integration done in                =    23.069 sec

----------------
TOTAL SCF ENERGY
----------------

Total Energy       :         -307.40676923 Eh           -8364.96346 eV

Components:
Nuclear Repulsion  :          333.48670973 Eh            9074.63472 eV
Electronic Energy  :         -640.89347895 Eh          -17439.59817 eV
One Electron Energy:        -1062.70223720 Eh          -28917.59802 eV
Two Electron Energy:          421.80875825 Eh           11477.99984 eV
Max COSX asymmetry :            0.00000466 Eh               0.00013 eV
CPCM Dielectric    :           -0.08225088 Eh              -2.23816 eV

Virial components:
Potential Energy   :         -611.21550246 Eh          -16632.01938 eV
Kinetic Energy     :          303.80873323 Eh            8267.05592 eV
Virial Ratio       :            2.01184310


DFT components:
N(Alpha)           :       28.000078026225 electrons
N(Beta)            :       28.000078026225 electrons
N(Total)           :       56.000156052451 electrons
E(XC)              :      -31.242911664850 Eh       
DFET-embed. en.    :        0.000000000000 Eh       
CPCM Solvation Model Properties:
Surface-charge          :           -1.01522946
Charge-correction       :            0.00123385 Eh               0.03357 eV
Free-energy (cav+disp)  :  This term is not implemented in the current solvation scheme

---------------
SCF CONVERGENCE
---------------

  Last Energy change         ...   -2.6939e-09  Tolerance :   1.0000e-08
  Last MAX-Density change    ...    4.4409e-15  Tolerance :   1.0000e-07
  Last RMS-Density change    ...    4.4349e-17  Tolerance :   5.0000e-09
  Last Orbital Gradient      ...    8.7676e-07  Tolerance :   1.0000e-05
  Last Orbital Rotation      ...    2.5777e-06  Tolerance :   1.0000e-05

             **** THE GBW FILE WAS UPDATED (11_prot_aq_2.gbw) ****
             **** DENSITY 11_prot_aq_2.scfp WAS UPDATED ****
             **** ENERGY FILE WAS UPDATED (11_prot_aq_2.en.tmp) ****
             **** THE GBW FILE WAS UPDATED (11_prot_aq_2.gbw) ****
             **** DENSITY 11_prot_aq_2.scfp WAS UPDATED ****
----------------
ORBITAL ENERGIES
----------------

  NO   OCC          E(Eh)            E(eV) 
   0   2.0000     -14.487742      -394.2315 
   1   2.0000     -14.485856      -394.1802 
   2   2.0000     -10.399057      -282.9727 
   3   2.0000     -10.315914      -280.7103 
   4   2.0000     -10.314474      -280.6711 
   5   2.0000     -10.314199      -280.6636 
   6   2.0000     -10.313581      -280.6468 
   7   2.0000      -1.157593       -31.4997 
   8   2.0000      -1.097955       -29.8769 
   9   2.0000      -0.905186       -24.6314 
  10   2.0000      -0.875694       -23.8288 
  11   2.0000      -0.860238       -23.4083 
  12   2.0000      -0.815171       -22.1819 
  13   2.0000      -0.712867       -19.3981 
  14   2.0000      -0.659876       -17.9561 
  15   2.0000      -0.657126       -17.8813 
  16   2.0000      -0.630715       -17.1626 
  17   2.0000      -0.594874       -16.1874 
  18   2.0000      -0.584958       -15.9175 
  19   2.0000      -0.557063       -15.1584 
  20   2.0000      -0.532662       -14.4945 
  21   2.0000      -0.527350       -14.3499 
  22   2.0000      -0.522798       -14.2261 
  23   2.0000      -0.516184       -14.0461 
  24   2.0000      -0.510377       -13.8881 
  25   2.0000      -0.484800       -13.1921 
  26   2.0000      -0.473511       -12.8849 
  27   2.0000      -0.358849        -9.7648 
  28   0.0000       0.065235         1.7751 
  29   0.0000       0.134612         3.6630 
  30   0.0000       0.163392         4.4461 
  31   0.0000       0.168340         4.5808 
  32   0.0000       0.191440         5.2093 
  33   0.0000       0.197747         5.3810 
  34   0.0000       0.208504         5.6737 
  35   0.0000       0.213974         5.8225 
  36   0.0000       0.224496         6.1088 
  37   0.0000       0.229802         6.2532 
  38   0.0000       0.234283         6.3752 
  39   0.0000       0.238909         6.5010 
  40   0.0000       0.248884         6.7725 
  41   0.0000       0.263096         7.1592 
  42   0.0000       0.264617         7.2006 
  43   0.0000       0.282893         7.6979 
  44   0.0000       0.311904         8.4874 
  45   0.0000       0.329382         8.9629 
  46   0.0000       0.371851        10.1186 
  47   0.0000       0.425487        11.5781 
  48   0.0000       0.460505        12.5310 
  49   0.0000       0.492949        13.4138 
  50   0.0000       0.506160        13.7733 
  51   0.0000       0.535373        14.5682 
  52   0.0000       0.536260        14.5924 
  53   0.0000       0.558779        15.2051 
  54   0.0000       0.559915        15.2361 
  55   0.0000       0.595097        16.1934 
  56   0.0000       0.595789        16.2122 
  57   0.0000       0.666873        18.1465 
  58   0.0000       0.671817        18.2811 
  59   0.0000       0.690125        18.7793 
  60   0.0000       0.691995        18.8301 
  61   0.0000       0.705852        19.2072 
  62   0.0000       0.712391        19.3851 
  63   0.0000       0.735851        20.0235 
  64   0.0000       0.750179        20.4134 
  65   0.0000       0.753299        20.4983 
  66   0.0000       0.764444        20.8016 
  67   0.0000       0.767411        20.8823 
  68   0.0000       0.774383        21.0720 
  69   0.0000       0.776724        21.1357 
  70   0.0000       0.778231        21.1767 
  71   0.0000       0.785641        21.3784 
  72   0.0000       0.793223        21.5847 
  73   0.0000       0.794531        21.6203 
  74   0.0000       0.804006        21.8781 
  75   0.0000       0.823229        22.4012 
  76   0.0000       0.846992        23.0478 
  77   0.0000       0.879160        23.9232 
  78   0.0000       0.916769        24.9465 
  79   0.0000       0.941303        25.6142 
  80   0.0000       0.964420        26.2432 
  81   0.0000       0.986541        26.8452 
  82   0.0000       1.073546        29.2127 
  83   0.0000       1.137204        30.9449 
  84   0.0000       1.194171        32.4951 
  85   0.0000       1.221875        33.2489 
  86   0.0000       1.226193        33.3664 
  87   0.0000       1.251259        34.0485 
  88   0.0000       1.294094        35.2141 
  89   0.0000       1.296668        35.2841 
  90   0.0000       1.328651        36.1544 
  91   0.0000       1.353522        36.8312 
  92   0.0000       1.441495        39.2251 
  93   0.0000       1.492594        40.6155 
  94   0.0000       1.516076        41.2545 
  95   0.0000       1.572506        42.7901 
  96   0.0000       1.619222        44.0613 
  97   0.0000       1.626323        44.2545 
  98   0.0000       1.630849        44.3777 
  99   0.0000       1.639895        44.6238 
 100   0.0000       1.653016        44.9808 
 101   0.0000       1.660111        45.1739 
 102   0.0000       1.664505        45.2935 
 103   0.0000       1.754879        47.7527 
 104   0.0000       1.762226        47.9526 
 105   0.0000       1.834363        49.9155 
 106   0.0000       1.860640        50.6306 
 107   0.0000       1.868252        50.8377 
 108   0.0000       1.881204        51.1902 
 109   0.0000       1.884990        51.2932 
 110   0.0000       1.889315        51.4109 
 111   0.0000       1.902346        51.7655 
 112   0.0000       1.922839        52.3231 
 113   0.0000       1.926164        52.4136 
 114   0.0000       1.943239        52.8782 
 115   0.0000       1.949917        53.0599 
 116   0.0000       1.963221        53.4220 
 117   0.0000       1.995506        54.3005 
 118   0.0000       2.009753        54.6882 
 119   0.0000       2.026267        55.1375 
 120   0.0000       2.075422        56.4751 
 121   0.0000       2.094636        56.9979 
 122   0.0000       2.103107        57.2285 
 123   0.0000       2.143509        58.3278 
 124   0.0000       2.147003        58.4229 
 125   0.0000       2.168318        59.0029 
 126   0.0000       2.190618        59.6097 
 127   0.0000       2.231387        60.7191 
 128   0.0000       2.270571        61.7854 
 129   0.0000       2.300779        62.6074 
 130   0.0000       2.346786        63.8593 
 131   0.0000       2.354859        64.0790 
 132   0.0000       2.358004        64.1645 
 133   0.0000       2.394430        65.1557 
 134   0.0000       2.469938        67.2104 
 135   0.0000       2.472080        67.2687 
 136   0.0000       2.527021        68.7637 
 137   0.0000       2.549998        69.3890 
 138   0.0000       2.567077        69.8537 
 139   0.0000       2.583764        70.3078 
 140   0.0000       2.708128        73.6919 
 141   0.0000       2.715302        73.8871 
 142   0.0000       2.725088        74.1534 
 143   0.0000       2.730313        74.2956 
 144   0.0000       2.779275        75.6279 
 145   0.0000       2.794523        76.0428 
 146   0.0000       2.818993        76.7087 
 147   0.0000       2.868411        78.0534 
 148   0.0000       2.889965        78.6399 
 149   0.0000       2.912436        79.2514 
 150   0.0000       2.991322        81.3980 
 151   0.0000       2.999280        81.6146 
 152   0.0000       3.025835        82.3372 
 153   0.0000       3.036687        82.6324 
 154   0.0000       3.051684        83.0405 
 155   0.0000       3.072445        83.6055 
 156   0.0000       3.073143        83.6245 
 157   0.0000       3.110622        84.6443 
 158   0.0000       3.113222        84.7151 
 159   0.0000       3.200365        87.0864 
 160   0.0000       3.260660        88.7271 
 161   0.0000       3.456283        94.0502 
 162   0.0000       3.614479        98.3550 

                    ********************************
                    * MULLIKEN POPULATION ANALYSIS *
                    ********************************

-----------------------
MULLIKEN ATOMIC CHARGES
-----------------------
   0 N :   -0.285432
   1 C :    0.230083
   2 N :   -0.294235
   3 H :    0.105883
   4 C :    0.081193
   5 C :    0.075293
   6 H :    0.074476
   7 H :    0.081286
   8 H :    0.073546
   9 H :    0.078865
  10 H :    0.078963
  11 H :    0.079028
  12 C :    0.082582
  13 H :    0.067590
  14 H :    0.075668
  15 H :    0.076829
  16 C :    0.054278
  17 H :    0.076616
  18 H :    0.093961
  19 H :    0.093528
Sum of atomic charges:    1.0000000

--------------------------------
MULLIKEN REDUCED ORBITAL CHARGES
--------------------------------
  0 N s       :     3.394375  s :     3.394375
      pz      :     1.558489  p :     3.860878
      px      :     1.107952
      py      :     1.194437
      dz2     :     0.002294  d :     0.030179
      dxz     :     0.005681
      dyz     :     0.003966
      dx2y2   :     0.008667
      dxy     :     0.009570
  1 C s       :     3.056717  s :     3.056717
      pz      :     0.804128  p :     2.635285
      px      :     0.852127
      py      :     0.979029
      dz2     :     0.004850  d :     0.077916
      dxz     :     0.029974
      dyz     :     0.003051
      dx2y2   :     0.021398
      dxy     :     0.018643
  2 N s       :     3.398181  s :     3.398181
      pz      :     1.568493  p :     3.866292
      px      :     1.109106
      py      :     1.188693
      dz2     :     0.002310  d :     0.029762
      dxz     :     0.005286
      dyz     :     0.003940
      dx2y2   :     0.008922
      dxy     :     0.009304
  3 H s       :     0.871199  s :     0.871199
      pz      :     0.002936  p :     0.022918
      px      :     0.001633
      py      :     0.018349
  4 C s       :     3.007280  s :     3.007280
      pz      :     1.067239  p :     2.872635
      px      :     0.854353
      py      :     0.951043
      dz2     :     0.007055  d :     0.038892
      dxz     :     0.011478
      dyz     :     0.002595
      dx2y2   :     0.006802
      dxy     :     0.010962
  5 C s       :     3.010884  s :     3.010884
      pz      :     1.065412  p :     2.874482
      px      :     0.859130
      py      :     0.949939
      dz2     :     0.007181  d :     0.039341
      dxz     :     0.011585
      dyz     :     0.002636
      dx2y2   :     0.006730
      dxy     :     0.011210
  6 H s       :     0.901798  s :     0.901798
      pz      :     0.012705  p :     0.023726
      px      :     0.006962
      py      :     0.004059
  7 H s       :     0.894440  s :     0.894440
      pz      :     0.005095  p :     0.024274
      px      :     0.003758
      py      :     0.015421
  8 H s       :     0.902707  s :     0.902707
      pz      :     0.012370  p :     0.023747
      px      :     0.007231
      py      :     0.004146
  9 H s       :     0.897595  s :     0.897595
      pz      :     0.012453  p :     0.023540
      px      :     0.007095
      py      :     0.003992
 10 H s       :     0.897498  s :     0.897498
      pz      :     0.012448  p :     0.023539
      px      :     0.007095
      py      :     0.003996
 11 H s       :     0.896760  s :     0.896760
      pz      :     0.005063  p :     0.024213
      px      :     0.003824
      py      :     0.015326
 12 C s       :     2.994036  s :     2.994036
      pz      :     1.067051  p :     2.884814
      px      :     1.047853
      py      :     0.769911
      dz2     :     0.007113  d :     0.038568
      dxz     :     0.007578
      dyz     :     0.006197
      dx2y2   :     0.008746
      dxy     :     0.008935
 13 H s       :     0.906626  s :     0.906626
      pz      :     0.005348  p :     0.025784
      px      :     0.012139
      py      :     0.008298
 14 H s       :     0.900549  s :     0.900549
      pz      :     0.012306  p :     0.023783
      px      :     0.008489
      py      :     0.002988
 15 H s       :     0.899414  s :     0.899414
      pz      :     0.012718  p :     0.023757
      px      :     0.008012
      py      :     0.003027
 16 C s       :     3.017706  s :     3.017706
      pz      :     1.057688  p :     2.889955
      px      :     1.066816
      py      :     0.765451
      dz2     :     0.007384  d :     0.038061
      dxz     :     0.002878
      dyz     :     0.010440
      dx2y2   :     0.011868
      dxy     :     0.005490
 17 H s       :     0.898970  s :     0.898970
      pz      :     0.005189  p :     0.024414
      px      :     0.016479
      py      :     0.002746
 18 H s       :     0.882098  s :     0.882098
      pz      :     0.012726  p :     0.023941
      px      :     0.005992
      py      :     0.005223
 19 H s       :     0.882523  s :     0.882523
      pz      :     0.012619  p :     0.023949
      px      :     0.006038
      py      :     0.005292


                     *******************************
                     * LOEWDIN POPULATION ANALYSIS *
                     *******************************

----------------------
LOEWDIN ATOMIC CHARGES
----------------------
   0 N :    0.025495
   1 C :    0.170484
   2 N :    0.019030
   3 H :    0.064051
   4 C :    0.053182
   5 C :    0.051712
   6 H :    0.041899
   7 H :    0.045436
   8 H :    0.041990
   9 H :    0.041953
  10 H :    0.041986
  11 H :    0.044647
  12 C :    0.045475
  13 H :    0.039810
  14 H :    0.045516
  15 H :    0.045480
  16 C :    0.039677
  17 H :    0.050418
  18 H :    0.045883
  19 H :    0.045875

-------------------------------
LOEWDIN REDUCED ORBITAL CHARGES
-------------------------------
  0 N s       :     3.044355  s :     3.044355
      pz      :     1.486863  p :     3.862195
      px      :     1.176466
      py      :     1.198865
      dz2     :     0.004142  d :     0.067954
      dxz     :     0.009524
      dyz     :     0.006832
      dx2y2   :     0.021974
      dxy     :     0.025482
  1 C s       :     2.821189  s :     2.821189
      pz      :     0.826890  p :     2.824238
      px      :     0.960616
      py      :     1.036733
      dz2     :     0.011068  d :     0.184089
      dxz     :     0.060700
      dyz     :     0.005277
      dx2y2   :     0.060282
      dxy     :     0.046762
  2 N s       :     3.045880  s :     3.045880
      pz      :     1.496622  p :     3.867858
      px      :     1.175858
      py      :     1.195378
      dz2     :     0.004190  d :     0.067232
      dxz     :     0.009087
      dyz     :     0.006627
      dx2y2   :     0.022454
      dxy     :     0.024874
  3 H s       :     0.866603  s :     0.866603
      pz      :     0.009865  p :     0.069346
      px      :     0.007301
      py      :     0.052180
  4 C s       :     2.824144  s :     2.824144
      pz      :     1.095052  p :     3.025765
      px      :     0.929313
      py      :     1.001400
      dz2     :     0.017569  d :     0.096909
      dxz     :     0.030696
      dyz     :     0.004954
      dx2y2   :     0.016811
      dxy     :     0.026879
  5 C s       :     2.825151  s :     2.825151
      pz      :     1.093600  p :     3.025226
      px      :     0.931079
      py      :     1.000548
      dz2     :     0.017798  d :     0.097910
      dxz     :     0.031159
      dyz     :     0.005064
      dx2y2   :     0.016514
      dxy     :     0.027376
  6 H s       :     0.891386  s :     0.891386
      pz      :     0.034276  p :     0.066715
      px      :     0.020675
      py      :     0.011764
  7 H s       :     0.886872  s :     0.886872
      pz      :     0.013705  p :     0.067693
      px      :     0.011145
      py      :     0.042842
  8 H s       :     0.891270  s :     0.891270
      pz      :     0.033362  p :     0.066740
      px      :     0.021369
      py      :     0.012009
  9 H s       :     0.891517  s :     0.891517
      pz      :     0.033937  p :     0.066530
      px      :     0.020919
      py      :     0.011674
 10 H s       :     0.891489  s :     0.891489
      pz      :     0.033925  p :     0.066525
      px      :     0.020919
      py      :     0.011681
 11 H s       :     0.887872  s :     0.887872
      pz      :     0.013607  p :     0.067481
      px      :     0.011293
      py      :     0.042582
 12 C s       :     2.820267  s :     2.820267
      pz      :     1.095992  p :     3.037458
      px      :     1.071477
      py      :     0.869990
      dz2     :     0.017744  d :     0.096801
      dxz     :     0.020216
      dyz     :     0.014564
      dx2y2   :     0.021401
      dxy     :     0.022875
 13 H s       :     0.888752  s :     0.888752
      pz      :     0.014326  p :     0.071438
      px      :     0.032957
      py      :     0.024155
 14 H s       :     0.887633  s :     0.887633
      pz      :     0.033143  p :     0.066850
      px      :     0.023604
      py      :     0.010103
 15 H s       :     0.887686  s :     0.887686
      pz      :     0.034260  p :     0.066834
      px      :     0.022317
      py      :     0.010257
 16 C s       :     2.824536  s :     2.824536
      pz      :     1.091716  p :     3.040393
      px      :     1.083126
      py      :     0.865552
      dz2     :     0.018231  d :     0.095394
      dxz     :     0.006831
      dyz     :     0.027175
      dx2y2   :     0.030478
      dxy     :     0.012679
 17 H s       :     0.881985  s :     0.881985
      pz      :     0.013833  p :     0.067597
      px      :     0.045019
      py      :     0.008744
 18 H s       :     0.886191  s :     0.886191
      pz      :     0.034925  p :     0.067926
      px      :     0.016427
      py      :     0.016574
 19 H s       :     0.886186  s :     0.886186
      pz      :     0.034620  p :     0.067939
      px      :     0.016563
      py      :     0.016756


                      *****************************
                      * MAYER POPULATION ANALYSIS *
                      *****************************

  NA   - Mulliken gross atomic population
  ZA   - Total nuclear charge
  QA   - Mulliken gross atomic charge
  VA   - Mayer's total valence
  BVA  - Mayer's bonded valence
  FA   - Mayer's free valence

  ATOM       NA         ZA         QA         VA         BVA        FA
  0 N      7.2854     7.0000    -0.2854     3.4218     3.4218    -0.0000
  1 C      5.7699     6.0000     0.2301     3.9926     3.9926    -0.0000
  2 N      7.2942     7.0000    -0.2942     3.4064     3.4064     0.0000
  3 H      0.8941     1.0000     0.1059     1.0057     1.0057    -0.0000
  4 C      5.9188     6.0000     0.0812     3.8900     3.8900     0.0000
  5 C      5.9247     6.0000     0.0753     3.8933     3.8933    -0.0000
  6 H      0.9255     1.0000     0.0745     0.9926     0.9926     0.0000
  7 H      0.9187     1.0000     0.0813     0.9957     0.9957     0.0000
  8 H      0.9265     1.0000     0.0735     0.9930     0.9930     0.0000
  9 H      0.9211     1.0000     0.0789     0.9878     0.9878     0.0000
 10 H      0.9210     1.0000     0.0790     0.9878     0.9878     0.0000
 11 H      0.9210     1.0000     0.0790     0.9972     0.9972    -0.0000
 12 C      5.9174     6.0000     0.0826     3.8791     3.8791     0.0000
 13 H      0.9324     1.0000     0.0676     1.0200     1.0200     0.0000
 14 H      0.9243     1.0000     0.0757     0.9943     0.9943     0.0000
 15 H      0.9232     1.0000     0.0768     0.9938     0.9938     0.0000
 16 C      5.9457     6.0000     0.0543     3.8869     3.8869    -0.0000
 17 H      0.9234     1.0000     0.0766     1.0026     1.0026    -0.0000
 18 H      0.9060     1.0000     0.0940     0.9855     0.9855    -0.0000
 19 H      0.9065     1.0000     0.0935     0.9857     0.9857    -0.0000

  Mayer bond orders larger than 0.100000
B(  0-N ,  1-C ) :   1.4494 B(  0-N ,  4-C ) :   0.9262 B(  0-N , 12-C ) :   0.9223 
B(  1-C ,  2-N ) :   1.4439 B(  1-C ,  3-H ) :   0.9577 B(  2-N ,  5-C ) :   0.9262 
B(  2-N , 16-C ) :   0.9147 B(  4-C ,  6-H ) :   0.9731 B(  4-C ,  7-H ) :   0.9692 
B(  4-C ,  8-H ) :   0.9725 B(  5-C ,  9-H ) :   0.9740 B(  5-C , 10-H ) :   0.9740 
B(  5-C , 11-H ) :   0.9696 B( 12-C , 13-H ) :   0.9676 B( 12-C , 14-H ) :   0.9696 
B( 12-C , 15-H ) :   0.9701 B( 16-C , 17-H ) :   0.9661 B( 16-C , 18-H ) :   0.9703 
B( 16-C , 19-H ) :   0.9704 

-------
TIMINGS
-------

Total SCF time: 0 days 0 hours 2 min 36 sec 

Total time                  ....     156.404 sec
Sum of individual times     ....     156.053 sec  ( 99.8%)

Fock matrix formation       ....     153.136 sec  ( 97.9%)
  Split-RI-J                ....       5.399 sec  (  3.5% of F)
  Chain of spheres X        ....     120.582 sec  ( 78.7% of F)
  XC integration            ....      17.444 sec  ( 11.4% of F)
    Basis function eval.    ....       6.435 sec  ( 36.9% of XC)
    Density eval.           ....       3.702 sec  ( 21.2% of XC)
    XC-Functional eval.     ....       2.906 sec  ( 16.7% of XC)
    XC-Potential eval.      ....       3.852 sec  ( 22.1% of XC)
Diagonalization             ....       0.051 sec  (  0.0%)
Density matrix formation    ....       0.006 sec  (  0.0%)
Population analysis         ....       0.009 sec  (  0.0%)
Initial guess               ....       0.480 sec  (  0.3%)
Orbital Transformation      ....       0.000 sec  (  0.0%)
Orbital Orthonormalization  ....       0.000 sec  (  0.0%)
DIIS solution               ....       0.016 sec  (  0.0%)
SOSCF solution              ....       0.017 sec  (  0.0%)
Grid generation             ....       2.338 sec  (  1.5%)

Maximum memory used throughout the entire SCF-calculation: 68.9 MB


-------------------------------------------------------------------------------
                          DFT DISPERSION CORRECTION                            
                                                                               
                                 DFTD4 V2.5                                    
-------------------------------------------------------------------------------
The WB97X functional is recognized
Active option DFTDOPT                   ...         5   

Starting D4
-------------------------   ----------------
Dispersion correction           -0.002057582
-------------------------   ----------------


-------------------------   --------------------
FINAL SINGLE POINT ENERGY      -307.408826810009
-------------------------   --------------------

------------------------------------------------------------------------------
                         ORCA SCF GRADIENT CALCULATION
------------------------------------------------------------------------------

 ... reading COSX grid (gridx3)
Gradient of the Kohn-Sham DFT energy:
Kohn-Sham wavefunction type      ... RKS
Hartree-Fock exchange scaling    ...    0.158
Number of operators              ...    1
Number of atoms                  ...   20
Basis set dimensions             ...  163
Integral neglect threshold       ... 2.5e-11
Integral primitive cutoff        ... 2.5e-12
SHARK Integral package           ... ON

Nuc. rep. gradient       (SHARK) ... done (  0.0 sec)
HCore & Overlap gradient (SHARK) ... done (  0.3 sec)
RI-J gradient            (SHARK) ... done (  1.2 sec)
COSX-gradient                    ... done ( 25.6 sec)
Exchange-correlation gradient    ... done
Dispersion correction            ... Starting D4


------------------- 
Dispersion Gradient 
------------------- 
   1  :   -0.000017939   -0.000000656   -0.000000028
   2  :    0.000000329   -0.000008605   -0.000000001
   3  :    0.000018635   -0.000000802    0.000000034
   4  :    0.000000070   -0.000001914    0.000000013
   5  :   -0.000036672   -0.000014494   -0.000000027
   6  :    0.000036651   -0.000015385    0.000000022
   7  :   -0.000007209   -0.000002784   -0.000000260
   8  :   -0.000010281   -0.000003955   -0.000000039
   9  :   -0.000007145   -0.000002766    0.000000256
  10  :    0.000007055   -0.000002818   -0.000000218
  11  :    0.000007064   -0.000002823    0.000000226
  12  :    0.000010344   -0.000003969    0.000000007
  13  :   -0.000024863    0.000022135   -0.000000078
  14  :   -0.000006023    0.000003048    0.000000022
  15  :   -0.000007229    0.000002343    0.000000481
  16  :   -0.000007221    0.000002386   -0.000000545
  17  :    0.000023406    0.000023540    0.000000092
  18  :    0.000006873    0.000002026    0.000000015
  19  :    0.000007099    0.000002747    0.000001103
  20  :    0.000007056    0.000002746   -0.000001074

  |G| =    0.000083109

done

------------------
CARTESIAN GRADIENT
------------------

   1   N   :    0.001021511   -0.003143774   -0.000013490
   2   C   :   -0.002280991    0.004725343    0.000061502
   3   N   :    0.000669556   -0.003371373   -0.000002685
   4   H   :    0.000132040    0.006483559    0.000039194
   5   C   :    0.002425069    0.003600286   -0.000131037
   6   C   :   -0.002914236    0.003627263   -0.000009888
   7   H   :    0.002805936   -0.001711977   -0.005593838
   8   H   :   -0.003909995    0.006304784    0.000107369
   9   H   :    0.002890130   -0.001858426    0.005561701
  10   H   :   -0.003117066   -0.001445231   -0.005143875
  11   H   :   -0.003113368   -0.001454079    0.005122692
  12   H   :    0.004019130    0.006129297    0.000001273
  13   C   :   -0.000763546   -0.004281845    0.000151692
  14   H   :   -0.006594793   -0.003959966   -0.000185429
  15   H   :    0.002784860   -0.000544963   -0.005236654
  16   H   :    0.002577893   -0.000600235    0.005304511
  17   C   :    0.003104606   -0.004009338   -0.000028856
  18   H   :   -0.005837260    0.000829005    0.000069800
  19   H   :    0.003091785   -0.002996741   -0.004705930
  20   H   :    0.003139092   -0.003039794    0.004689259

Difference to translation invariance:
           :    0.0001303524   -0.0007182045    0.0000573104

Difference to rotation invariance:
           :    0.0003083807   -0.0000216151   -0.0011688744

Norm of the cartesian gradient     ...    0.0263396402
RMS gradient                       ...    0.0034004329
MAX gradient                       ...    0.0065947935

-------
TIMINGS
-------

Total SCF gradient time            ...       34.870 sec

One electron gradient       ....       0.259 sec  (  0.7%)
RI-J Coulomb gradient       ....       1.247 sec  (  3.6%)
COSX gradient               ....      25.601 sec  ( 73.4%)
XC gradient                 ....       6.149 sec  ( 17.6%)
CPCM gradient               ....       0.585 sec  (  1.7%)
   A-Matrix (El+Nuc)        ....       0.061 sec  (  0.2%)
   Potential                ....       0.524 sec  (  1.5%)

Maximum memory used throughout the entire SCFGRAD-calculation: 55.3 MB
------------------------------------------------------------------------------
                         ORCA GEOMETRY RELAXATION STEP
------------------------------------------------------------------------------

Reading the OPT-File                    .... done
Getting information on internals        .... done
Copying old internal coords+grads       .... done
Making the new internal coordinates     .... (new redundants).... done
Validating the new internal coordinates .... (new redundants).... done
Calculating the B-matrix                .... done
Calculating the G,G- and P matrices     .... done
Transforming gradient to internals      .... done
Projecting the internal gradient        .... done
Number of atoms                         ....  20
Number of internal coordinates          ....  84
Current Energy                          ....  -307.408826810 Eh
Current gradient norm                   ....     0.026339640 Eh/bohr
Maximum allowed component of the step   ....  0.300
Current trust radius                    ....  0.300
Evaluating the initial hessian          ....  (Almloef) done
Projecting the Hessian                  .... done
Forming the augmented Hessian           .... done
Diagonalizing the augmented Hessian     .... done
Last element of RFO vector              ....  0.996032471
Lowest eigenvalues of augmented Hessian:
 -0.003078316  0.017054512  0.017082946  0.017091044  0.017548335
Length of the computed step             ....  0.089345022
The final length of the internal step   ....  0.089345022
Converting the step to cartesian space:
 Initial RMS(Int)=    0.0097483411
Transforming coordinates:
 Iter   0:  RMS(Cart)=    0.0385448875 RMS(Int)=    0.0098350440
 Iter   1:  RMS(Cart)=    0.0005434556 RMS(Int)=    0.0002164071
 Iter   2:  RMS(Cart)=    0.0000120630 RMS(Int)=    0.0000044477
 Iter   3:  RMS(Cart)=    0.0000003775 RMS(Int)=    0.0000001340
 Iter   4:  RMS(Cart)=    0.0000000086 RMS(Int)=    0.0000000045
done
Storing new coordinates                 .... done

                                .--------------------.
          ----------------------|Geometry convergence|-------------------------
          Item                value                   Tolerance       Converged
          ---------------------------------------------------------------------
          RMS gradient        0.0038132929            0.0001000000      NO
          MAX gradient        0.0099093687            0.0003000000      NO
          RMS step            0.0097483411            0.0020000000      NO
          MAX step            0.0230741930            0.0040000000      NO
          ........................................................
          Max(Bonds)      0.0107      Max(Angles)    1.32
          Max(Dihed)        0.24      Max(Improp)    0.00
          ---------------------------------------------------------------------

The optimization has not yet converged - more geometry cycles are needed


    ---------------------------------------------------------------------------
                         Redundant Internal Coordinates
                            (Angstroem and degrees)

        Definition                    Value    dE/dq     Step     New-Value
    ----------------------------------------------------------------------------
     1. B(C   1,N   0)                1.3108 -0.005310  0.0037    1.3145   
     2. B(N   2,C   1)                1.3125 -0.003039  0.0022    1.3147   
     3. B(H   3,C   1)                1.0857 -0.006520  0.0094    1.0950   
     4. B(C   4,N   0)                1.4508 -0.007240  0.0085    1.4593   
     5. B(C   5,N   2)                1.4508 -0.008371  0.0098    1.4606   
     6. B(H   6,C   4)                1.0909 -0.006399  0.0094    1.1003   
     7. B(H   7,C   4)                1.0865 -0.007146  0.0103    1.0967   
     8. B(H   8,C   4)                1.0907 -0.006444  0.0094    1.1001   
     9. B(H   9,C   5)                1.0909 -0.006155  0.0090    1.0999   
    10. B(H  10,C   5)                1.0909 -0.006138  0.0090    1.0999   
    11. B(H  11,C   5)                1.0868 -0.007052  0.0102    1.0970   
    12. B(C  12,N   0)                1.4472 -0.008379  0.0097    1.4569   
    13. B(H  13,C  12)                1.0804 -0.007617  0.0107    1.0911   
    14. B(H  14,C  12)                1.0915 -0.005870  0.0086    1.1001   
    15. B(H  15,C  12)                1.0917 -0.005837  0.0086    1.1003   
    16. B(C  16,N   2)                1.4511 -0.007956  0.0094    1.4604   
    17. B(H  17,C  16)                1.0874 -0.005757  0.0083    1.0957   
    18. B(H  18,C  16)                1.0905 -0.006268  0.0091    1.0996   
    19. B(H  19,C  16)                1.0904 -0.006287  0.0092    1.0995   
    20. A(C   1,N   0,C  12)          129.46  0.006033   -0.85    128.61   
    21. A(C   1,N   0,C   4)          118.96  0.001628   -0.25    118.70   
    22. A(C   4,N   0,C  12)          111.59 -0.007661    1.10    112.69   
    23. A(N   0,C   1,H   3)          113.52 -0.004849    0.64    114.16   
    24. A(N   2,C   1,H   3)          113.56 -0.005060    0.68    114.24   
    25. A(N   0,C   1,N   2)          132.92  0.009909   -1.32    131.60   
    26. A(C   1,N   2,C  16)          127.09  0.005931   -0.84    126.25   
    27. A(C   5,N   2,C  16)          113.91 -0.007996    1.15    115.06   
    28. A(C   1,N   2,C   5)          119.00  0.002065   -0.31    118.69   
    29. A(N   0,C   4,H   7)          111.71  0.002648   -0.50    111.21   
    30. A(H   7,C   4,H   8)          108.68 -0.001545    0.24    108.92   
    31. A(H   6,C   4,H   8)          108.18 -0.001173    0.29    108.47   
    32. A(N   0,C   4,H   8)          109.73  0.000753   -0.13    109.60   
    33. A(H   6,C   4,H   7)          108.69 -0.001536    0.25    108.93   
    34. A(N   0,C   4,H   6)          109.79  0.000695   -0.12    109.67   
    35. A(N   2,C   5,H  11)          111.54  0.003023   -0.57    110.97   
    36. A(H   9,C   5,H  10)          108.62 -0.000540    0.18    108.80   
    37. A(N   2,C   5,H  10)          109.75  0.000043   -0.00    109.75   
    38. A(N   2,C   5,H   9)          109.76  0.000040   -0.00    109.76   
    39. A(H  10,C   5,H  11)          108.55 -0.001340    0.21    108.76   
    40. A(H   9,C   5,H  11)          108.55 -0.001335    0.20    108.76   
    41. A(H  14,C  12,H  15)          107.85 -0.001191    0.34    108.19   
    42. A(H  13,C  12,H  15)          108.73 -0.000723    0.08    108.81   
    43. A(N   0,C  12,H  15)          109.21  0.000484   -0.07    109.15   
    44. A(H  13,C  12,H  14)          108.68 -0.000699    0.07    108.74   
    45. A(N   0,C  12,H  14)          109.13  0.000534   -0.08    109.05   
    46. A(N   0,C  12,H  13)          113.11  0.001461   -0.31    112.80   
    47. A(N   2,C  16,H  19)          111.27  0.000017   -0.03    111.24   
    48. A(H  17,C  16,H  18)          107.58 -0.001148    0.27    107.85   
    49. A(N   2,C  16,H  18)          111.26  0.000025   -0.03    111.22   
    50. A(N   2,C  16,H  17)          108.60  0.001651   -0.24    108.36   
    51. A(H  18,C  16,H  19)          110.36  0.000517   -0.20    110.16   
    52. A(H  17,C  16,H  19)          107.61 -0.001121    0.26    107.87   
    53. D(H   3,C   1,N   0,C  12)   -179.93 -0.000030    0.03   -179.90   
    54. D(H   3,C   1,N   0,C   4)      0.07 -0.000035    0.04      0.11   
    55. D(N   2,C   1,N   0,C   4)   -179.97 -0.000038    0.05   -179.92   
    56. D(N   2,C   1,N   0,C  12)      0.04 -0.000032    0.04      0.07   
    57. D(C  16,N   2,C   1,N   0)      0.13  0.000007   -0.00      0.13   
    58. D(C   5,N   2,C   1,N   0)   -179.89  0.000013   -0.02   -179.91   
    59. D(C   5,N   2,C   1,H   3)      0.08  0.000010   -0.02      0.06   
    60. D(C  16,N   2,C   1,H   3)   -179.90  0.000004   -0.00   -179.90   
    61. D(H   7,C   4,N   0,C   1)     -1.30 -0.000038    0.13     -1.18   
    62. D(H   7,C   4,N   0,C  12)    178.69 -0.000042    0.14    178.83   
[...]
     29      -0.491716  -0.094361   0.055506  -0.004537  -0.000782  -0.570431
     30      -0.325230  -0.063566   0.037774   0.003154   0.000603   0.389686
     31      -0.103826  -0.019630   0.011183   0.001008   0.000127   0.127884
     32       0.490314   0.093979  -0.055315  -0.004571  -0.000784  -0.568897
     33       0.140049   0.026725  -0.015581  -0.000023   0.000016  -0.000375
     34       0.424463   0.083132  -0.049222  -0.000078   0.000051  -0.001129
     35       0.000735   0.000148  -0.000091   0.000086  -0.000023   0.008588
     36       0.001480   0.017877   0.039882   0.002196  -0.000803  -0.000032
     37      -0.000510  -0.016282  -0.030166   0.000196  -0.000100  -0.000005
     38       0.000033   0.000642   0.001367  -0.088733   0.034495   0.000870
     39       0.002635   0.118293   0.193841   0.002811  -0.000977   0.000057
     40       0.001411   0.086185   0.141448   0.001906  -0.000674   0.000035
     41       0.000105   0.002920   0.005056  -0.008388   0.004663   0.000043
     42      -0.009168  -0.171283  -0.334824  -0.381970   0.147519   0.004344
     43       0.002547   0.051351   0.103506   0.113385  -0.041798  -0.001119
     44       0.013733   0.245237   0.482693   0.528417  -0.204653  -0.005741
     45      -0.008674  -0.164038  -0.320884   0.353492  -0.137238  -0.004002
     46       0.002726   0.055525   0.111719  -0.118096   0.043801   0.001156
     47      -0.014189  -0.255862  -0.503931   0.532276  -0.207103  -0.005731
     48      -0.000381  -0.000295  -0.000895  -0.000039   0.000013  -0.000133
     49      -0.010424   0.043652  -0.022252  -0.000024   0.000005  -0.000033
     50      -0.000168   0.000725  -0.000363   0.003576  -0.000961   0.007559
     51       0.104690  -0.391538   0.204166   0.000691  -0.000203   0.002056
     52       0.006449  -0.029952   0.015756   0.000056  -0.000017   0.000173
     53      -0.000703   0.002569  -0.001358   0.000450  -0.000101   0.001285
     54      -0.049656   0.195205  -0.101390   0.009603  -0.002786   0.021127
     55       0.057984  -0.240374   0.122703  -0.011720   0.003238  -0.025917
     56       0.114153  -0.456532   0.230476  -0.021487   0.006051  -0.046452
     57      -0.050397   0.198012  -0.102708  -0.010047   0.002913  -0.021598
     58       0.057984  -0.240200   0.122554   0.011986  -0.003305   0.026071
     59      -0.111500   0.445627  -0.224793  -0.021436   0.006021  -0.045651
                 54         55         56         57         58         59    
      0       0.000005  -0.000118  -0.000884  -0.000884  -0.002195   0.000054
      1       0.000004   0.000059  -0.000078  -0.000008   0.001489  -0.001474
      2      -0.000117  -0.000002  -0.000001  -0.000003  -0.000000  -0.000009
      3      -0.000005   0.000013   0.000060  -0.000216  -0.000645  -0.000160
      4       0.000031  -0.005409  -0.009799  -0.003431  -0.088047   0.000884
      5       0.000176  -0.000001  -0.000021  -0.000009  -0.000126  -0.000004
      6      -0.000009   0.000986   0.000671  -0.000126   0.002290  -0.000114
      7      -0.000025   0.000376  -0.000300   0.000122   0.001486   0.000101
      8       0.000657   0.000011  -0.000003   0.000000   0.000004   0.000001
      9      -0.000003  -0.000204  -0.000430   0.003860   0.005813  -0.000560
     10      -0.000405   0.064374   0.104791   0.038739   0.987533  -0.003994
     11      -0.001128   0.000092   0.000183   0.000090   0.001483   0.000008
     12      -0.000003  -0.000696  -0.025961  -0.042371   0.003615  -0.000315
     13       0.000002   0.001136   0.042183   0.069141  -0.007294  -0.000187
     14      -0.000267   0.000001   0.000267   0.000443  -0.000065   0.000017
     15      -0.000078   0.024353   0.038243  -0.024146  -0.003840   0.000148
     16      -0.000149   0.038487   0.059123  -0.037540  -0.007389   0.000103
     17       0.007558  -0.000012   0.000074  -0.000043  -0.000010   0.000006
     18      -0.001323   0.002348   0.085611   0.139450  -0.011051   0.000551
     19       0.000448  -0.000570  -0.025581  -0.041714   0.004601  -0.000712
     20       0.001999  -0.003688  -0.135055  -0.220231   0.018578  -0.000534
     21      -0.000004   0.003697   0.139575   0.228989  -0.025992   0.000072
     22       0.000021  -0.011857  -0.439535  -0.720909   0.078997  -0.002458
     23       0.000143  -0.000150  -0.005539  -0.009071   0.000915  -0.000026
     24       0.001358   0.002511   0.089900   0.146424  -0.011571   0.000501
     25      -0.000497  -0.000695  -0.029427  -0.047980   0.005117  -0.000748
     26       0.001984   0.003834   0.137425   0.224067  -0.018745   0.000434
     27      -0.031421  -0.079549  -0.128630   0.080896   0.011744  -0.000408
     28      -0.010713  -0.024315  -0.037458   0.023704   0.004780  -0.000191
     29      -0.046297  -0.124842  -0.200113   0.126044   0.019439  -0.000579
     30       0.031927  -0.080492  -0.129570   0.081509   0.011830  -0.000372
     31       0.010991  -0.024898  -0.038147   0.024152   0.004844  -0.000171
     32      -0.046843   0.125553   0.200333  -0.126228  -0.019453   0.000519
     33       0.000427  -0.132041  -0.205930   0.130887   0.027891  -0.000394
     34       0.001353  -0.400683  -0.618523   0.392870   0.079764  -0.000749
     35       0.000393  -0.000708  -0.001051   0.000666   0.000136  -0.000006
     36       0.000119  -0.002915   0.001157  -0.000788  -0.000681   0.079207
     37       0.000021  -0.001040   0.000340  -0.000681   0.001256   0.044083
     38      -0.003188  -0.000064   0.000120   0.000127   0.000006   0.001879
     39      -0.000421   0.023148  -0.009621   0.007469  -0.006578  -0.776385
     40      -0.000125   0.016083  -0.007084   0.004774  -0.005281  -0.565951
     41       0.000192   0.000503  -0.000203   0.000168  -0.000144  -0.019514
     42      -0.017150   0.004489  -0.001386   0.001201   0.003889  -0.098532
     43       0.003473  -0.002162  -0.000004  -0.001616  -0.000805   0.031966
     44       0.021388  -0.007749   0.002134  -0.002820  -0.005010   0.150575
     45       0.015903   0.004335  -0.002074   0.000022   0.003596  -0.091670
     46      -0.003596  -0.002219   0.000265  -0.001242  -0.000883   0.033667
     47       0.021407   0.008041  -0.003329   0.001208   0.005058  -0.153149
     48       0.001162  -0.081702   0.038967  -0.022169   0.002521  -0.001911
     49       0.000412   0.014214  -0.006830   0.004086   0.000886   0.001381
     50      -0.095901  -0.001089   0.000361  -0.000208   0.000011   0.000015
     51      -0.020103   0.778362  -0.370844   0.210649  -0.023237   0.021789
     52      -0.001463   0.057053  -0.028809   0.016313  -0.000947   0.000547
     53      -0.010814  -0.005067   0.002395  -0.001361   0.000144  -0.000072
     54      -0.258674   0.087654  -0.041935   0.024277   0.000450   0.014487
     55       0.309094  -0.114092   0.053384  -0.031029  -0.000311  -0.011624
     56       0.575122  -0.221594   0.104081  -0.060225   0.000645  -0.019171
     57       0.265289   0.099899  -0.046881   0.027120   0.000332   0.014609
     58      -0.312066  -0.126725   0.058356  -0.033874  -0.000179  -0.011760
     59       0.566698   0.239537  -0.110743   0.064034  -0.000904   0.018848


-----------
IR SPECTRUM
-----------

 Mode   freq       eps      Int      T**2         TX        TY        TZ
       cm**-1   L/(mol*cm) km/mol    a.u.
----------------------------------------------------------------------------
  7:     70.31   0.000032    0.16  0.000140  (-0.001418  0.000323 -0.011762)
  8:    147.21   0.000523    2.64  0.001109  (-0.000481 -0.000016  0.033295)
  9:    184.38   0.000007    0.03  0.000011  (-0.000227  0.000329 -0.003301)
 10:    223.75   0.000233    1.18  0.000325  (-0.000312  0.000197 -0.018026)
 11:    264.86   0.000041    0.21  0.000049  (-0.005190  0.004406 -0.001525)
 12:    285.03   0.000512    2.59  0.000561  ( 0.000714 -0.000259 -0.023669)
 13:    328.22   0.000062    0.31  0.000059  ( 0.000273 -0.000024 -0.007655)
 14:    338.43   0.000005    0.02  0.000004  (-0.001732  0.001090  0.000028)
 15:    411.75   0.000023    0.12  0.000018  (-0.003584 -0.002175 -0.000125)
 16:    466.55   0.008984   45.40  0.006009  ( 0.000037 -0.000011 -0.077519)
 17:    487.49   0.000457    2.31  0.000293  ( 0.017060  0.001019 -0.000705)
 18:    628.29   0.000261    1.32  0.000129  ( 0.003356 -0.010868  0.000215)
 19:    886.34   0.001243    6.28  0.000438  (-0.006334  0.019941 -0.000025)
 20:    924.02   0.004536   22.92  0.001532  ( 0.039058 -0.002541  0.000096)
 21:   1021.35   0.000390    1.97  0.000119  (-0.000001 -0.000227  0.010912)
 22:   1081.84   0.005803   29.33  0.001674  ( 0.030315  0.027476  0.000094)
 23:   1095.22   0.003406   17.21  0.000971  (-0.006420 -0.030484 -0.000114)
 24:   1108.74   0.000038    0.19  0.000011  ( 0.000184 -0.000206  0.003278)
 25:   1122.95   0.000172    0.87  0.000048  (-0.001923 -0.000047  0.006642)
 26:   1131.40   0.000201    1.01  0.000055  (-0.001070  0.007363 -0.000053)
 27:   1162.70   0.000000    0.00  0.000000  (-0.000059  0.000033  0.000299)
 28:   1172.36   0.000038    0.19  0.000010  ( 0.002113  0.000513  0.002328)
 29:   1186.37   0.028569  144.38  0.007515  (-0.086556  0.004780 -0.000140)
 30:   1239.97   0.000847    4.28  0.000213  (-0.013974 -0.004236  0.000030)
 31:   1340.28   0.009194   46.46  0.002141  ( 0.015952 -0.043429  0.000098)
 32:   1430.37   0.008173   41.30  0.001783  (-0.042173  0.002134 -0.000195)
 33:   1437.46   0.000111    0.56  0.000024  (-0.004819  0.000215 -0.000855)
 34:   1441.64   0.009991   50.49  0.002163  ( 0.046367 -0.003563 -0.000056)
 35:   1443.87   0.000295    1.49  0.000064  ( 0.006326  0.001205  0.004715)
 36:   1451.20   0.004190   21.18  0.000901  ( 0.000448 -0.000329  0.030013)
 37:   1453.33   0.001676    8.47  0.000360  (-0.012749 -0.005114 -0.013084)
 38:   1454.62   0.005323   26.90  0.001142  ( 0.024199  0.000468 -0.023584)
 39:   1455.92   0.011233   56.77  0.002408  (-0.006315 -0.000216 -0.048660)
 40:   1466.60   0.002527   12.77  0.000538  (-0.007954  0.021292 -0.004591)
 41:   1468.42   0.000217    1.09  0.000046  (-0.002881  0.006003  0.001302)
 42:   1472.36   0.005257   26.57  0.001114  (-0.009927 -0.031852 -0.001083)
 43:   1490.02   0.002379   12.02  0.000498  ( 0.022267  0.001536 -0.000248)
 44:   1521.74   0.019662   99.36  0.004032  ( 0.062869  0.008921  0.000005)
 45:   1567.62   0.008137   41.12  0.001620  (-0.000239  0.040247  0.000118)
 46:   1802.09   0.239224  1208.94  0.041426  ( 0.203532 -0.000484  0.000371)
 47:   3081.59   0.007248   36.63  0.000734  ( 0.026304  0.006489 -0.000110)
 48:   3083.60   0.004276   21.61  0.000433  ( 0.015919 -0.013392  0.000025)
 49:   3089.87   0.002785   14.07  0.000281  ( 0.016277  0.004030  0.000251)
 50:   3094.34   0.004292   21.69  0.000433  ( 0.012346 -0.016744  0.000168)
 51:   3180.12   0.002024   10.23  0.000199  ( 0.000220 -0.000069 -0.014091)
 52:   3184.27   0.000641    3.24  0.000063  (-0.000092 -0.000005 -0.007924)
 53:   3188.42   0.001518    7.67  0.000149  (-0.000028 -0.000022  0.012189)
 54:   3200.40   0.000407    2.06  0.000040  ( 0.000084 -0.000014 -0.006296)
 55:   3219.83   0.000184    0.93  0.000018  (-0.001202  0.004050 -0.000073)
 56:   3223.43   0.000660    3.34  0.000064  ( 0.002844  0.007472  0.000061)
 57:   3223.73   0.000821    4.15  0.000079  (-0.008598  0.002358  0.000028)
 58:   3245.80   0.000288    1.46  0.000028  ( 0.000182  0.005258 -0.000001)
 59:   3308.21   0.000366    1.85  0.000035  (-0.005027  0.003045  0.000101)

* The epsilon (eps) is given for a Dirac delta lineshape.
** The dipole moment derivative (T) already includes vibrational overlap.

The first frequency considered to be a vibration is 7
The total number of vibrations considered is 53


--------------------------
THERMOCHEMISTRY AT 298.15K
--------------------------

Temperature         ... 298.15 K
Pressure            ... 1.00 atm
Total Mass          ... 101.17 AMU

Throughout the following assumptions are being made:
  (1) The electronic state is orbitally nondegenerate
  (2) There are no thermally accessible electronically excited states
  (3) Hindered rotations indicated by low frequency modes are not
      treated as such but are treated as vibrations and this may
      cause some error
  (4) All equations used are the standard statistical mechanics
      equations for an ideal gas
  (5) All vibrations are strictly harmonic

freq.      70.31  E(vib)   ...       0.50 
freq.     147.21  E(vib)   ...       0.41 
freq.     184.38  E(vib)   ...       0.37 
freq.     223.75  E(vib)   ...       0.33 
freq.     264.86  E(vib)   ...       0.29 
freq.     285.03  E(vib)   ...       0.28 
freq.     328.22  E(vib)   ...       0.24 
freq.     338.43  E(vib)   ...       0.23 
freq.     411.75  E(vib)   ...       0.19 
freq.     466.55  E(vib)   ...       0.16 
freq.     487.49  E(vib)   ...       0.15 
freq.     628.29  E(vib)   ...       0.09 
freq.     886.34  E(vib)   ...       0.04 
freq.     924.02  E(vib)   ...       0.03 
freq.    1021.35  E(vib)   ...       0.02 
freq.    1081.84  E(vib)   ...       0.02 
freq.    1095.22  E(vib)   ...       0.02 
freq.    1108.74  E(vib)   ...       0.02 
freq.    1122.95  E(vib)   ...       0.01 
freq.    1131.40  E(vib)   ...       0.01 
freq.    1162.70  E(vib)   ...       0.01 
freq.    1172.36  E(vib)   ...       0.01 
freq.    1186.37  E(vib)   ...       0.01 
freq.    1239.97  E(vib)   ...       0.01 
freq.    1340.28  E(vib)   ...       0.01 
freq.    1430.37  E(vib)   ...       0.00 
freq.    1437.46  E(vib)   ...       0.00 
freq.    1441.64  E(vib)   ...       0.00 
freq.    1443.87  E(vib)   ...       0.00 
freq.    1451.20  E(vib)   ...       0.00 
freq.    1453.33  E(vib)   ...       0.00 
freq.    1454.62  E(vib)   ...       0.00 
freq.    1455.92  E(vib)   ...       0.00 
freq.    1466.60  E(vib)   ...       0.00 
freq.    1468.42  E(vib)   ...       0.00 
freq.    1472.36  E(vib)   ...       0.00 
freq.    1490.02  E(vib)   ...       0.00 
freq.    1521.74  E(vib)   ...       0.00 
freq.    1567.62  E(vib)   ...       0.00 
freq.    1802.09  E(vib)   ...       0.00 
freq.    3081.59  E(vib)   ...       0.00 
freq.    3083.60  E(vib)   ...       0.00 
freq.    3089.87  E(vib)   ...       0.00 
freq.    3094.34  E(vib)   ...       0.00 
freq.    3180.12  E(vib)   ...       0.00 
freq.    3184.27  E(vib)   ...       0.00 
freq.    3188.42  E(vib)   ...       0.00 
freq.    3200.40  E(vib)   ...       0.00 
freq.    3219.83  E(vib)   ...       0.00 
freq.    3223.43  E(vib)   ...       0.00 
freq.    3223.73  E(vib)   ...       0.00 
freq.    3245.80  E(vib)   ...       0.00 
freq.    3308.21  E(vib)   ...       0.00 

------------
INNER ENERGY
------------

The inner energy is: U= E(el) + E(ZPE) + E(vib) + E(rot) + E(trans)
    E(el)   - is the total energy from the electronic structure calculation
              = E(kin-el) + E(nuc-el) + E(el-el) + E(nuc-nuc)
    E(ZPE)  - the the zero temperature vibrational energy from the frequency calculation
    E(vib)  - the the finite temperature correction to E(ZPE) due to population
              of excited vibrational states
    E(rot)  - is the rotational thermal energy
    E(trans)- is the translational thermal energy

Summary of contributions to the inner energy U:
Electronic energy                ...   -307.41043750 Eh
Zero point energy                ...      0.18678855 Eh     117.21 kcal/mol
Thermal vibrational correction   ...      0.00556527 Eh       3.49 kcal/mol
Thermal rotational correction    ...      0.00141627 Eh       0.89 kcal/mol
Thermal translational correction ...      0.00141627 Eh       0.89 kcal/mol
-----------------------------------------------------------------------
Total thermal energy                   -307.21525114 Eh


Summary of corrections to the electronic energy:
(perhaps to be used in another calculation)
Total thermal correction                  0.00839782 Eh       5.27 kcal/mol
Non-thermal (ZPE) correction              0.18678855 Eh     117.21 kcal/mol
-----------------------------------------------------------------------
Total correction                          0.19518637 Eh     122.48 kcal/mol


--------
ENTHALPY
--------

The enthalpy is H = U + kB*T
                kB is Boltzmann's constant
Total free energy                 ...   -307.21525114 Eh 
Thermal Enthalpy correction       ...      0.00094421 Eh       0.59 kcal/mol
-----------------------------------------------------------------------
Total Enthalpy                    ...   -307.21430693 Eh


Note: Only C1 symmetry has been detected, increase convergence thresholds 
      if your molecule has a higher symmetry. Symmetry factor of 1.0 is   
      used for the rotational entropy correction. 
 

Note: Rotational entropy computed according to Herzberg 
Infrared and Raman Spectra, Chapter V,1, Van Nostrand Reinhold, 1945 
Point Group:  C1, Symmetry Number:   1  
Rotational constants in cm-1:     0.155375     0.055796     0.042391 

Vibrational entropy computed according to the QRRHO of S. Grimme
Chem.Eur.J. 2012 18 9955


-------
ENTROPY
-------

The entropy contributions are T*S = T*(S(el)+S(vib)+S(rot)+S(trans))
     S(el)   - electronic entropy
     S(vib)  - vibrational entropy
     S(rot)  - rotational entropy
     S(trans)- translational entropy
The entropies will be listed as multiplied by the temperature to get
units of energy

Electronic entropy                ...      0.00000000 Eh      0.00 kcal/mol
Vibrational entropy               ...      0.00937316 Eh      5.88 kcal/mol
Rotational entropy                ...      0.01324447 Eh      8.31 kcal/mol
Translational entropy             ...      0.01888776 Eh     11.85 kcal/mol
-----------------------------------------------------------------------
Final entropy term                ...      0.04150539 Eh     26.04 kcal/mol

In case the symmetry of your molecule has not been determined correctly
or in case you have a reason to use a different symmetry number we print 
out the resulting rotational entropy values for sn=1,12 :
 --------------------------------------------------------
|  sn= 1 | S(rot)=       0.01324447 Eh      8.31 kcal/mol|
|  sn= 2 | S(rot)=       0.01259002 Eh      7.90 kcal/mol|
|  sn= 3 | S(rot)=       0.01220718 Eh      7.66 kcal/mol|
|  sn= 4 | S(rot)=       0.01193556 Eh      7.49 kcal/mol|
|  sn= 5 | S(rot)=       0.01172487 Eh      7.36 kcal/mol|
|  sn= 6 | S(rot)=       0.01155273 Eh      7.25 kcal/mol|
|  sn= 7 | S(rot)=       0.01140718 Eh      7.16 kcal/mol|
|  sn= 8 | S(rot)=       0.01128110 Eh      7.08 kcal/mol|
|  sn= 9 | S(rot)=       0.01116989 Eh      7.01 kcal/mol|
|  sn=10 | S(rot)=       0.01107041 Eh      6.95 kcal/mol|
|  sn=11 | S(rot)=       0.01098042 Eh      6.89 kcal/mol|
|  sn=12 | S(rot)=       0.01089827 Eh      6.84 kcal/mol|
 --------------------------------------------------------


-------------------
GIBBS FREE ENERGY
-------------------

The Gibbs free energy is G = H - T*S

Total enthalpy                    ...   -307.21430693 Eh 
Total entropy correction          ...     -0.04150539 Eh    -26.04 kcal/mol
-----------------------------------------------------------------------
Final Gibbs free energy         ...   -307.25581232 Eh

For completeness - the Gibbs free energy minus the electronic energy
G-E(el)                           ...      0.15462519 Eh     97.03 kcal/mol


Timings for individual modules:

Sum of individual times         ...     1433.430 sec (=  23.890 min)
GTO integral calculation        ...        1.362 sec (=   0.023 min)   0.1 %
SCF iterations                  ...      699.092 sec (=  11.652 min)  48.8 %
SCF Gradient evaluation         ...      173.659 sec (=   2.894 min)  12.1 %
Geometry relaxation             ...        0.306 sec (=   0.005 min)   0.0 %
Analytical frequency calculation...      559.012 sec (=   9.317 min)  39.0 %
                             ****ORCA TERMINATED NORMALLY****
TOTAL RUN TIME: 0 days 0 hours 23 minutes 54 seconds 160 msec
