
                                 *****************
                                 * O   R   C   A *
                                 *****************

                                            #,                                       
                                            ###                                      
                                            ####                                     
                                            #####                                    
                                            ######                                   
                                           ########,                                 
                                     ,,################,,,,,                         
                               ,,#################################,,                 
                          ,,##########################################,,             
                       ,#########################################, ''#####,          
                    ,#############################################,,   '####,        
                  ,##################################################,,,,####,       
                ,###########''''           ''''###############################       
              ,#####''   ,,,,##########,,,,          '''####'''          '####       
            ,##' ,,,,###########################,,,                        '##       
           ' ,,###''''                  '''############,,,                           
         ,,##''                                '''############,,,,        ,,,,,,###''
      ,#''                                            '''#######################'''  
     '                                                          ''''####''''         
             ,#######,   #######,   ,#######,      ##                                
            ,#'     '#,  ##    ##  ,#'     '#,    #''#        ######   ,####,        
            ##       ##  ##   ,#'  ##            #'  '#       #        #'  '#        
            ##       ##  #######   ##           ,######,      #####,   #    #        
            '#,     ,#'  ##    ##  '#,     ,#' ,#      #,         ##   #,  ,#        
             '#######'   ##     ##  '#######'  #'      '#     #####' # '####'        



                  #######################################################
                  #                        -***-                        #
                  #          Department of theory and spectroscopy      #
                  #    Directorship and core code : Frank Neese         #
                  #        Max Planck Institute fuer Kohlenforschung    #
                  #                Kaiser Wilhelm Platz 1               #
                  #                 D-45470 Muelheim/Ruhr               #
                  #                      Germany                        #
                  #                                                     #
                  #                  All rights reserved                #
                  #                        -***-                        #
                  #######################################################


                         Program Version 5.0.4 -  RELEASE  -


 With contributions from (in alphabetic order):
   Daniel Aravena         : Magnetic Suceptibility
   Michael Atanasov       : Ab Initio Ligand Field Theory (pilot matlab implementation)
   Alexander A. Auer      : GIAO ZORA, VPT2 properties, NMR spectrum
   Ute Becker             : Parallelization
   Giovanni Bistoni       : ED, misc. LED, open-shell LED, HFLD
   Martin Brehm           : Molecular dynamics
   Dmytro Bykov           : SCF Hessian
   Vijay G. Chilkuri      : MRCI spin determinant printing, contributions to CSF-ICE
   Dipayan Datta          : RHF DLPNO-CCSD density
   Achintya Kumar Dutta   : EOM-CC, STEOM-CC
   Dmitry Ganyushin       : Spin-Orbit,Spin-Spin,Magnetic field MRCI
   Miquel Garcia          : C-PCM and meta-GGA Hessian, CC/C-PCM, Gaussian charge scheme
   Yang Guo               : DLPNO-NEVPT2, F12-NEVPT2, CIM, IAO-localization
   Andreas Hansen         : Spin unrestricted coupled pair/coupled cluster methods
   Benjamin Helmich-Paris : MC-RPA, TRAH-SCF, COSX integrals
   Lee Huntington         : MR-EOM, pCC
   Robert Izsak           : Overlap fitted RIJCOSX, COSX-SCS-MP3, EOM
   Marcus Kettner         : VPT2
   Christian Kollmar      : KDIIS, OOCD, Brueckner-CCSD(T), CCSD density, CASPT2, CASPT2-K
   Simone Kossmann        : Meta GGA functionals, TD-DFT gradient, OOMP2, MP2 Hessian
   Martin Krupicka        : Initial AUTO-CI
   Lucas Lang             : DCDCAS
   Marvin Lechner         : AUTO-CI (C++ implementation), FIC-MRCC
   Dagmar Lenk            : GEPOL surface, SMD
   Dimitrios Liakos       : Extrapolation schemes; Compound Job, initial MDCI parallelization
   Dimitrios Manganas     : Further ROCIS development; embedding schemes
   Dimitrios Pantazis     : SARC Basis sets
   Anastasios Papadopoulos: AUTO-CI, single reference methods and gradients
   Taras Petrenko         : DFT Hessian,TD-DFT gradient, ASA, ECA, R-Raman, ABS, FL, XAS/XES, NRVS
   Peter Pinski           : DLPNO-MP2, DLPNO-MP2 Gradient
   Christoph Reimann      : Effective Core Potentials
   Marius Retegan         : Local ZFS, SOC
   Christoph Riplinger    : Optimizer, TS searches, QM/MM, DLPNO-CCSD(T), (RO)-DLPNO pert. Triples
   Tobias Risthaus        : Range-separated hybrids, TD-DFT gradient, RPA, STAB
   Michael Roemelt        : Original ROCIS implementation
   Masaaki Saitow         : Open-shell DLPNO-CCSD energy and density
   Barbara Sandhoefer     : DKH picture change effects
   Avijit Sen             : IP-ROCIS
   Kantharuban Sivalingam : CASSCF convergence, NEVPT2, FIC-MRCI
   Bernardo de Souza      : ESD, SOC TD-DFT
   Georgi Stoychev        : AutoAux, RI-MP2 NMR, DLPNO-MP2 response
   Willem Van den Heuvel  : Paramagnetic NMR
   Boris Wezisla          : Elementary symmetry handling
   Frank Wennmohs         : Technical directorship


 We gratefully acknowledge several colleagues who have allowed us to
 interface, adapt or use parts of their codes:
   Stefan Grimme, W. Hujo, H. Kruse, P. Pracht,  : VdW corrections, initial TS optimization,
                  C. Bannwarth, S. Ehlert          DFT functionals, gCP, sTDA/sTD-DF
   Ed Valeev, F. Pavosevic, A. Kumar             : LibInt (2-el integral package), F12 methods
   Garnet Chan, S. Sharma, J. Yang, R. Olivares  : DMRG
   Ulf Ekstrom                                   : XCFun DFT Library
   Mihaly Kallay                                 : mrcc  (arbitrary order and MRCC methods)
   Jiri Pittner, Ondrej Demel                    : Mk-CCSD
   Frank Weinhold                                : gennbo (NPA and NBO analysis)
   Christopher J. Cramer and Donald G. Truhlar   : smd solvation model
   Lars Goerigk                                  : TD-DFT with DH, B97 family of functionals
   V. Asgeirsson, H. Jonsson                     : NEB implementation
   FAccTs GmbH                                   : IRC, NEB, NEB-TS, DLPNO-Multilevel, CI-OPT
                                                   MM, QMMM, 2- and 3-layer-ONIOM, Crystal-QMMM,
                                                   LR-CPCM, SF, NACMEs, symmetry and pop. for TD-DFT,
                                                   nearIR, NL-DFT gradient (VV10), updates on ESD,
                                                   ML-optimized integration grids
   S Lehtola, MJT Oliveira, MAL Marques          : LibXC Library
   Liviu Ungur et al                             : ANISO software


 Your calculation uses the libint2 library for the computation of 2-el integrals
 For citations please refer to: http://libint.valeyev.net

 Your ORCA version has been built with support for libXC version: 5.1.0
 For citations please refer to: https://tddft.org/programs/libxc/

 This ORCA versions uses:
   CBLAS   interface :  Fast vector & matrix operations
   LAPACKE interface :  Fast linear algebra routines
   SCALAPACK package :  Parallel linear algebra routines
   Shared memory     :  Shared parallel matrices
   BLAS/LAPACK       :  OpenBLAS 0.3.15  USE64BITINT DYNAMIC_ARCH NO_AFFINITY SkylakeX SINGLE_THREADED
        Core in use  :  SkylakeX
   Copyright (c) 2011-2014, The OpenBLAS Project




***************************************
The coordinates will be read from file: butylamine_deprot_aq_16.xyz
***************************************


Your calculation utilizes the atom-pairwise dispersion correction
based on tight binding partial charges (D4)
Cite in your paper:
E.Caldeweyher, C.Bannwarth, S.Grimme, J.Chem.Phys., (2017), 147, 034112.
E.Caldeweyher, S.Ehlert, A.Hansen, H.Neugebauer, S.Grimme, J.Chem.Phys., (2018), in progress.
   

XCFun DFT library Copyright 2009-2010 Ulf Ekstrom and contributors.
See http://admol.org/xcfun for more information.
This is free software; see the source code for copying conditions.
There is ABSOLUTELY NO WARRANTY; not even for MERCHANTABILITY or FITNESS FOR A PARTICULAR PURPOSE.
For details see the documentation.
Scientific users of this library should cite U. Ekstrom, L. Visscher, R. Bast, A. J. Thorvaldsen and K. Ruud;
J.Chem.Theor.Comp. 2010, DOI: 10.1021/ct100117s
XCFun Version 0.99 

================================================================================

----- Orbital basis set information -----
Your calculation utilizes the basis: def2-SVP
   F. Weigend and R. Ahlrichs, Phys. Chem. Chem. Phys. 7, 3297 (2005).

----- AuxJ basis set information -----
Your calculation utilizes the auxiliary basis: def2/J
   F. Weigend, Phys. Chem. Chem. Phys. 8, 1057 (2006).

================================================================================
                                        WARNINGS
                       Please study these warnings very carefully!
================================================================================

WARNING: Old DensityContainer found on disk!
         Will remove this file - 
         If you want to keep old densities, please start your calculation with a different basename. 


WARNING: Geometry Optimization
  ===> : Switching off AutoStart
         For restart on a previous wavefunction, please use MOREAD

INFO   : the flag for use of the SHARK integral package has been found!

================================================================================
                                       INPUT FILE
================================================================================
NAME = butylamine_deprot_aq_16.inp
|  1> # ORCA 5.0.4 - /users/bwb16179/postgrad/2024_06/pKa_Reviewer_Comments/CREST_Confs/butylamine/butylamine_deprot_aq_16.inp # write input file
|  2> # Basic Mode
|  3> #
|  4> ! Opt Freq wB97X Def2-SVP D4 SlowConv TightSCF Defgrid2 Def2/J RIJCOSX 
|  5> 
|  6> %PAL NPROCS 4 END
|  7> 
|  8> %maxcore 4500
|  9> 
| 10> %geom
| 11> Maxiter 150
| 12> END
| 13> 
| 14> * xyzfile 0 1 butylamine_deprot_aq_16.xyz
| 15> 
| 16>                          ****END OF INPUT****
================================================================================

                       *****************************
                       * Geometry Optimization Run *
                       *****************************

Geometry optimization settings:
Update method            Update   .... BFGS
Choice of coordinates    CoordSys .... Z-matrix Internals
Initial Hessian          InHess   .... Almoef's Model

Convergence Tolerances:
Energy Change            TolE     ....  5.0000e-06 Eh
Max. Gradient            TolMAXG  ....  3.0000e-04 Eh/bohr
RMS Gradient             TolRMSG  ....  1.0000e-04 Eh/bohr
Max. Displacement        TolMAXD  ....  4.0000e-03 bohr
RMS Displacement         TolRMSD  ....  2.0000e-03 bohr
Strict Convergence                ....  False
------------------------------------------------------------------------------
                        ORCA OPTIMIZATION COORDINATE SETUP
------------------------------------------------------------------------------

The optimization will be done in new redundant internal coordinates
Making redundant internal coordinates   ...  (new redundants) done
Evaluating the initial hessian          ...  (Almloef) done
Evaluating the coordinates              ...  done
Calculating the B-matrix                .... done
Calculating the G-matrix                .... done
Diagonalizing the G-matrix              .... done
Small eigenvalue found = 2.670e-02
The first mode is                       ....   33
The number of degrees of freedom        ....   42

    -----------------------------------------------------------------
                    Redundant Internal Coordinates


    -----------------------------------------------------------------
         Definition                    Initial Value    Approx d2E/dq
    -----------------------------------------------------------------
      1. B(C   1,C   0)                  1.6176         0.270815   
      2. B(H   2,C   0)                  1.1289         0.312106   
      3. B(H   3,C   0)                  1.1236         0.318313   
      4. B(H   4,C   0)                  1.1551         0.283535   
      5. B(C   5,C   1)                  1.6611         0.230790   
      6. B(H   6,C   1)                  1.1347         0.305514   
      7. B(H   7,C   1)                  1.1286         0.312444   
      8. B(C   8,C   5)                  1.5623         0.331795   
      9. B(H   9,C   5)                  1.2916         0.171702   
     10. B(H  10,C   5)                  1.2704         0.185600   
     11. B(N  11,C   8)                  1.9149         0.081369   
     12. B(H  12,C   8)                  1.5233         0.073299   
     13. B(H  13,C   8)                  1.5956         0.056211   
     14. B(H  14,N  11)                  1.3193         0.138923   
     15. B(H  15,N  11)                  1.3638         0.117952   
     16. A(H   2,C   0,H   3)          103.8086         0.279029   
     17. A(C   1,C   0,H   2)          111.7553         0.300824   
     18. A(H   3,C   0,H   4)          107.1779         0.274945   
     19. A(H   2,C   0,H   4)          109.4723         0.274118   
     20. A(C   1,C   0,H   3)          111.5812         0.301771   
     21. A(C   1,C   0,H   4)          112.5911         0.296271   
     22. A(C   0,C   1,C   5)          108.9894         0.317742   
     23. A(H   6,C   1,H   7)          102.5970         0.277319   
     24. A(C   5,C   1,H   7)          112.2964         0.293344   
     25. A(C   0,C   1,H   7)          109.2016         0.300876   
     26. A(C   0,C   1,H   6)          112.7878         0.299803   
     27. A(C   5,C   1,H   6)          110.8920         0.292309   
     28. A(C   8,C   5,H   9)          113.3382         0.282730   
     29. A(C   1,C   5,H   9)          114.0453         0.267449   
     30. A(H   9,C   5,H  10)          106.8070         0.235911   
     31. A(C   8,C   5,H  10)          103.3629         0.286173   
     32. A(C   1,C   5,H  10)          111.2701         0.270621   
     33. A(C   1,C   5,C   8)          107.5361         0.328502   
     34. A(N  11,C   8,H  13)          113.8670         0.197564   
     35. A(C   5,C   8,H  13)          111.5677         0.239464   
     36. A(N  11,C   8,H  12)          116.2786         0.204287   
     37. A(C   5,C   8,H  12)          100.4744         0.248781   
     38. A(H  12,C   8,H  13)          107.9421         0.181463   
     39. A(C   5,C   8,N  11)          105.9103         0.276605   
     40. A(H  14,N  11,H  15)          108.9044         0.212450   
     41. A(C   8,N  11,H  15)          112.4425         0.215897   
     42. A(C   8,N  11,H  14)          117.8973         0.220685   
     43. D(H   6,C   1,C   0,H   4)     54.7645         0.006317   
     44. D(C   5,C   1,C   0,H   3)    -61.0500         0.006317   
     45. D(H   7,C   1,C   0,H   3)     61.9552         0.006317   
     46. D(H   6,C   1,C   0,H   2)    -68.9315         0.006317   
     47. D(C   5,C   1,C   0,H   4)    178.3808         0.006317   
     48. D(H   6,C   1,C   0,H   3)    175.3337         0.006317   
     49. D(H   7,C   1,C   0,H   4)    -58.6139         0.006317   
     50. D(C   5,C   1,C   0,H   2)     54.6848         0.006317   
     51. D(H   7,C   1,C   0,H   2)    177.6900         0.006317   
     52. D(H   9,C   5,C   1,H   6)    -86.5929         0.004926   
     53. D(C   8,C   5,C   1,H   7)    154.1172         0.004926   
     54. D(C   8,C   5,C   1,H   6)     39.9862         0.004926   
     55. D(C   8,C   5,C   1,C   0)    -84.7491         0.004926   
     56. D(H   9,C   5,C   1,H   7)     27.5380         0.004926   
     57. D(H  10,C   5,C   1,H   7)    -93.3564         0.004926   
     58. D(H  10,C   5,C   1,H   6)    152.5127         0.004926   
     59. D(H  10,C   5,C   1,C   0)     27.7774         0.004926   
     60. D(H   9,C   5,C   1,C   0)    148.6718         0.004926   
     61. D(H  13,C   8,C   5,H   9)     84.9007         0.008955   
     62. D(H  13,C   8,C   5,C   1)    -42.0934         0.008955   
     63. D(H  12,C   8,C   5,H  10)    -45.6735         0.008955   
     64. D(H  12,C   8,C   5,H   9)   -160.8982         0.008955   
     65. D(H  12,C   8,C   5,C   1)     72.1077         0.008955   
     66. D(N  11,C   8,C   5,H  10)     75.7174         0.008955   
     67. D(N  11,C   8,C   5,H   9)    -39.5074         0.008955   
     68. D(H  13,C   8,C   5,H  10)   -159.8745         0.008955   
     69. D(N  11,C   8,C   5,C   1)   -166.5015         0.008955   
     70. D(H  15,N  11,C   8,C   5)    -64.2142         0.001922   
     71. D(H  14,N  11,C   8,H  13)    -59.2043         0.001922   
     72. D(H  14,N  11,C   8,H  12)    174.3432         0.001922   
     73. D(H  14,N  11,C   8,C   5)     63.7595         0.001922   
     74. D(H  15,N  11,C   8,H  13)    172.8220         0.001922   
     75. D(H  15,N  11,C   8,H  12)     46.3695         0.001922   
    -----------------------------------------------------------------

Number of atoms                         .... 16
Number of degrees of freedom            .... 75

         *************************************************************
         *                GEOMETRY OPTIMIZATION CYCLE   1            *
         *************************************************************
---------------------------------
CARTESIAN COORDINATES (ANGSTROEM)
---------------------------------
  C     -2.362610    0.327510   -0.530400
  C     -1.441290   -0.668880    0.349880
  H     -1.829990    0.675330   -1.463050
  H     -2.585790    1.280110    0.022020
  H     -3.376330   -0.144780   -0.819370
  C      0.005040    0.079800    0.676770
  H     -1.273090   -1.671760   -0.153700
  H     -1.997130   -0.955380    1.289450
  C      0.948600   -0.165600   -0.543970
  H      0.530580   -0.261000    1.806330
  H     -0.124620    1.343400    0.698300
  N      2.703850    0.326950    0.041920
  H      0.303170    0.745310   -1.580380
  H      0.842660   -1.666560   -1.074760
  H      3.246910   -0.372110    1.020120
  H      2.799510    1.654060    0.341290

----------------------------
CARTESIAN COORDINATES (A.U.)
----------------------------
  NO LB      ZA    FRAG     MASS         X           Y           Z
   0 C     6.0000    0    12.011   -4.464686    0.618904   -1.002311
   1 C     6.0000    0    12.011   -2.723643   -1.264000    0.661177
   2 H     1.0000    0     1.008   -3.458180    1.276189   -2.764764
   3 H     1.0000    0     1.008   -4.886435    2.419057    0.041612
   4 H     1.0000    0     1.008   -6.380339   -0.273595   -1.548385
   5 C     6.0000    0    12.011    0.009524    0.150800    1.278910
   6 H     1.0000    0     1.008   -2.405791   -3.159169   -0.290451
   7 H     1.0000    0     1.008   -3.774029   -1.805407    2.436707
   8 C     6.0000    0    12.011    1.792594   -0.312939   -1.027954
   9 H     1.0000    0     1.008    1.002651   -0.493219    3.413469
  10 H     1.0000    0     1.008   -0.235498    2.538658    1.319596
  11 N     7.0000    0    14.007    5.109536    0.617846    0.079217
  12 H     1.0000    0     1.008    0.572908    1.408432   -2.986485
  13 H     1.0000    0     1.008    1.592397   -3.149342   -2.031002
  14 H     1.0000    0     1.008    6.135771   -0.703186    1.927747
  15 H     1.0000    0     1.008    5.290307    3.125720    0.644945

--------------------------------
INTERNAL COORDINATES (ANGSTROEM)
--------------------------------
 C      0   0   0     0.000000000000     0.00000000     0.00000000
 C      1   0   0     1.617564976407     0.00000000     0.00000000
 H      1   2   0     1.128937039564   111.75534972     0.00000000
 H      1   2   3     1.123576400963   111.58122332   244.26518779
 H      1   2   3     1.155071315288   112.59108143   123.69603225
 C      2   1   3     1.661098818072   108.98939303    54.68479487
 H      2   1   3     1.134747703589   112.78775858   291.06850996
 H      2   1   3     1.128641723710   109.20159772   177.69004957
 C      6   2   1     1.562284475120   107.53614206   275.25088428
 H      6   2   1     1.291604709344   114.04530145   148.67176271
 H      6   2   1     1.270417339499   111.27010000    27.77735868
 N      9   6   2     1.914882543944   105.91032684   193.49853463
 H      9   6   2     1.523313034507   100.47441362    72.10771948
 H      9   6   2     1.595569562664   111.56774244   317.90664460
 H     12   9   6     1.319270361677   117.89730547    63.75947887
 H     12   9   6     1.363816037668   112.44247680   295.78577322

---------------------------
INTERNAL COORDINATES (A.U.)
---------------------------
 C      0   0   0     0.000000000000     0.00000000     0.00000000
 C      1   0   0     3.056754809233     0.00000000     0.00000000
 H      1   2   0     2.133381827216   111.75534972     0.00000000
 H      1   2   3     2.123251688356   111.58122332   244.26518779
 H      1   2   3     2.182768451042   112.59108143   123.69603225
 C      2   1   3     3.139021847536   108.98939303    54.68479487
 H      2   1   3     2.144362390879   112.78775858   291.06850996
 H      2   1   3     2.132823761129   109.20159772   177.69004957
 C      6   2   1     2.952289801253   107.53614206   275.25088428
 H      6   2   1     2.440779173943   114.04530145   148.67176271
 H      6   2   1     2.400740847438   111.27010000    27.77735868
 N      9   6   2     3.618603586680   105.91032684   193.49853463
 H      9   6   2     2.878644451451   100.47441362    72.10771948
 H      9   6   2     3.015189501056   111.56774244   317.90664460
 H     12   9   6     2.493059680169   117.89730547    63.75947887
 H     12   9   6     2.577238808242   112.44247680   295.78577322

---------------------
BASIS SET INFORMATION
---------------------
There are 3 groups of distinct atoms

 Group   1 Type C   : 7s4p1d contracted to 3s2p1d pattern {511/31/1}
 Group   2 Type H   : 4s1p contracted to 2s1p pattern {31/1}
 Group   3 Type N   : 7s4p1d contracted to 3s2p1d pattern {511/31/1}

Atom   0C    basis set group =>   1
Atom   1C    basis set group =>   1
Atom   2H    basis set group =>   2
Atom   3H    basis set group =>   2
Atom   4H    basis set group =>   2
Atom   5C    basis set group =>   1
Atom   6H    basis set group =>   2
Atom   7H    basis set group =>   2
Atom   8C    basis set group =>   1
Atom   9H    basis set group =>   2
Atom  10H    basis set group =>   2
Atom  11N    basis set group =>   3
Atom  12H    basis set group =>   2
Atom  13H    basis set group =>   2
Atom  14H    basis set group =>   2
Atom  15H    basis set group =>   2
---------------------------------
AUXILIARY/J BASIS SET INFORMATION
---------------------------------
There are 3 groups of distinct atoms

 Group   1 Type C   : 12s5p4d2f1g contracted to 6s4p3d1f1g pattern {711111/2111/211/2/1}
 Group   2 Type H   : 5s2p1d contracted to 3s1p1d pattern {311/2/1}
 Group   3 Type N   : 12s5p4d2f1g contracted to 6s4p3d1f1g pattern {711111/2111/211/2/1}

Atom   0C    basis set group =>   1
Atom   1C    basis set group =>   1
Atom   2H    basis set group =>   2
Atom   3H    basis set group =>   2
Atom   4H    basis set group =>   2
Atom   5C    basis set group =>   1
Atom   6H    basis set group =>   2
Atom   7H    basis set group =>   2
Atom   8C    basis set group =>   1
Atom   9H    basis set group =>   2
Atom  10H    basis set group =>   2
Atom  11N    basis set group =>   3
Atom  12H    basis set group =>   2
Atom  13H    basis set group =>   2
Atom  14H    basis set group =>   2
Atom  15H    basis set group =>   2


           ************************************************************
           *        Program running with 4 parallel MPI-processes     *
           *              working on a common directory               *
           ************************************************************
------------------------------------------------------------------------------
                           ORCA GTO INTEGRAL CALCULATION
                           -- RI-GTO INTEGRALS CHOSEN --
------------------------------------------------------------------------------
------------------------------------------------------------------------------
                   ___                                                        
                  /   \      - P O W E R E D   B Y -                         
                 /     \                                                     
                 |  |  |   _    _      __       _____    __    __             
                 |  |  |  | |  | |    /  \     |  _  \  |  |  /  |          
                  \  \/   | |  | |   /    \    | | | |  |  | /  /          
                 / \  \   | |__| |  /  /\  \   | |_| |  |  |/  /          
                |  |  |   |  __  | /  /__\  \  |    /   |      \           
                |  |  |   | |  | | |   __   |  |    \   |  |\   \          
                \     /   | |  | | |  |  |  |  | |\  \  |  | \   \       
                 \___/    |_|  |_| |__|  |__|  |_| \__\ |__|  \__/        
                                                                              
                      - O R C A' S   B I G   F R I E N D -                    
                                      &                                       
                       - I N T E G R A L  F E E D E R -                       
                                                                              
 v1 FN, 2020, v2 2021                                                         
------------------------------------------------------------------------------


Reading SHARK input file butylamine_deprot_aq_16.SHARKINP.tmp ... ok
----------------------
SHARK INTEGRAL PACKAGE
----------------------

Number of atoms                             ...     16
Number of basis functions                   ...    125
Number of shells                            ...     63
Maximum angular momentum                    ...      2
Integral batch strategy                     ... SHARK/LIBINT Hybrid
RI-J (if used) integral strategy            ... SPLIT-RIJ (Revised 2003 algorithm where possible)
Printlevel                                  ...      1
Contraction scheme used                     ... SEGMENTED contraction
Coulomb Range Separation                    ... NOT USED
Exchange Range Separation                   ... Long Range
   Mu parameter                             ...  0.300000
   Scaling (regular/separated)              ...  0.157706  0.842294
Finite Nucleus Model                        ... NOT USED
Auxiliary Coulomb fitting basis             ... AVAILABLE
   # of basis functions in Aux-J            ...    366
   # of shells in Aux-J                     ...    130
   Maximum angular momentum in Aux-J        ...      4
Auxiliary J/K fitting basis                 ... NOT available
Auxiliary Correlation fitting basis         ... NOT available
Auxiliary 'external' fitting basis          ... NOT available
Integral threshold                          ...     2.500000e-11
Primitive cut-off                           ...     2.500000e-12
Primitive pair pre-selection threshold      ...     2.500000e-12

Calculating pre-screening integrals         ... done (  0.0 sec) Dimension = 63
Organizing shell pair data                  ... done (  0.0 sec)
Shell pair information
Total number of shell pairs                 ...      2016
Shell pairs after pre-screening             ...      1911
Total number of primitive shell pairs       ...      6768
Primitive shell pairs kept                  ...      4959
          la=0 lb=0:    678 shell pairs
          la=1 lb=0:    735 shell pairs
          la=1 lb=1:    212 shell pairs
          la=2 lb=0:    176 shell pairs
          la=2 lb=1:     96 shell pairs
          la=2 lb=2:     14 shell pairs

Calculating one electron integrals          ... done (  0.0 sec)
Calculating RI/J V-Matrix + Cholesky decomp.... done (  0.2 sec)
Calculating Nuclear repulsion               ... done (  0.0 sec) ENN=    169.069224817995 Eh

SHARK setup successfully completed in   0.5 seconds

Maximum memory used throughout the entire GTOINT-calculation: 10.6 MB


           ************************************************************
           *        Program running with 4 parallel MPI-processes     *
           *              working on a common directory               *
           ************************************************************
-------------------------------------------------------------------------------
                                 ORCA SCF
-------------------------------------------------------------------------------

------------
SCF SETTINGS
------------
Hamiltonian:
 Density Functional     Method          .... DFT(GTOs)
 Exchange Functional    Exchange        .... WB97X
 Correlation Functional Correlation     .... WB97X
 Gradients option       PostSCFGGA      .... off
 Hybrid DFT is turned on
   Fraction HF Exchange ScalHFX         ....  0.157706
   Scaling of DF-GGA-X  ScalDFX         ....  0.000000
   Scaling of DF-GGA-C  ScalDFC         ....  1.000000
   Scaling of DF-LDA-C  ScalLDAC        ....  1.000000
   Perturbative correction              ....  0.000000
   Density functional embedding theory  .... OFF
 Long-range corrected/Screened/Range-Separated Hybrid DFT is turned on
   Amount of maximum screened exact exchange              ....  0.842294
   Range separation parameter mu (erf(mu*r12)/r12)        ....  0.300000
 RI-approximation to the Coulomb term is turned on
   Number of AuxJ basis functions       .... 366
   RIJ-COSX (HFX calculated with COS-X)).... on


General Settings:
 Integral files         IntName         .... butylamine_deprot_aq_16
 Hartree-Fock type      HFTyp           .... RHF
 Total Charge           Charge          ....    0
 Multiplicity           Mult            ....    1
 Number of Electrons    NEL             ....   42
 Basis Dimension        Dim             ....  125
 Nuclear Repulsion      ENuc            ....    169.0692248180 Eh

Convergence Acceleration:
 DIIS                   CNVDIIS         .... on
   Start iteration      DIISMaxIt       ....     0
   Startup error        DIISStart       ....  0.200000
   # of expansion vecs  DIISMaxEq       ....     5
   Bias factor          DIISBfac        ....   1.050
   Max. coefficient     DIISMaxC        ....  10.000
 Trust-Rad. Augm. Hess. CNVTRAH         .... auto
   Auto Start mean grad. ratio tolernc. ....  1.125000
   Auto Start start iteration           ....    20
   Auto Start num. interpolation iter.  ....    10
   Max. Number of Micro iterations      ....    16
   Max. Number of Macro iterations      .... Maxiter - #DIIS iter
   Number of Davidson start vectors     ....     2
   Converg. threshold I  (grad. norm)   ....   1.000e-05
   Converg. threshold II (energy diff.) ....   1.000e-08
   Grad. Scal. Fac. for Micro threshold ....   0.100
   Minimum threshold for Micro iter.    ....   0.010
   NR start threshold (gradient norm)   ....   0.001
   Initial trust radius                 ....   0.400
   Minimum AH scaling param. (alpha)    ....   1.000
   Maximum AH scaling param. (alpha)    .... 1000.000
   Orbital update algorithm             .... Taylor
   White noise on init. David. guess    .... on
   Maximum white noise                  ....   0.010
   Quad. conv. algorithm                .... NR
 SOSCF                  CNVSOSCF        .... on
   Start iteration      SOSCFMaxIt      ....   150
   Startup grad/error   SOSCFStart      ....  0.001000
 Level Shifting         CNVShift        .... on
   Level shift para.    LevelShift      ....    0.2500
   Turn off err/grad.   ShiftErr        ....    0.0000
 Zerner damping         CNVZerner       .... off
 Static damping         CNVDamp         .... on
   Fraction old density DampFac         ....    0.8500
   Max. Damping (<1)    DampMax         ....    0.9800
   Min. Damping (>=0)   DampMin         ....    0.0000
   Turn off err/grad.   DampErr         ....    0.0300
 Fernandez-Rico         CNVRico         .... off

SCF Procedure:
 Maximum # iterations   MaxIter         ....   125
 SCF integral mode      SCFMode         .... Direct
   Integral package                     .... SHARK and LIBINT hybrid scheme
 Reset frequency        DirectResetFreq ....    20
 Integral Threshold     Thresh          ....  2.500e-11 Eh
 Primitive CutOff       TCut            ....  2.500e-12 Eh

Convergence Tolerance:
 Convergence Check Mode ConvCheckMode   .... Total+1el-Energy
 Convergence forced     ConvForced      .... 0
 Energy Change          TolE            ....  1.000e-08 Eh
 1-El. energy change                    ....  1.000e-05 Eh
 Orbital Gradient       TolG            ....  1.000e-05
 Orbital Rotation angle TolX            ....  1.000e-05
 DIIS Error             TolErr          ....  5.000e-07


Diagonalization of the overlap matrix:
Smallest eigenvalue                        ... 3.625e-03
Time for diagonalization                   ...    0.025 sec
Threshold for overlap eigenvalues          ... 1.000e-08
Number of eigenvalues below threshold      ... 0
Time for construction of square roots      ...    0.004 sec
Total time needed                          ...    0.029 sec

Time for model grid setup =    0.326 sec

------------------------------
INITIAL GUESS: MODEL POTENTIAL
------------------------------
Loading Hartree-Fock densities                     ... done
Calculating cut-offs                               ... done
Initializing the effective Hamiltonian             ... done
Setting up the integral package (SHARK)            ... done
Starting the Coulomb interaction                   ... done (   0.1 sec)
Reading the grid                                   ... done
Mapping shells                                     ... done
Starting the XC term evaluation                    ... done (   0.0 sec)
  promolecular density results
     # of electrons  =     41.996402668
     EX              =    -29.805463326
     EC              =     -1.283588459
     EX+EC           =    -31.089051785
Transforming the Hamiltonian                       ... done (   0.0 sec)
Diagonalizing the Hamiltonian                      ... done (   0.0 sec)
Back transforming the eigenvectors                 ... done (   0.0 sec)
Now organizing SCF variables                       ... done
                      ------------------
                      INITIAL GUESS DONE (   0.5 sec)
                      ------------------
-------------------
DFT GRID GENERATION
-------------------

General Integration Accuracy     IntAcc      ... 4.388
Radial Grid Type                 RadialGrid  ... OptM3 with GC (2021)
Angular Grid (max. ang.)         AngularGrid ... 4 (Lebedev-302)
Angular grid pruning method      GridPruning ... 4 (adaptive)
Weight generation scheme         WeightScheme... Becke
Basis function cutoff            BFCut       ... 1.0000e-11
Integration weight cutoff        WCut        ... 1.0000e-14
Angular grids for H and He will be reduced by one unit
Partially contracted basis set               ... off
Rotationally invariant grid construction     ... off

Total number of grid points                  ...    65954
Total number of batches                      ...     1038
Average number of points per batch           ...       63
Average number of grid points per atom       ...     4122
Time for grid setup =    0.367 sec

--------------------
COSX GRID GENERATION
--------------------

GRIDX 1
-------
General Integration Accuracy     IntAcc      ... 3.816
Radial Grid Type                 RadialGrid  ... OptM3 with GC (2021)
Angular Grid (max. ang.)         AngularGrid ... 1 (Lebedev-50)
Angular grid pruning method      GridPruning ... 4 (adaptive)
Weight generation scheme         WeightScheme... Becke
Basis function cutoff            BFCut       ... 1.0000e-11
Integration weight cutoff        WCut        ... 1.0000e-14
Angular grids for H and He will be reduced by one unit
Partially contracted basis set               ... on
Rotationally invariant grid construction     ... off

Total number of grid points                  ...     8508
Total number of batches                      ...      140
Average number of points per batch           ...       60
Average number of grid points per atom       ...      532
UseSFitting                                  ... on

GRIDX 2
-------
General Integration Accuracy     IntAcc      ... 4.020
Radial Grid Type                 RadialGrid  ... OptM3 with GC (2021)
Angular Grid (max. ang.)         AngularGrid ... 2 (Lebedev-110)
Angular grid pruning method      GridPruning ... 4 (adaptive)
Weight generation scheme         WeightScheme... Becke
Basis function cutoff            BFCut       ... 1.0000e-11
Integration weight cutoff        WCut        ... 1.0000e-14
Angular grids for H and He will be reduced by one unit
Partially contracted basis set               ... on
Rotationally invariant grid construction     ... off

Total number of grid points                  ...    17564
Total number of batches                      ...      283
Average number of points per batch           ...       62
Average number of grid points per atom       ...     1098
UseSFitting                                  ... on

GRIDX 3
-------
General Integration Accuracy     IntAcc      ... 4.338
Radial Grid Type                 RadialGrid  ... OptM3 with GC (2021)
Angular Grid (max. ang.)         AngularGrid ... 3 (Lebedev-194)
Angular grid pruning method      GridPruning ... 4 (adaptive)
Weight generation scheme         WeightScheme... Becke
Basis function cutoff            BFCut       ... 1.0000e-11
Integration weight cutoff        WCut        ... 1.0000e-14
Angular grids for H and He will be reduced by one unit
Partially contracted basis set               ... on
Rotationally invariant grid construction     ... off

Total number of grid points                  ...    38334
Total number of batches                      ...      609
Average number of points per batch           ...       62
Average number of grid points per atom       ...     2396
UseSFitting                                  ... on

Time for X-Grid setup             =    0.493 sec

--------------
SCF ITERATIONS
--------------
ITER       Energy         Delta-E        Max-DP      RMS-DP      [F,P]     Damp
               ***  Starting incremental Fock matrix formation  ***
  0   -213.0813603196   0.000000000000 0.03351765  0.00094902  0.2182538 0.8500
  1   -213.1169550239  -0.035594704242 0.02759937  0.00091003  0.1644676 0.8500
                               ***Turning on DIIS***
  2   -213.1419972108  -0.025042186964 0.02092506  0.00071339  0.1138904 0.8500
  3   -213.1591590114  -0.017161800598 0.01284357  0.00043882  0.0763504 0.8500
  4   -213.1719065196  -0.012747508181 0.00851391  0.00030956  0.0582751 0.8500
  5   -213.1817326800  -0.009826160416 0.00621559  0.00024467  0.0484348 0.8500
  6   -213.1896862942  -0.007953614216 0.00485197  0.00020437  0.0413403 0.8500
  7   -213.1962830219  -0.006596727691 0.00400414  0.00017755  0.0353825 0.8500
  8   -213.2018281316  -0.005545109666 0.02284426  0.00103151  0.0297493 0.0000
  9   -213.2318404134  -0.030012281843 0.00353639  0.00008018  0.0035933 0.0000
 10   -213.2318609187  -0.000020505242 0.00101184  0.00002758  0.0014650 0.0000
                      *** Initiating the SOSCF procedure ***
                           *** Shutting down DIIS ***
                      *** Re-Reading the Fockian *** 
                      *** Removing any level shift *** 
ITER      Energy       Delta-E        Grad      Rot      Max-DP    RMS-DP
 11   -213.23186667  -0.0000057496  0.000199  0.000199  0.000318  0.000017
               *** Restarting incremental Fock matrix formation ***
 12   -213.23181749   0.0000491771  0.000108  0.000241  0.000251  0.000012
 13   -213.23181783  -0.0000003412  0.000045  0.000220  0.000267  0.000011
 14   -213.23181791  -0.0000000779  0.000024  0.000028  0.000090  0.000002
 15   -213.23181793  -0.0000000169  0.000014  0.000028  0.000028  0.000001
 16   -213.23181793  -0.0000000027  0.000005  0.000017  0.000018  0.000001
 17   -213.23181793  -0.0000000034  0.000003  0.000013  0.000012  0.000000
                  ***Gradient check signals convergence***
              ***Rediagonalizing the Fockian in SOSCF/NRSCF***

               *****************************************************
               *                     SUCCESS                       *
               *           SCF CONVERGED AFTER  18 CYCLES          *
               *****************************************************

Old exchange energy                            =    -10.213003488 Eh
New exchange energy                            =    -10.212984761 Eh
Exchange energy change after final integration =      0.000018727 Eh
Total energy after final integration           =   -213.231799206 Eh
Final COS-X integration done in                =     3.065 sec

----------------
TOTAL SCF ENERGY
----------------

Total Energy       :         -213.23179921 Eh           -5802.33224 eV

Components:
Nuclear Repulsion  :          169.06922482 Eh            4600.60750 eV
Electronic Energy  :         -382.30102402 Eh          -10402.93974 eV
One Electron Energy:         -621.11329328 Eh          -16901.35196 eV
Two Electron Energy:          238.81226926 Eh            6498.41222 eV
Max COSX asymmetry :            0.00000095 Eh               0.00003 eV

Virial components:
Potential Energy   :         -421.68458352 Eh          -11474.62088 eV
Kinetic Energy     :          208.45278431 Eh            5672.28863 eV
Virial Ratio       :            2.02292613


DFT components:
N(Alpha)           :       20.999993172757 electrons
N(Beta)            :       20.999993172757 electrons
N(Total)           :       41.999986345514 electrons
E(XC)              :      -21.560253268460 Eh       
DFET-embed. en.    :        0.000000000000 Eh       

---------------
SCF CONVERGENCE
---------------

  Last Energy change         ...    1.8466e-10  Tolerance :   1.0000e-08
  Last MAX-Density change    ...    2.2204e-15  Tolerance :   1.0000e-07
  Last RMS-Density change    ...    4.0792e-17  Tolerance :   5.0000e-09
  Last Orbital Gradient      ...    9.0468e-07  Tolerance :   1.0000e-05
  Last Orbital Rotation      ...    5.5237e-06  Tolerance :   1.0000e-05

             **** THE GBW FILE WAS UPDATED (butylamine_deprot_aq_16.gbw) ****
             **** DENSITY butylamine_deprot_aq_16.scfp WAS UPDATED ****
             **** ENERGY FILE WAS UPDATED (butylamine_deprot_aq_16.en.tmp) ****
             **** THE GBW FILE WAS UPDATED (butylamine_deprot_aq_16.gbw) ****
             **** DENSITY butylamine_deprot_aq_16.scfp WAS UPDATED ****
----------------
ORBITAL ENERGIES
----------------

  NO   OCC          E(Eh)            E(eV) 
   0   2.0000     -14.434605      -392.7856 
   1   2.0000     -10.393643      -282.8254 
   2   2.0000     -10.322269      -280.8832 
   3   2.0000     -10.298613      -280.2395 
   4   2.0000     -10.286378      -279.9066 
   5   2.0000      -0.900132       -24.4938 
   6   2.0000      -0.854422       -23.2500 
   7   2.0000      -0.801089       -21.7987 
   8   2.0000      -0.724036       -19.7020 
   9   2.0000      -0.642200       -17.4751 
  10   2.0000      -0.544341       -14.8123 
  11   2.0000      -0.535028       -14.5588 
  12   2.0000      -0.508225       -13.8295 
  13   2.0000      -0.480565       -13.0768 
  14   2.0000      -0.470035       -12.7903 
  15   2.0000      -0.454859       -12.3773 
  16   2.0000      -0.451809       -12.2943 
  17   2.0000      -0.434709       -11.8290 
  18   2.0000      -0.410685       -11.1753 
  19   2.0000      -0.388105       -10.5609 
  20   2.0000      -0.316033        -8.5997 
  21   0.0000       0.036050         0.9810 
  22   0.0000       0.082258         2.2384 
  23   0.0000       0.090808         2.4710 
  24   0.0000       0.128217         3.4890 
  25   0.0000       0.160441         4.3658 
  26   0.0000       0.170043         4.6271 
  27   0.0000       0.176832         4.8118 
  28   0.0000       0.197959         5.3867 
  29   0.0000       0.199972         5.4415 
  30   0.0000       0.221714         6.0332 
  31   0.0000       0.228615         6.2209 
  32   0.0000       0.260826         7.0974 
  33   0.0000       0.273121         7.4320 
  34   0.0000       0.307108         8.3568 
  35   0.0000       0.320323         8.7164 
  36   0.0000       0.493411        13.4264 
  37   0.0000       0.511819        13.9273 
  38   0.0000       0.515149        14.0179 
  39   0.0000       0.539959        14.6930 
  40   0.0000       0.552932        15.0461 
  41   0.0000       0.564774        15.3683 
  42   0.0000       0.581905        15.8344 
  43   0.0000       0.615974        16.7615 
  44   0.0000       0.632693        17.2164 
  45   0.0000       0.641642        17.4600 
  46   0.0000       0.652205        17.7474 
  47   0.0000       0.672339        18.2953 
  48   0.0000       0.706728        19.2311 
  49   0.0000       0.721254        19.6263 
  50   0.0000       0.731380        19.9019 
  51   0.0000       0.745706        20.2917 
  52   0.0000       0.752123        20.4663 
  53   0.0000       0.766949        20.8698 
  54   0.0000       0.771340        20.9892 
  55   0.0000       0.776499        21.1296 
  56   0.0000       0.800504        21.7828 
  57   0.0000       0.804349        21.8874 
  58   0.0000       0.817247        22.2384 
  59   0.0000       0.862395        23.4670 
  60   0.0000       0.933128        25.3917 
  61   0.0000       0.977982        26.6122 
  62   0.0000       1.028082        27.9755 
  63   0.0000       1.087856        29.6021 
  64   0.0000       1.134779        30.8789 
  65   0.0000       1.147997        31.2386 
  66   0.0000       1.178958        32.0811 
  67   0.0000       1.249342        33.9963 
  68   0.0000       1.279686        34.8220 
  69   0.0000       1.374891        37.4127 
  70   0.0000       1.438724        39.1497 
  71   0.0000       1.452452        39.5232 
  72   0.0000       1.464901        39.8620 
  73   0.0000       1.496168        40.7128 
  74   0.0000       1.535571        41.7850 
  75   0.0000       1.558215        42.4012 
  76   0.0000       1.590226        43.2722 
  77   0.0000       1.604668        43.6652 
  78   0.0000       1.615260        43.9535 
  79   0.0000       1.634787        44.4848 
  80   0.0000       1.679987        45.7148 
  81   0.0000       1.697892        46.2020 
  82   0.0000       1.718356        46.7588 
  83   0.0000       1.720752        46.8240 
  84   0.0000       1.757674        47.8287 
  85   0.0000       1.799342        48.9626 
  86   0.0000       1.809494        49.2388 
  87   0.0000       1.818853        49.4935 
  88   0.0000       1.843715        50.1700 
  89   0.0000       1.861369        50.6504 
  90   0.0000       1.883077        51.2411 
  91   0.0000       1.894816        51.5606 
  92   0.0000       1.905351        51.8472 
  93   0.0000       1.930562        52.5333 
  94   0.0000       1.944751        52.9194 
  95   0.0000       1.959411        53.3183 
  96   0.0000       1.994730        54.2794 
  97   0.0000       1.998886        54.3924 
  98   0.0000       2.034466        55.3606 
  99   0.0000       2.076596        56.5071 
 100   0.0000       2.130739        57.9804 
 101   0.0000       2.191198        59.6255 
 102   0.0000       2.217112        60.3307 
 103   0.0000       2.224171        60.5228 
 104   0.0000       2.317062        63.0505 
 105   0.0000       2.353544        64.0432 
 106   0.0000       2.412360        65.6436 
 107   0.0000       2.452439        66.7343 
 108   0.0000       2.458614        66.9023 
 109   0.0000       2.469631        67.2021 
 110   0.0000       2.496900        67.9441 
 111   0.0000       2.540371        69.1270 
 112   0.0000       2.558219        69.6127 
 113   0.0000       2.590486        70.4907 
 114   0.0000       2.618627        71.2565 
 115   0.0000       2.660726        72.4020 
 116   0.0000       2.807552        76.3974 
 117   0.0000       2.846491        77.4569 
 118   0.0000       2.852633        77.6241 
 119   0.0000       2.891294        78.6761 
 120   0.0000       2.922424        79.5232 
 121   0.0000       3.004432        81.7548 
 122   0.0000       3.010328        81.9152 
 123   0.0000       3.107651        84.5635 
 124   0.0000       3.109616        84.6170 

                    ********************************
                    * MULLIKEN POPULATION ANALYSIS *
                    ********************************

-----------------------
MULLIKEN ATOMIC CHARGES
-----------------------
   0 C :   -0.099282
   1 C :   -0.072577
   2 H :    0.030858
   3 H :    0.041581
   4 H :    0.053407
   5 C :   -0.123619
   6 H :    0.038463
   7 H :    0.043875
   8 C :   -0.057929
   9 H :    0.069166
  10 H :    0.062565
  11 N :   -0.425754
  12 H :    0.072709
  13 H :    0.069481
  14 H :    0.155661
  15 H :    0.141395
Sum of atomic charges:   -0.0000000

--------------------------------
MULLIKEN REDUCED ORBITAL CHARGES
--------------------------------
  0 C s       :     3.095549  s :     3.095549
      pz      :     1.000110  p :     2.979413
      px      :     0.991475
      py      :     0.987828
      dz2     :     0.003708  d :     0.024320
      dxz     :     0.004926
      dyz     :     0.006214
      dx2y2   :     0.004632
      dxy     :     0.004841
  1 C s       :     3.123573  s :     3.123573
      pz      :     1.008761  p :     2.920010
      px      :     0.939121
      py      :     0.972128
      dz2     :     0.004234  d :     0.028994
      dxz     :     0.006490
      dyz     :     0.005964
      dx2y2   :     0.006179
      dxy     :     0.006128
  2 H s       :     0.946710  s :     0.946710
      pz      :     0.011121  p :     0.022432
      px      :     0.006240
      py      :     0.005071
  3 H s       :     0.936230  s :     0.936230
      pz      :     0.006662  p :     0.022189
      px      :     0.004427
      py      :     0.011101
  4 H s       :     0.925934  s :     0.925934
      pz      :     0.004307  p :     0.020659
      px      :     0.011179
      py      :     0.005173
  5 C s       :     3.226716  s :     3.226716
      pz      :     0.956216  p :     2.868170
      px      :     0.934021
      py      :     0.977933
      dz2     :     0.006766  d :     0.028732
      dxz     :     0.008204
      dyz     :     0.002831
      dx2y2   :     0.006505
      dxy     :     0.004425
  6 H s       :     0.940471  s :     0.940471
      pz      :     0.006292  p :     0.021066
      px      :     0.003279
      py      :     0.011495
  7 H s       :     0.935094  s :     0.935094
      pz      :     0.010978  p :     0.021031
      px      :     0.005569
      py      :     0.004484
  8 C s       :     3.433778  s :     3.433778
      pz      :     0.919639  p :     2.597511
      px      :     0.752109
      py      :     0.925762
      dz2     :     0.004297  d :     0.026640
      dxz     :     0.008645
      dyz     :     0.004635
      dx2y2   :     0.005816
      dxy     :     0.003247
  9 H s       :     0.915737  s :     0.915737
      pz      :     0.009139  p :     0.015097
      px      :     0.003375
      py      :     0.002583
 10 H s       :     0.921398  s :     0.921398
      pz      :     0.002136  p :     0.016037
      px      :     0.002040
      py      :     0.011860
 11 N s       :     3.720585  s :     3.720585
      pz      :     1.422032  p :     3.696927
      px      :     1.258369
      py      :     1.016525
      dz2     :     0.001775  d :     0.008242
      dxz     :     0.000633
      dyz     :     0.002350
      dx2y2   :     0.002967
      dxy     :     0.000517
 12 H s       :     0.916190  s :     0.916190
      pz      :     0.004736  p :     0.011101
      px      :     0.002752
      py      :     0.003613
 13 H s       :     0.921215  s :     0.921215
      pz      :     0.001475  p :     0.009304
      px      :     0.000578
      py      :     0.007251
 14 H s       :     0.820791  s :     0.820791
      pz      :     0.011343  p :     0.023548
      px      :     0.005986
      py      :     0.006219
 15 H s       :     0.837590  s :     0.837590
      pz      :     0.004200  p :     0.021014
      px      :     0.002774
      py      :     0.014040


                     *******************************
                     * LOEWDIN POPULATION ANALYSIS *
                     *******************************

----------------------
LOEWDIN ATOMIC CHARGES
----------------------
   0 C :   -0.080002
   1 C :   -0.052871
   2 H :    0.021272
   3 H :    0.027840
   4 H :    0.034755
   5 C :   -0.102142
   6 H :    0.025557
   7 H :    0.028388
   8 C :   -0.009021
   9 H :    0.044071
  10 H :    0.045172
  11 N :   -0.333464
  12 H :    0.063032
  13 H :    0.055326
  14 H :    0.118829
  15 H :    0.113257

-------------------------------
LOEWDIN REDUCED ORBITAL CHARGES
-------------------------------
  0 C s       :     2.881023  s :     2.881023
      pz      :     1.054952  p :     3.138846
      px      :     1.040770
      py      :     1.043124
      dz2     :     0.008433  d :     0.060133
      dxz     :     0.012744
      dyz     :     0.015531
      dx2y2   :     0.010762
      dxy     :     0.012663
  1 C s       :     2.894635  s :     2.894635
      pz      :     1.059242  p :     3.090651
      px      :     1.001823
      py      :     1.029585
      dz2     :     0.009516  d :     0.067585
      dxz     :     0.015014
      dyz     :     0.014606
      dx2y2   :     0.013708
      dxy     :     0.014740
  2 H s       :     0.917063  s :     0.917063
      pz      :     0.030313  p :     0.061665
      px      :     0.017423
      py      :     0.013928
  3 H s       :     0.910357  s :     0.910357
      pz      :     0.018004  p :     0.061803
      px      :     0.012201
      py      :     0.031599
  4 H s       :     0.908470  s :     0.908470
      pz      :     0.011548  p :     0.056775
      px      :     0.031289
      py      :     0.013938
  5 C s       :     2.966670  s :     2.966670
      pz      :     1.031094  p :     3.069779
      px      :     1.014084
      py      :     1.024602
      dz2     :     0.015977  d :     0.065693
      dxz     :     0.019870
      dyz     :     0.005357
      dx2y2   :     0.014940
      dxy     :     0.009549
  6 H s       :     0.913268  s :     0.913268
      pz      :     0.017148  p :     0.061176
      px      :     0.010599
      py      :     0.033429
  7 H s       :     0.909922  s :     0.909922
      pz      :     0.030801  p :     0.061690
      px      :     0.017884
      py      :     0.013005
  8 C s       :     3.137913  s :     3.137913
      pz      :     1.017259  p :     2.821322
      px      :     0.843760
      py      :     0.960303
      dz2     :     0.008122  d :     0.049786
      dxz     :     0.017722
      dyz     :     0.008584
      dx2y2   :     0.010439
      dxy     :     0.004920
  9 H s       :     0.914906  s :     0.914906
      pz      :     0.024768  p :     0.041022
      px      :     0.009586
      py      :     0.006669
 10 H s       :     0.911975  s :     0.911975
      pz      :     0.005449  p :     0.042853
      px      :     0.005556
      py      :     0.031848
 11 N s       :     3.507702  s :     3.507702
      pz      :     1.456223  p :     3.812543
      px      :     1.281640
      py      :     1.074680
      dz2     :     0.002452  d :     0.013219
      dxz     :     0.001082
      dyz     :     0.003677
      dx2y2   :     0.004795
      dxy     :     0.001212
 12 H s       :     0.913184  s :     0.913184
      pz      :     0.009483  p :     0.023784
      px      :     0.006146
      py      :     0.008155
 13 H s       :     0.925767  s :     0.925767
      pz      :     0.002790  p :     0.018908
      px      :     0.001132
      py      :     0.014986
 14 H s       :     0.826756  s :     0.826756
      pz      :     0.028102  p :     0.054415
      px      :     0.013137
      py      :     0.013175
 15 H s       :     0.840031  s :     0.840031
      pz      :     0.009016  p :     0.046712
      px      :     0.006213
      py      :     0.031483


                      *****************************
                      * MAYER POPULATION ANALYSIS *
                      *****************************

  NA   - Mulliken gross atomic population
  ZA   - Total nuclear charge
  QA   - Mulliken gross atomic charge
  VA   - Mayer's total valence
  BVA  - Mayer's bonded valence
  FA   - Mayer's free valence

  ATOM       NA         ZA         QA         VA         BVA        FA
  0 C      6.0993     6.0000    -0.0993     3.9823     3.9823    -0.0000
  1 C      6.0726     6.0000    -0.0726     3.9518     3.9518    -0.0000
  2 H      0.9691     1.0000     0.0309     0.9906     0.9906    -0.0000
  3 H      0.9584     1.0000     0.0416     0.9840     0.9840    -0.0000
  4 H      0.9466     1.0000     0.0534     0.9828     0.9828     0.0000
  5 C      6.1236     6.0000    -0.1236     3.8415     3.8415    -0.0000
  6 H      0.9615     1.0000     0.0385     0.9864     0.9864    -0.0000
  7 H      0.9561     1.0000     0.0439     0.9768     0.9768     0.0000
  8 C      6.0579     6.0000    -0.0579     3.7271     3.7271     0.0000
  9 H      0.9308     1.0000     0.0692     0.9847     0.9847    -0.0000
 10 H      0.9374     1.0000     0.0626     0.9788     0.9788    -0.0000
 11 N      7.4258     7.0000    -0.4258     2.8026     2.8026     0.0000
 12 H      0.9273     1.0000     0.0727     0.9768     0.9768    -0.0000
 13 H      0.9305     1.0000     0.0695     0.9811     0.9811     0.0000
 14 H      0.8443     1.0000     0.1557     0.9648     0.9648     0.0000
 15 H      0.8586     1.0000     0.1414     0.9686     0.9686    -0.0000

  Mayer bond orders larger than 0.100000
B(  0-C ,  1-C ) :   1.0425 B(  0-C ,  2-H ) :   0.9772 B(  0-C ,  3-H ) :   0.9787 
B(  0-C ,  4-H ) :   0.9762 B(  1-C ,  5-C ) :   0.9798 B(  1-C ,  6-H ) :   0.9626 
B(  1-C ,  7-H ) :   0.9642 B(  5-C ,  8-C ) :   0.9518 B(  5-C ,  9-H ) :   0.9505 
B(  5-C , 10-H ) :   0.9477 B(  8-C , 11-N ) :   0.8937 B(  8-C , 12-H ) :   0.9225 
B(  8-C , 13-H ) :   0.9158 B( 11-N , 14-H ) :   0.9141 B( 11-N , 15-H ) :   0.9223 


-------
TIMINGS
-------

Total SCF time: 0 days 0 hours 0 min 27 sec 

Total time                  ....      27.179 sec
Sum of individual times     ....      26.713 sec  ( 98.3%)

Fock matrix formation       ....      25.220 sec  ( 92.8%)
  Split-RI-J                ....       1.325 sec  (  5.3% of F)
  Chain of spheres X        ....      19.636 sec  ( 77.9% of F)
  XC integration            ....       4.139 sec  ( 16.4% of F)
    Basis function eval.    ....       1.424 sec  ( 34.4% of XC)
    Density eval.           ....       0.688 sec  ( 16.6% of XC)
    XC-Functional eval.     ....       0.739 sec  ( 17.9% of XC)
    XC-Potential eval.      ....       0.655 sec  ( 15.8% of XC)
Diagonalization             ....       0.054 sec  (  0.2%)
Density matrix formation    ....       0.004 sec  (  0.0%)
Population analysis         ....       0.022 sec  (  0.1%)
Initial guess               ....       0.151 sec  (  0.6%)
Orbital Transformation      ....       0.000 sec  (  0.0%)
Orbital Orthonormalization  ....       0.000 sec  (  0.0%)
DIIS solution               ....       0.048 sec  (  0.2%)
SOSCF solution              ....       0.028 sec  (  0.1%)
Grid generation             ....       1.187 sec  (  4.4%)

Maximum memory used throughout the entire SCF-calculation: 49.7 MB


-------------------------------------------------------------------------------
                          DFT DISPERSION CORRECTION                            
                                                                               
                                 DFTD4 V2.5                                    
-------------------------------------------------------------------------------
The WB97X functional is recognized
Active option DFTDOPT                   ...         5   

Starting D4
-------------------------   ----------------
Dispersion correction           -0.001583865
-------------------------   ----------------


-------------------------   --------------------
FINAL SINGLE POINT ENERGY      -213.233383071110
-------------------------   --------------------



           ************************************************************
           *        Program running with 4 parallel MPI-processes     *
           *              working on a common directory               *
           ************************************************************
------------------------------------------------------------------------------
                         ORCA SCF GRADIENT CALCULATION
------------------------------------------------------------------------------

 ... reading COSX grid (gridx3)
Gradient of the Kohn-Sham DFT energy:
Kohn-Sham wavefunction type      ... RKS
Hartree-Fock exchange scaling    ...    0.158
Number of operators              ...    1
Number of atoms                  ...   16
Basis set dimensions             ...  125
Integral neglect threshold       ... 2.5e-11
Integral primitive cutoff        ... 2.5e-12
SHARK Integral package           ... ON

Nuc. rep. gradient       (SHARK) ... done (  0.0 sec)
HCore & Overlap gradient (SHARK) ... done (  0.0 sec)
RI-J gradient            (SHARK) ... done (  0.9 sec)
COSX-gradient                    ... done (  3.4 sec)
Exchange-correlation gradient    ... done
Dispersion correction            ... Starting D4
Starting D4
Starting D4
Starting D4


------------------- 
Dispersion Gradient 
------------------- 
   1  :   -0.000029323    0.000009184   -0.000009512
   2  :   -0.000003138   -0.000004305    0.000008620
   3  :   -0.000011246   -0.000001041    0.000002346
   4  :   -0.000008154   -0.000002132   -0.000001468
   5  :   -0.000005779    0.000001735    0.000000098
   6  :    0.000016586    0.000045795    0.000087925
   7  :   -0.000006490    0.000002590    0.000002629
   8  :   -0.000005104    0.000000328   -0.000000413
   9  :   -0.000078595   -0.000002663   -0.000072024
  10  :   -0.000037469    0.000025150   -0.000084147
  11  :    0.000008318   -0.000080673    0.000000096
  12  :    0.000122487    0.000117839    0.000083764
  13  :    0.000034224   -0.000036721    0.000039053
  14  :    0.000012240    0.000016728    0.000004083
  15  :   -0.000011054    0.000026701   -0.000034781
  16  :    0.000002497   -0.000118513   -0.000026269

  |G| =    0.000296038

done

------------------
CARTESIAN GRADIENT
------------------

   1   C   :    0.000238537    0.016738288   -0.004597306
   2   C   :   -0.004896018   -0.032247955   -0.002783243
   3   H   :    0.008866043    0.011207310   -0.011371671
   4   H   :   -0.002519006    0.014827133    0.001132723
   5   H   :   -0.029000331   -0.011009227   -0.006421122
   6   C   :    0.005791978   -0.010302375   -0.022405574
   7   H   :   -0.001700114   -0.021474929   -0.002669759
   8   H   :   -0.009882675   -0.010793484    0.010373626
   9   C   :   -0.004568445   -0.004106742    0.007544217
  10   H   :    0.031459049   -0.016128227    0.068409973
  11   H   :   -0.003224168    0.070439629   -0.005792859
  12   N   :    0.000833576   -0.025266026   -0.028305394
  13   H   :   -0.056816152    0.058948316   -0.057026929
  14   H   :   -0.015374841   -0.092726066   -0.032308162
  15   H   :    0.061797926   -0.058152790    0.071272422
  16   H   :    0.019170277    0.110124574    0.014979191

Difference to translation invariance:
           :    0.0001756350    0.0000774276    0.0000301324

Difference to rotation invariance:
           :    0.0001636053   -0.0002896991    0.0004266674

Norm of the cartesian gradient     ...    0.2483457504
RMS gradient                       ...    0.0358456215
MAX gradient                       ...    0.1101245735

-------
TIMINGS
-------

Total SCF gradient time            ...        5.612 sec

One electron gradient       ....       0.041 sec  (  0.7%)
RI-J Coulomb gradient       ....       0.896 sec  ( 16.0%)
COSX gradient               ....       3.376 sec  ( 60.2%)
XC gradient                 ....       0.998 sec  ( 17.8%)

Maximum memory used throughout the entire SCFGRAD-calculation: 38.3 MB
------------------------------------------------------------------------------
                         ORCA GEOMETRY RELAXATION STEP
------------------------------------------------------------------------------

Reading the OPT-File                    .... done
Getting information on internals        .... done
Copying old internal coords+grads       .... done
Making the new internal coordinates     .... (new redundants).... done
Validating the new internal coordinates .... (new redundants).... done
Calculating the B-matrix                .... done
Calculating the G,G- and P matrices     .... done
Transforming gradient to internals      .... done
Projecting the internal gradient        .... done
Number of atoms                         ....  16
Number of internal coordinates          ....  75
Current Energy                          ....  -213.233383071 Eh
Current gradient norm                   ....     0.248345750 Eh/bohr
Maximum allowed component of the step   ....  0.300
Current trust radius                    ....  0.300
Evaluating the initial hessian          ....  (Almloef) done
Projecting the Hessian                  .... done
Forming the augmented Hessian           .... done
Diagonalizing the augmented Hessian     .... done
Last element of RFO vector              ....  0.772937487
Lowest eigenvalues of augmented Hessian:
 -0.224736081  0.001921865  0.004926381  0.006316660  0.008974235
Length of the computed step             ....  0.820871278
Warning: the length of the step is outside the trust region - taking restricted step instead
The input lambda is                     ....    -0.224736
   iter:   1  x=   -0.365846  g=    4.137406 f(x)=     0.583830
   iter:   2  x=   -0.537986  g=    1.394051 f(x)=     0.239972
   iter:   3  x=   -0.698635  g=    0.547234 f(x)=     0.087912
   iter:   4  x=   -0.785679  g=    0.281430 f(x)=     0.024497
   iter:   5  x=   -0.802323  g=    0.207233 f(x)=     0.003449
   iter:   6  x=   -0.802800  g=    0.196128 f(x)=     0.000094
   iter:   7  x=   -0.802801  g=    0.195822 f(x)=     0.000000
   iter:   8  x=   -0.802801  g=    0.195822 f(x)=     0.000000
   iter:   9  x=   -0.802801  g=    0.195822 f(x)=     0.000000
The output lambda is                    ....    -0.802801 (9 iterations)
The final length of the internal step   ....  0.300000000
Converting the step to cartesian space:
 Initial RMS(Int)=    0.0346410162
Transforming coordinates:
 Iter   0:  RMS(Cart)=    0.0597210981 RMS(Int)=    0.0345742213
 Iter   1:  RMS(Cart)=    0.0006601110 RMS(Int)=    0.0003681158
 Iter   2:  RMS(Cart)=    0.0000188663 RMS(Int)=    0.0000155056
 Iter   3:  RMS(Cart)=    0.0000005270 RMS(Int)=    0.0000003648
 Iter   4:  RMS(Cart)=    0.0000000280 RMS(Int)=    0.0000000157
done
Storing new coordinates                 .... done

                                .--------------------.
          ----------------------|Geometry convergence|-------------------------
          Item                value                   Tolerance       Converged
          ---------------------------------------------------------------------
          RMS gradient        0.0320471090            0.0001000000      NO
          MAX gradient        0.1117757764            0.0003000000      NO
          RMS step            0.0346410162            0.0020000000      NO
          MAX step            0.1213961165            0.0040000000      NO
          ........................................................
          Max(Bonds)      0.0642      Max(Angles)    1.65
          Max(Dihed)        1.76      Max(Improp)    0.00
          ---------------------------------------------------------------------

The optimization has not yet converged - more geometry cycles are needed


    ---------------------------------------------------------------------------
                         Redundant Internal Coordinates
                            (Angstroem and degrees)

        Definition                    Value    dE/dq     Step     New-Value
    ----------------------------------------------------------------------------
     1. B(C   1,C   0)                1.6176  0.043925 -0.0217    1.5959   
     2. B(H   2,C   0)                1.1289  0.017024 -0.0081    1.1209   
     3. B(H   3,C   0)                1.1236  0.013632 -0.0064    1.1171   
     4. B(H   4,C   0)                1.1551  0.031568 -0.0154    1.1397   
     5. B(C   5,C   1)                1.6611  0.051908 -0.0266    1.6345   
     6. B(H   6,C   1)                1.1347  0.019908 -0.0095    1.1252   
     7. B(H   7,C   1)                1.1286  0.016251 -0.0077    1.1209   
     8. B(C   8,C   5)                1.5623  0.023433 -0.0109    1.5514   
     9. B(H   9,C   5)                1.2916  0.076878 -0.0417    1.2499   
    10. B(H  10,C   5)                1.2704  0.070290 -0.0376    1.2328   
    11. B(N  11,C   8)                1.9149  0.099538 -0.0596    1.8553   
    12. B(H  12,C   8)                1.5233  0.098123 -0.0593    1.4640   
    13. B(H  13,C   8)                1.5956  0.099009 -0.0610    1.5346   
    14. B(H  14,N  11)                1.3193  0.109096 -0.0613    1.2580   
    15. B(H  15,N  11)                1.3638  0.111776 -0.0642    1.2996   
    16. A(H   2,C   0,H   3)          103.81 -0.006619    0.37    104.18   
    17. A(C   1,C   0,H   2)          111.76  0.001091   -0.06    111.70   
    18. A(H   3,C   0,H   4)          107.18 -0.003342    0.17    107.35   
    19. A(H   2,C   0,H   4)          109.47  0.000777   -0.06    109.41   
    20. A(C   1,C   0,H   3)          111.58  0.006076   -0.31    111.27   
    21. A(C   1,C   0,H   4)          112.59  0.001248   -0.08    112.51   
    22. A(C   0,C   1,C   5)          108.99 -0.014681    0.75    109.74   
    23. A(H   6,C   1,H   7)          102.60 -0.006829    0.38    102.97   
    24. A(C   5,C   1,H   7)          112.30  0.006892   -0.37    111.93   
    25. A(C   0,C   1,H   7)          109.20  0.003417   -0.16    109.04   
    26. A(C   0,C   1,H   6)          112.79  0.006074   -0.32    112.47   
    27. A(C   5,C   1,H   6)          110.89  0.006295   -0.34    110.55   
    28. A(C   8,C   5,H   9)          113.34  0.009971   -0.53    112.81   
    29. A(C   1,C   5,H   9)          114.05  0.006345   -0.35    113.70   
    30. A(H   9,C   5,H  10)          106.81 -0.002916    0.12    106.92   
    31. A(C   8,C   5,H  10)          103.36 -0.001590    0.16    103.52   
    32. A(C   1,C   5,H  10)          111.27  0.007935   -0.43    110.84   
    33. A(C   1,C   5,C   8)          107.54 -0.019756    1.04    108.57   
    34. A(N  11,C   8,H  13)          113.87  0.011425   -0.70    113.16   
    35. A(C   5,C   8,H  13)          111.57  0.003013   -0.11    111.46   
    36. A(N  11,C   8,H  12)          116.28  0.018099   -1.09    115.19   
    37. A(C   5,C   8,H  12)          100.47 -0.013395    0.88    101.35   
    38. A(H  12,C   8,H  13)          107.94 -0.002512    0.11    108.05   
    39. A(C   5,C   8,N  11)          105.91 -0.020189    1.14    107.06   
    40. A(H  14,N  11,H  15)          108.90 -0.010930    0.50    109.41   
    41. A(C   8,N  11,H  15)          112.44  0.014351   -0.88    111.56   
    42. A(C   8,N  11,H  14)          117.90  0.028105   -1.65    116.25   
    43. D(H   6,C   1,C   0,H   4)     54.76 -0.000867    0.06     54.82   
    44. D(C   5,C   1,C   0,H   3)    -61.05  0.001591   -0.11    -61.16   
    45. D(H   7,C   1,C   0,H   3)     61.96  0.002902   -0.18     61.77   
    46. D(H   6,C   1,C   0,H   2)    -68.93 -0.003675    0.24    -68.69   
    47. D(C   5,C   1,C   0,H   4)    178.38  0.000675   -0.05    178.33   
    48. D(H   6,C   1,C   0,H   3)    175.33  0.000049    0.00    175.33   
    49. D(H   7,C   1,C   0,H   4)    -58.61  0.001987   -0.13    -58.74   
    50. D(C   5,C   1,C   0,H   2)     54.68 -0.002133    0.13     54.82   
    51. D(H   7,C   1,C   0,H   2)    177.69 -0.000821    0.05    177.74   
    52. D(H   9,C   5,C   1,H   6)    -86.59  0.002052   -0.13    -86.73   
    53. D(C   8,C   5,C   1,H   7)    154.12  0.003738   -0.22    153.89   
    54. D(C   8,C   5,C   1,H   6)     39.99  0.004133   -0.26     39.73   
    55. D(C   8,C   5,C   1,C   0)    -84.75  0.002440   -0.15    -84.90   
    56. D(H   9,C   5,C   1,H   7)     27.54  0.001657   -0.10     27.44   
    57. D(H  10,C   5,C   1,H   7)    -93.36 -0.005067    0.32    -93.03   
    58. D(H  10,C   5,C   1,H   6)    152.51 -0.004672    0.29    152.80   
    59. D(H  10,C   5,C   1,C   0)     27.78 -0.006365    0.40     28.17   
    60. D(H   9,C   5,C   1,C   0)    148.67  0.000359   -0.02    148.65   
    61. D(H  13,C   8,C   5,H   9)     84.90  0.004991   -0.34     84.57   
    62. D(H  13,C   8,C   5,C   1)    -42.09  0.004895   -0.31    -42.40   
    63. D(H  12,C   8,C   5,H  10)    -45.67 -0.003391    0.19    -45.48   
    64. D(H  12,C   8,C   5,H   9)   -160.90 -0.003646    0.20   -160.69   
    65. D(H  12,C   8,C   5,C   1)     72.11 -0.003743    0.23     72.34   
    66. D(N  11,C   8,C   5,H  10)     75.72  0.002844   -0.18     75.53   
    67. D(N  11,C   8,C   5,H   9)    -39.51  0.002589   -0.17    -39.68   
    68. D(H  13,C   8,C   5,H  10)   -159.87  0.005246   -0.35   -160.23   
    69. D(N  11,C   8,C   5,C   1)   -166.50  0.002493   -0.14   -166.64   
    70. D(H  15,N  11,C   8,C   5)    -64.21 -0.006607    0.50    -63.72   
    71. D(H  14,N  11,C   8,H  13)    -59.20  0.021361   -1.43    -60.63   
    72. D(H  14,N  11,C   8,H  12)    174.34 -0.002320    0.08    174.42   
    73. D(H  14,N  11,C   8,C   5)     63.76  0.017939   -1.19     62.57   
    74. D(H  15,N  11,C   8,H  13)    172.82 -0.003186    0.26    173.08   
    75. D(H  15,N  11,C   8,H  12)     46.37 -0.026866    1.76     48.13   
    ----------------------------------------------------------------------------

         *************************************************************
         *                GEOMETRY OPTIMIZATION CYCLE   2            *
         *************************************************************
---------------------------------
CARTESIAN COORDINATES (ANGSTROEM)
---------------------------------
  C     -2.344829    0.323438   -0.519622
  C     -1.424199   -0.650134    0.347293
  H     -1.823875    0.666041   -1.451045
  H     -2.567987    1.268561    0.032601
  H     -3.342877   -0.151905   -0.796842
  C      0.002535    0.079976    0.668281
  H     -1.255782   -1.642967   -0.154791
  H     -1.970595   -0.931692    1.284663
  C      0.958683   -0.155111   -0.530559
  H      0.504625   -0.257429    1.761995
  H     -0.128510    1.305452    0.696469
  N      2.662193    0.319442    0.030711
  H      0.370502    0.721631   -1.544855
  H      0.872496   -1.599101   -1.042802
  H      3.143220   -0.353994    0.978116
  H      2.733872    1.584190    0.320838

----------------------------
CARTESIAN COORDINATES (A.U.)
----------------------------
  NO LB      ZA    FRAG     MASS         X           Y           Z
   0 C     6.0000    0    12.011   -4.431085    0.611209   -0.981943
   1 C     6.0000    0    12.011   -2.691347   -1.228575    0.656289
   2 H     1.0000    0     1.008   -3.446625    1.258636   -2.742078
   3 H     1.0000    0     1.008   -4.852793    2.397232    0.061607
   4 H     1.0000    0     1.008   -6.317123   -0.287058   -1.505814
   5 C     6.0000    0    12.011    0.004791    0.151133    1.262868
   6 H     1.0000    0     1.008   -2.373085   -3.104758   -0.292512
   7 H     1.0000    0     1.008   -3.723885   -1.760642    2.427661
   8 C     6.0000    0    12.011    1.811649   -0.293117   -1.002612
   9 H     1.0000    0     1.008    0.953602   -0.486471    3.329687
  10 H     1.0000    0     1.008   -0.242849    2.466947    1.316136
  11 N     7.0000    0    14.007    5.030815    0.603659    0.058035
  12 H     1.0000    0     1.008    0.700148    1.363684   -2.919352
  13 H     1.0000    0     1.008    1.648778   -3.021862   -1.970611
  14 H     1.0000    0     1.008    5.939825   -0.668951    1.848371
  15 H     1.0000    0     1.008    5.166270    2.993685    0.606296

--------------------------------
INTERNAL COORDINATES (ANGSTROEM)
--------------------------------
 C      0   0   0     0.000000000000     0.00000000     0.00000000
 C      1   0   0     1.595914533517     0.00000000     0.00000000
 H      1   2   0     1.120856652106   111.70028229     0.00000000
 H      1   2   3     1.117142050895   111.27356271   244.02755888
 H      1   2   3     1.139693749545   112.51140569   123.51522466
 C      2   1   3     1.634523168989   109.73771335    54.81638238
 H      2   1   3     1.125242365559   112.47102263   291.30735365
 H      2   1   3     1.120930484772   109.04391372   177.74495414
 C      6   2   1     1.551355111068   108.57433156   275.10334882
 H      6   2   1     1.249858233557   113.69771903   148.64797243
 H      6   2   1     1.232784845822   110.83854164    28.17275549
 N      9   6   2     1.855308703619   107.05944704   193.36187705
 H      9   6   2     1.464045127870   101.36267172    72.33583250
 H      9   6   2     1.534577027570   111.46464362   317.60073874
 H     12   9   6     1.257966463133   116.23190558    62.58348779
 H     12   9   6     1.299575979851   111.53729208   296.27803615

---------------------------
INTERNAL COORDINATES (A.U.)
---------------------------
 C      0   0   0     0.000000000000     0.00000000     0.00000000
 C      1   0   0     3.015841401492     0.00000000     0.00000000
 H      1   2   0     2.118112107865   111.70028229     0.00000000
 H      1   2   3     2.111092528879   111.27356271   244.02755888
 H      1   2   3     2.153709063181   112.51140569   123.51522466
 C      2   1   3     3.088801148939   109.73771335    54.81638238
 H      2   1   3     2.126399905192   112.47102263   291.30735365
 H      2   1   3     2.118251631383   109.04391372   177.74495414
 C      6   2   1     2.931636296378   108.57433156   275.10334882
 H      6   2   1     2.361889767650   113.69771903   148.64797243
 H      6   2   1     2.329625740651   110.83854164    28.17275549
 N      9   6   2     3.506025343720   107.05944704   193.36187705
 H      9   6   2     2.766644339375   101.36267172    72.33583250
 H      9   6   2     2.899930313514   111.46464362   317.60073874
 H     12   9   6     2.377212100978   116.23190558    62.58348779
 H     12   9   6     2.455842692141   111.53729208   296.27803615



           ************************************************************
[...]
     37       0.019850  -0.256425  -0.122789  -0.294502   0.410349   0.133937
     38      -0.196892  -0.183227  -0.077024  -0.161265   0.239831   0.085866
     39       0.243460  -0.123201  -0.014060  -0.147525   0.241993   0.068244
     40       0.085587   0.119273   0.068073   0.125022  -0.173558  -0.064628
     41      -0.216685  -0.264611  -0.138595  -0.263405   0.378769   0.141936
     42      -0.018172  -0.007651   0.008377   0.005961   0.008064   0.012036
     43       0.034175  -0.004492   0.012139  -0.001207   0.002971  -0.001401
     44       0.022548   0.001246   0.007893   0.001784  -0.002583  -0.004877
     45       0.146326   0.002815  -0.002706  -0.027874   0.013629  -0.006920
     46      -0.005923   0.002087  -0.003798  -0.000022   0.001692   0.002723
     47       0.063325   0.003302   0.005986  -0.006190  -0.002150  -0.010110
                 36         37         38         39         40         41    
      0       0.000022   0.000288   0.007543  -0.016831  -0.017341   0.000857
      1      -0.000093  -0.001314  -0.011868   0.017363   0.030701  -0.003490
      2      -0.000363   0.001163   0.011125  -0.016353  -0.020884   0.000088
      3      -0.000398   0.003399  -0.000806   0.016293  -0.009672   0.006703
      4      -0.000428   0.003355   0.002479   0.051718  -0.040098   0.009633
      5      -0.000616  -0.007945   0.000539  -0.012041   0.009101  -0.008912
      6       0.005216   0.010751   0.092065  -0.142900  -0.185074   0.005113
      7      -0.000231   0.000131   0.002686  -0.005947  -0.006336  -0.000248
      8       0.002105  -0.021859  -0.177636   0.272297   0.360052  -0.009832
      9      -0.002701  -0.000340  -0.017151   0.026062   0.041412  -0.001948
     10      -0.000597   0.018921   0.199618  -0.329379  -0.482745   0.038210
     11      -0.000179   0.008751   0.072677  -0.120086  -0.175253   0.015273
     12      -0.001355  -0.012128  -0.160786   0.310841   0.337060  -0.006605
     13       0.001534  -0.006126  -0.064995   0.128202   0.134756  -0.002872
     14       0.005130  -0.001158  -0.021037   0.040725   0.048208  -0.002601
     15      -0.004506   0.015977  -0.003722   0.001355  -0.002391  -0.027243
     16      -0.000585   0.030230  -0.001351  -0.012880   0.012919   0.075720
     17       0.003372   0.060671  -0.007381  -0.001330  -0.000683  -0.027737
     18       0.002995   0.004824   0.004715   0.051728  -0.039213   0.006986
     19       0.000459  -0.033821  -0.024468  -0.594462   0.450561  -0.094073
     20      -0.003353  -0.015171  -0.008908  -0.234528   0.174506  -0.037980
     21       0.005199  -0.057939   0.006075  -0.231127   0.160551  -0.086765
     22       0.005898  -0.005237   0.001574  -0.017807   0.014105  -0.010574
     23       0.003198   0.104331  -0.005822   0.378559  -0.265731   0.142116
     24       0.026952   0.000616  -0.012317  -0.002541  -0.001963   0.009624
     25       0.001009  -0.004437  -0.032628  -0.007182  -0.013814  -0.027685
     26      -0.024961  -0.007201  -0.056606  -0.010730  -0.015813   0.014500
     27       0.000734  -0.244423   0.040370  -0.015142   0.026053   0.287458
     28       0.011626   0.355121  -0.055754   0.024340  -0.042372  -0.397778
     29       0.010226  -0.444089   0.072124  -0.033401   0.054965   0.528192
     30       0.005514   0.056391  -0.004994  -0.010040   0.006285   0.034596
     31      -0.003421  -0.714166   0.068215   0.127615  -0.112250  -0.510410
     32       0.014083  -0.262441   0.024801   0.049964  -0.044636  -0.201775
     33      -0.061624  -0.000403   0.000004   0.000093  -0.000189  -0.000041
     34      -0.026881  -0.000102   0.000563   0.000106   0.000180   0.000311
     35      -0.040738  -0.000115   0.000982   0.000133   0.000461  -0.000172
     36      -0.068462   0.018672   0.190890   0.036960   0.043236  -0.116563
     37      -0.013605  -0.033979  -0.318242  -0.060155  -0.071567   0.185420
     38       0.011430   0.041104   0.383946   0.073208   0.085944  -0.234288
     39      -0.068863  -0.006059  -0.040569  -0.006736  -0.014699  -0.005053
     40      -0.018069   0.091230   0.705348   0.142887   0.238298   0.149111
     41       0.012870   0.037049   0.280670   0.055431   0.096521   0.062778
     42       0.253072  -0.003276  -0.001877  -0.000803  -0.000041   0.003927
     43       0.584956   0.000561   0.002090   0.000520   0.000525  -0.002867
     44       0.288452  -0.000848  -0.005594  -0.000808  -0.001754   0.004918
     45       0.461991  -0.002521   0.002051   0.000408   0.000832  -0.000724
     46      -0.193854  -0.002883  -0.007147  -0.001394  -0.002838  -0.003819
     47       0.491038  -0.000386  -0.005407  -0.001172  -0.002254  -0.001543
                 42         43         44         45         46         47    
      0       0.007585   0.003814  -0.011245  -0.079669   0.000023   0.000023
      1      -0.009273   0.000835  -0.068509  -0.024692   0.000006   0.000003
      2      -0.016683   0.000730  -0.059662   0.040303  -0.000052  -0.000028
      3      -0.037150   0.009391   0.006171  -0.005315   0.000040   0.000002
      4       0.035922  -0.013015  -0.010952   0.001276   0.000004  -0.000071
      5       0.070354  -0.018695  -0.012663   0.009005  -0.000024   0.000004
      6      -0.082461   0.003910  -0.218562   0.296680  -0.000225  -0.000178
      7      -0.005603  -0.000162  -0.022934   0.013083  -0.000053   0.000050
      8       0.157075  -0.005237   0.417114  -0.599254   0.000544   0.000301
      9      -0.007774  -0.001897  -0.062005  -0.013512  -0.000019  -0.000010
     10       0.122144   0.009024   0.691007   0.018524  -0.000015   0.000004
     11       0.043375   0.002087   0.241677   0.014211   0.000019   0.000009
     12      -0.000849  -0.045155   0.409025   0.667322   0.000145  -0.000001
     13      -0.004271  -0.017004   0.151419   0.264299  -0.000062  -0.000055
     14      -0.004271  -0.007123   0.049748   0.103228   0.000153   0.000048
     15       0.002135   0.010365   0.000351   0.000759   0.000533   0.000112
     16       0.000729  -0.032272  -0.001239  -0.000649   0.000211  -0.000299
     17       0.005714   0.008469  -0.000199   0.000853   0.000461   0.000089
     18       0.034928  -0.009891  -0.012299   0.002736   0.000284  -0.000273
     19      -0.486056   0.168880   0.132018  -0.026323   0.000186   0.000212
     20      -0.179344   0.062789   0.048008  -0.009997  -0.000017   0.000148
     21       0.403134  -0.100197  -0.061111   0.056960   0.000308   0.000024
     22       0.053240  -0.012464  -0.008098   0.008565   0.000169  -0.000031
     23      -0.657146   0.162362   0.102699  -0.096050   0.000003  -0.000033
     24       0.007513   0.023650  -0.001198   0.001798   0.002206  -0.000645
     25      -0.022240  -0.075272   0.002803  -0.004608   0.000094   0.002024
     26       0.008578   0.028664  -0.002399   0.002824  -0.002413  -0.000510
     27      -0.025389  -0.103175  -0.002594  -0.004811  -0.002324  -0.001674
     28       0.036067   0.147256   0.003352   0.006733   0.000747   0.000761
     29      -0.048687  -0.195172  -0.002772  -0.008855   0.000226  -0.000054
     30       0.000864  -0.018281   0.001784  -0.000224  -0.001350   0.000945
     31      -0.041167   0.231224   0.014972   0.001400  -0.001390   0.001301
     32      -0.014469   0.091077   0.006594   0.000908   0.000679  -0.000541
     33      -0.000178  -0.000560   0.000010  -0.000114  -0.023066  -0.019566
     34       0.000393   0.001732  -0.000062   0.000161  -0.017043   0.076130
     35      -0.000189  -0.000598   0.000132  -0.000153  -0.050032  -0.018318
     36      -0.077489  -0.257143   0.016555  -0.020629   0.000973   0.004517
     37       0.127924   0.423534  -0.025916   0.033819  -0.006328  -0.007951
     38      -0.160989  -0.532638   0.031846  -0.042973   0.005590   0.007304
     39      -0.005677  -0.027555  -0.000547  -0.000990  -0.002825   0.000695
     40       0.135719   0.467094  -0.007671   0.020750   0.007081  -0.010453
     41       0.055543   0.196385  -0.003217   0.008877   0.002066  -0.002629
     42      -0.000289  -0.001394  -0.000017  -0.000065   0.294504   0.271385
     43      -0.002122  -0.007745   0.000742  -0.001055  -0.424711  -0.382626
     44       0.002974   0.009428  -0.000831   0.000803   0.505102   0.501657
     45       0.000816   0.005902   0.000188   0.000305  -0.002339   0.002519
     46      -0.002562  -0.007113   0.000176  -0.000380   0.657442  -0.678832
     47      -0.001270  -0.004040   0.000062  -0.000138   0.205043  -0.246352


-----------
IR SPECTRUM
-----------

 Mode   freq       eps      Int      T**2         TX        TY        TZ
       cm**-1   L/(mol*cm) km/mol    a.u.
----------------------------------------------------------------------------
  6:     79.15   0.000277    1.40  0.001090  (-0.012430  0.029345 -0.008635)
  7:    119.93   0.000003    0.02  0.000009  (-0.002570  0.000488 -0.001445)
  8:    218.64   0.000317    1.60  0.000453  (-0.018766 -0.009317 -0.003721)
  9:    286.23   0.002876   14.53  0.003135  ( 0.000484 -0.055099  0.009952)
 10:    304.63   0.007039   35.57  0.007211  (-0.027519  0.077148 -0.022399)
 11:    350.95   0.000392    1.98  0.000349  ( 0.016264  0.008445  0.003608)
 12:    490.15   0.000672    3.40  0.000428  (-0.019149 -0.007746  0.001179)
 13:    743.60   0.000504    2.55  0.000211  ( 0.008160 -0.010794 -0.005316)
 14:    783.58   0.000334    1.69  0.000133  (-0.008566 -0.002908 -0.007157)
 15:    850.95   0.032021  161.82  0.011743  ( 0.099153  0.011973 -0.042051)
 16:    913.90   0.006544   33.07  0.002235  (-0.041081 -0.010931  0.020676)
 17:    935.66   0.000404    2.04  0.000135  (-0.010949  0.002711 -0.002762)
 18:    989.37   0.001891    9.56  0.000596  (-0.015965  0.000896  0.018461)
 19:   1050.78   0.000073    0.37  0.000022  (-0.000136  0.004381  0.001532)
 20:   1107.77   0.000129    0.65  0.000036  ( 0.005864  0.000621 -0.001285)
 21:   1128.26   0.005161   26.08  0.001427  ( 0.035781  0.006048 -0.010516)
 22:   1162.50   0.001014    5.13  0.000272  (-0.012942 -0.004375 -0.009253)
 23:   1209.23   0.000205    1.04  0.000053  ( 0.004056  0.005575  0.002315)
 24:   1282.21   0.000228    1.15  0.000055  ( 0.007311  0.000068 -0.001414)
 25:   1309.33   0.000180    0.91  0.000043  (-0.003096  0.005547 -0.001560)
 26:   1337.70   0.001257    6.35  0.000293  ( 0.016285  0.004223 -0.003190)
 27:   1376.00   0.000038    0.19  0.000009  (-0.000667  0.000580 -0.002792)
 28:   1382.86   0.000231    1.17  0.000052  (-0.004874 -0.005143 -0.001366)
 29:   1419.21   0.001110    5.61  0.000244  ( 0.002166 -0.011280  0.010591)
 30:   1421.71   0.002067   10.45  0.000454  (-0.021285  0.000558 -0.000619)
 31:   1461.57   0.000123    0.62  0.000026  ( 0.003504  0.003725  0.000274)
 32:   1467.79   0.000184    0.93  0.000039  (-0.001002 -0.006152 -0.000434)
 33:   1479.64   0.000789    3.99  0.000166  (-0.006105  0.004416  0.010473)
 34:   1483.17   0.000795    4.02  0.000167  (-0.004291  0.000793  0.012178)
 35:   1485.38   0.001528    7.72  0.000321  ( 0.010029  0.012890  0.007375)
 36:   1650.83   0.004298   21.72  0.000812  ( 0.012793  0.009990  0.023430)
 37:   3042.00   0.005372   27.15  0.000551  ( 0.010698  0.010434  0.018103)
 38:   3059.78   0.006867   34.70  0.000700  (-0.005170 -0.016361 -0.020148)
 39:   3060.65   0.006716   33.94  0.000685  (-0.001554  0.019322 -0.017578)
 40:   3063.21   0.003649   18.44  0.000372  (-0.015614 -0.004600 -0.010335)
 41:   3093.13   0.003248   16.42  0.000328  (-0.003192  0.016533 -0.006647)
 42:   3114.14   0.003685   18.62  0.000369  (-0.005773  0.000717  0.018315)
 43:   3121.70   0.010819   54.68  0.001082  ( 0.013311 -0.029615  0.005228)
 44:   3155.33   0.005972   30.18  0.000591  (-0.001552 -0.017267 -0.017032)
 45:   3164.29   0.005347   27.02  0.000527  (-0.019392 -0.005856  0.010815)
 46:   3554.22   0.000037    0.19  0.000003  (-0.001083  0.000220  0.001436)
 47:   3635.96   0.000225    1.14  0.000019  ( 0.000882 -0.004184  0.001015)

* The epsilon (eps) is given for a Dirac delta lineshape.
** The dipole moment derivative (T) already includes vibrational overlap.

The first frequency considered to be a vibration is 6
The total number of vibrations considered is 42


--------------------------
THERMOCHEMISTRY AT 298.15K
--------------------------

Temperature         ... 298.15 K
Pressure            ... 1.00 atm
Total Mass          ... 73.14 AMU

Throughout the following assumptions are being made:
  (1) The electronic state is orbitally nondegenerate
  (2) There are no thermally accessible electronically excited states
  (3) Hindered rotations indicated by low frequency modes are not
      treated as such but are treated as vibrations and this may
      cause some error
  (4) All equations used are the standard statistical mechanics
      equations for an ideal gas
  (5) All vibrations are strictly harmonic

freq.      79.15  E(vib)   ...       0.49 
freq.     119.93  E(vib)   ...       0.44 
freq.     218.64  E(vib)   ...       0.33 
freq.     286.23  E(vib)   ...       0.27 
freq.     304.63  E(vib)   ...       0.26 
freq.     350.95  E(vib)   ...       0.23 
freq.     490.15  E(vib)   ...       0.15 
freq.     743.60  E(vib)   ...       0.06 
freq.     783.58  E(vib)   ...       0.05 
freq.     850.95  E(vib)   ...       0.04 
freq.     913.90  E(vib)   ...       0.03 
freq.     935.66  E(vib)   ...       0.03 
freq.     989.37  E(vib)   ...       0.02 
freq.    1050.78  E(vib)   ...       0.02 
freq.    1107.77  E(vib)   ...       0.02 
freq.    1128.26  E(vib)   ...       0.01 
freq.    1162.50  E(vib)   ...       0.01 
freq.    1209.23  E(vib)   ...       0.01 
freq.    1282.21  E(vib)   ...       0.01 
freq.    1309.33  E(vib)   ...       0.01 
freq.    1337.70  E(vib)   ...       0.01 
freq.    1376.00  E(vib)   ...       0.01 
freq.    1382.86  E(vib)   ...       0.01 
freq.    1419.21  E(vib)   ...       0.00 
freq.    1421.71  E(vib)   ...       0.00 
freq.    1461.57  E(vib)   ...       0.00 
freq.    1467.79  E(vib)   ...       0.00 
freq.    1479.64  E(vib)   ...       0.00 
freq.    1483.17  E(vib)   ...       0.00 
freq.    1485.38  E(vib)   ...       0.00 
freq.    1650.83  E(vib)   ...       0.00 
freq.    3042.00  E(vib)   ...       0.00 
freq.    3059.78  E(vib)   ...       0.00 
freq.    3060.65  E(vib)   ...       0.00 
freq.    3063.21  E(vib)   ...       0.00 
freq.    3093.13  E(vib)   ...       0.00 
freq.    3114.14  E(vib)   ...       0.00 
freq.    3121.70  E(vib)   ...       0.00 
freq.    3155.33  E(vib)   ...       0.00 
freq.    3164.29  E(vib)   ...       0.00 
freq.    3554.22  E(vib)   ...       0.00 
freq.    3635.96  E(vib)   ...       0.00 

------------
INNER ENERGY
------------

The inner energy is: U= E(el) + E(ZPE) + E(vib) + E(rot) + E(trans)
    E(el)   - is the total energy from the electronic structure calculation
              = E(kin-el) + E(nuc-el) + E(el-el) + E(nuc-nuc)
    E(ZPE)  - the the zero temperature vibrational energy from the frequency calculation
    E(vib)  - the the finite temperature correction to E(ZPE) due to population
              of excited vibrational states
    E(rot)  - is the rotational thermal energy
    E(trans)- is the translational thermal energy

Summary of contributions to the inner energy U:
Electronic energy                ...   -213.58982921 Eh
Zero point energy                ...      0.15114980 Eh      94.85 kcal/mol
Thermal vibrational correction   ...      0.00403431 Eh       2.53 kcal/mol
Thermal rotational correction    ...      0.00141627 Eh       0.89 kcal/mol
Thermal translational correction ...      0.00141627 Eh       0.89 kcal/mol
-----------------------------------------------------------------------
Total thermal energy                   -213.43181256 Eh


Summary of corrections to the electronic energy:
(perhaps to be used in another calculation)
Total thermal correction                  0.00686685 Eh       4.31 kcal/mol
Non-thermal (ZPE) correction              0.15114980 Eh      94.85 kcal/mol
-----------------------------------------------------------------------
Total correction                          0.15801665 Eh      99.16 kcal/mol


--------
ENTHALPY
--------

The enthalpy is H = U + kB*T
                kB is Boltzmann's constant
Total free energy                 ...   -213.43181256 Eh 
Thermal Enthalpy correction       ...      0.00094421 Eh       0.59 kcal/mol
-----------------------------------------------------------------------
Total Enthalpy                    ...   -213.43086835 Eh


Note: Only C1 symmetry has been detected, increase convergence thresholds 
      if your molecule has a higher symmetry. Symmetry factor of 1.0 is   
      used for the rotational entropy correction. 
 

Note: Rotational entropy computed according to Herzberg 
Infrared and Raman Spectra, Chapter V,1, Van Nostrand Reinhold, 1945 
Point Group:  C1, Symmetry Number:   1  
Rotational constants in cm-1:     0.400681     0.076981     0.071075 

Vibrational entropy computed according to the QRRHO of S. Grimme
Chem.Eur.J. 2012 18 9955


-------
ENTROPY
-------

The entropy contributions are T*S = T*(S(el)+S(vib)+S(rot)+S(trans))
     S(el)   - electronic entropy
     S(vib)  - vibrational entropy
     S(rot)  - rotational entropy
     S(trans)- translational entropy
The entropies will be listed as multiplied by the temperature to get
units of energy

Electronic entropy                ...      0.00000000 Eh      0.00 kcal/mol
Vibrational entropy               ...      0.00689245 Eh      4.33 kcal/mol
Rotational entropy                ...      0.01240133 Eh      7.78 kcal/mol
Translational entropy             ...      0.01842822 Eh     11.56 kcal/mol
-----------------------------------------------------------------------
Final entropy term                ...      0.03772200 Eh     23.67 kcal/mol

In case the symmetry of your molecule has not been determined correctly
or in case you have a reason to use a different symmetry number we print 
out the resulting rotational entropy values for sn=1,12 :
 --------------------------------------------------------
|  sn= 1 | S(rot)=       0.01240133 Eh      7.78 kcal/mol|
|  sn= 2 | S(rot)=       0.01174687 Eh      7.37 kcal/mol|
|  sn= 3 | S(rot)=       0.01136404 Eh      7.13 kcal/mol|
|  sn= 4 | S(rot)=       0.01109242 Eh      6.96 kcal/mol|
|  sn= 5 | S(rot)=       0.01088173 Eh      6.83 kcal/mol|
|  sn= 6 | S(rot)=       0.01070958 Eh      6.72 kcal/mol|
|  sn= 7 | S(rot)=       0.01056404 Eh      6.63 kcal/mol|
|  sn= 8 | S(rot)=       0.01043796 Eh      6.55 kcal/mol|
|  sn= 9 | S(rot)=       0.01032675 Eh      6.48 kcal/mol|
|  sn=10 | S(rot)=       0.01022727 Eh      6.42 kcal/mol|
|  sn=11 | S(rot)=       0.01013728 Eh      6.36 kcal/mol|
|  sn=12 | S(rot)=       0.01005513 Eh      6.31 kcal/mol|
 --------------------------------------------------------


-------------------
GIBBS FREE ENERGY
-------------------

The Gibbs free energy is G = H - T*S

Total enthalpy                    ...   -213.43086835 Eh 
Total entropy correction          ...     -0.03772200 Eh    -23.67 kcal/mol
-----------------------------------------------------------------------
Final Gibbs free energy         ...   -213.46859034 Eh

For completeness - the Gibbs free energy minus the electronic energy
G-E(el)                           ...      0.12123886 Eh     76.08 kcal/mol


Timings for individual modules:

Sum of individual times         ...      560.186 sec (=   9.336 min)
GTO integral calculation        ...       12.265 sec (=   0.204 min)   2.2 %
SCF iterations                  ...      365.982 sec (=   6.100 min)  65.3 %
SCF Gradient evaluation         ...      104.602 sec (=   1.743 min)  18.7 %
Geometry relaxation             ...        1.486 sec (=   0.025 min)   0.3 %
Analytical frequency calculation...       75.851 sec (=   1.264 min)  13.5 %
                             ****ORCA TERMINATED NORMALLY****
TOTAL RUN TIME: 0 days 0 hours 9 minutes 29 seconds 448 msec
