
                                 *****************
                                 * O   R   C   A *
                                 *****************

                                            #,                                       
                                            ###                                      
                                            ####                                     
                                            #####                                    
                                            ######                                   
                                           ########,                                 
                                     ,,################,,,,,                         
                               ,,#################################,,                 
                          ,,##########################################,,             
                       ,#########################################, ''#####,          
                    ,#############################################,,   '####,        
                  ,##################################################,,,,####,       
                ,###########''''           ''''###############################       
              ,#####''   ,,,,##########,,,,          '''####'''          '####       
            ,##' ,,,,###########################,,,                        '##       
           ' ,,###''''                  '''############,,,                           
         ,,##''                                '''############,,,,        ,,,,,,###''
      ,#''                                            '''#######################'''  
     '                                                          ''''####''''         
             ,#######,   #######,   ,#######,      ##                                
            ,#'     '#,  ##    ##  ,#'     '#,    #''#        ######   ,####,        
            ##       ##  ##   ,#'  ##            #'  '#       #        #'  '#        
            ##       ##  #######   ##           ,######,      #####,   #    #        
            '#,     ,#'  ##    ##  '#,     ,#' ,#      #,         ##   #,  ,#        
             '#######'   ##     ##  '#######'  #'      '#     #####' # '####'        



                  #######################################################
                  #                        -***-                        #
                  #          Department of theory and spectroscopy      #
                  #    Directorship and core code : Frank Neese         #
                  #        Max Planck Institute fuer Kohlenforschung    #
                  #                Kaiser Wilhelm Platz 1               #
                  #                 D-45470 Muelheim/Ruhr               #
                  #                      Germany                        #
                  #                                                     #
                  #                  All rights reserved                #
                  #                        -***-                        #
                  #######################################################


                         Program Version 5.0.4 -  RELEASE  -


 With contributions from (in alphabetic order):
   Daniel Aravena         : Magnetic Suceptibility
   Michael Atanasov       : Ab Initio Ligand Field Theory (pilot matlab implementation)
   Alexander A. Auer      : GIAO ZORA, VPT2 properties, NMR spectrum
   Ute Becker             : Parallelization
   Giovanni Bistoni       : ED, misc. LED, open-shell LED, HFLD
   Martin Brehm           : Molecular dynamics
   Dmytro Bykov           : SCF Hessian
   Vijay G. Chilkuri      : MRCI spin determinant printing, contributions to CSF-ICE
   Dipayan Datta          : RHF DLPNO-CCSD density
   Achintya Kumar Dutta   : EOM-CC, STEOM-CC
   Dmitry Ganyushin       : Spin-Orbit,Spin-Spin,Magnetic field MRCI
   Miquel Garcia          : C-PCM and meta-GGA Hessian, CC/C-PCM, Gaussian charge scheme
   Yang Guo               : DLPNO-NEVPT2, F12-NEVPT2, CIM, IAO-localization
   Andreas Hansen         : Spin unrestricted coupled pair/coupled cluster methods
   Benjamin Helmich-Paris : MC-RPA, TRAH-SCF, COSX integrals
   Lee Huntington         : MR-EOM, pCC
   Robert Izsak           : Overlap fitted RIJCOSX, COSX-SCS-MP3, EOM
   Marcus Kettner         : VPT2
   Christian Kollmar      : KDIIS, OOCD, Brueckner-CCSD(T), CCSD density, CASPT2, CASPT2-K
   Simone Kossmann        : Meta GGA functionals, TD-DFT gradient, OOMP2, MP2 Hessian
   Martin Krupicka        : Initial AUTO-CI
   Lucas Lang             : DCDCAS
   Marvin Lechner         : AUTO-CI (C++ implementation), FIC-MRCC
   Dagmar Lenk            : GEPOL surface, SMD
   Dimitrios Liakos       : Extrapolation schemes; Compound Job, initial MDCI parallelization
   Dimitrios Manganas     : Further ROCIS development; embedding schemes
   Dimitrios Pantazis     : SARC Basis sets
   Anastasios Papadopoulos: AUTO-CI, single reference methods and gradients
   Taras Petrenko         : DFT Hessian,TD-DFT gradient, ASA, ECA, R-Raman, ABS, FL, XAS/XES, NRVS
   Peter Pinski           : DLPNO-MP2, DLPNO-MP2 Gradient
   Christoph Reimann      : Effective Core Potentials
   Marius Retegan         : Local ZFS, SOC
   Christoph Riplinger    : Optimizer, TS searches, QM/MM, DLPNO-CCSD(T), (RO)-DLPNO pert. Triples
   Tobias Risthaus        : Range-separated hybrids, TD-DFT gradient, RPA, STAB
   Michael Roemelt        : Original ROCIS implementation
   Masaaki Saitow         : Open-shell DLPNO-CCSD energy and density
   Barbara Sandhoefer     : DKH picture change effects
   Avijit Sen             : IP-ROCIS
   Kantharuban Sivalingam : CASSCF convergence, NEVPT2, FIC-MRCI
   Bernardo de Souza      : ESD, SOC TD-DFT
   Georgi Stoychev        : AutoAux, RI-MP2 NMR, DLPNO-MP2 response
   Willem Van den Heuvel  : Paramagnetic NMR
   Boris Wezisla          : Elementary symmetry handling
   Frank Wennmohs         : Technical directorship


 We gratefully acknowledge several colleagues who have allowed us to
 interface, adapt or use parts of their codes:
   Stefan Grimme, W. Hujo, H. Kruse, P. Pracht,  : VdW corrections, initial TS optimization,
                  C. Bannwarth, S. Ehlert          DFT functionals, gCP, sTDA/sTD-DF
   Ed Valeev, F. Pavosevic, A. Kumar             : LibInt (2-el integral package), F12 methods
   Garnet Chan, S. Sharma, J. Yang, R. Olivares  : DMRG
   Ulf Ekstrom                                   : XCFun DFT Library
   Mihaly Kallay                                 : mrcc  (arbitrary order and MRCC methods)
   Jiri Pittner, Ondrej Demel                    : Mk-CCSD
   Frank Weinhold                                : gennbo (NPA and NBO analysis)
   Christopher J. Cramer and Donald G. Truhlar   : smd solvation model
   Lars Goerigk                                  : TD-DFT with DH, B97 family of functionals
   V. Asgeirsson, H. Jonsson                     : NEB implementation
   FAccTs GmbH                                   : IRC, NEB, NEB-TS, DLPNO-Multilevel, CI-OPT
                                                   MM, QMMM, 2- and 3-layer-ONIOM, Crystal-QMMM,
                                                   LR-CPCM, SF, NACMEs, symmetry and pop. for TD-DFT,
                                                   nearIR, NL-DFT gradient (VV10), updates on ESD,
                                                   ML-optimized integration grids
   S Lehtola, MJT Oliveira, MAL Marques          : LibXC Library
   Liviu Ungur et al                             : ANISO software


 Your calculation uses the libint2 library for the computation of 2-el integrals
 For citations please refer to: http://libint.valeyev.net

 Your ORCA version has been built with support for libXC version: 5.1.0
 For citations please refer to: https://tddft.org/programs/libxc/

 This ORCA versions uses:
   CBLAS   interface :  Fast vector & matrix operations
   LAPACKE interface :  Fast linear algebra routines
   SCALAPACK package :  Parallel linear algebra routines
   Shared memory     :  Shared parallel matrices
   BLAS/LAPACK       :  OpenBLAS 0.3.15  USE64BITINT DYNAMIC_ARCH NO_AFFINITY SkylakeX SINGLE_THREADED
        Core in use  :  SkylakeX
   Copyright (c) 2011-2014, The OpenBLAS Project




***************************************
The coordinates will be read from file: butylamine_deprot_aq_17.xyz
***************************************


Your calculation utilizes the atom-pairwise dispersion correction
based on tight binding partial charges (D4)
Cite in your paper:
E.Caldeweyher, C.Bannwarth, S.Grimme, J.Chem.Phys., (2017), 147, 034112.
E.Caldeweyher, S.Ehlert, A.Hansen, H.Neugebauer, S.Grimme, J.Chem.Phys., (2018), in progress.
   

XCFun DFT library Copyright 2009-2010 Ulf Ekstrom and contributors.
See http://admol.org/xcfun for more information.
This is free software; see the source code for copying conditions.
There is ABSOLUTELY NO WARRANTY; not even for MERCHANTABILITY or FITNESS FOR A PARTICULAR PURPOSE.
For details see the documentation.
Scientific users of this library should cite U. Ekstrom, L. Visscher, R. Bast, A. J. Thorvaldsen and K. Ruud;
J.Chem.Theor.Comp. 2010, DOI: 10.1021/ct100117s
XCFun Version 0.99 

================================================================================

----- Orbital basis set information -----
Your calculation utilizes the basis: def2-SVP
   F. Weigend and R. Ahlrichs, Phys. Chem. Chem. Phys. 7, 3297 (2005).

----- AuxJ basis set information -----
Your calculation utilizes the auxiliary basis: def2/J
   F. Weigend, Phys. Chem. Chem. Phys. 8, 1057 (2006).

================================================================================
                                        WARNINGS
                       Please study these warnings very carefully!
================================================================================


WARNING: Geometry Optimization
  ===> : Switching off AutoStart
         For restart on a previous wavefunction, please use MOREAD

INFO   : the flag for use of the SHARK integral package has been found!

================================================================================
                                       INPUT FILE
================================================================================
NAME = butylamine_deprot_aq_17.inp
|  1> # ORCA 5.0.4 - /users/bwb16179/postgrad/2024_06/pKa_Reviewer_Comments/CREST_Confs/butylamine/butylamine_deprot_aq_17.inp # write input file
|  2> # Basic Mode
|  3> #
|  4> ! Opt Freq wB97X Def2-SVP D4 SlowConv TightSCF Defgrid2 Def2/J RIJCOSX 
|  5> 
|  6> %PAL NPROCS 4 END
|  7> 
|  8> %maxcore 4500
|  9> 
| 10> %geom
| 11> Maxiter 150
| 12> END
| 13> 
| 14> * xyzfile 0 1 butylamine_deprot_aq_17.xyz
| 15> 
| 16>                          ****END OF INPUT****
================================================================================

                       *****************************
                       * Geometry Optimization Run *
                       *****************************

Geometry optimization settings:
Update method            Update   .... BFGS
Choice of coordinates    CoordSys .... Z-matrix Internals
Initial Hessian          InHess   .... Almoef's Model

Convergence Tolerances:
Energy Change            TolE     ....  5.0000e-06 Eh
Max. Gradient            TolMAXG  ....  3.0000e-04 Eh/bohr
RMS Gradient             TolRMSG  ....  1.0000e-04 Eh/bohr
Max. Displacement        TolMAXD  ....  4.0000e-03 bohr
RMS Displacement         TolRMSD  ....  2.0000e-03 bohr
Strict Convergence                ....  False
------------------------------------------------------------------------------
                        ORCA OPTIMIZATION COORDINATE SETUP
------------------------------------------------------------------------------

The optimization will be done in new redundant internal coordinates
Making redundant internal coordinates   ...  (new redundants) done
Evaluating the initial hessian          ...  (Almloef) done
Evaluating the coordinates              ...  done
Calculating the B-matrix                .... done
Calculating the G-matrix                .... done
Diagonalizing the G-matrix              .... done
Small eigenvalue found = 2.279e-02
The first mode is                       ....   33
The number of degrees of freedom        ....   42

    -----------------------------------------------------------------
                    Redundant Internal Coordinates


    -----------------------------------------------------------------
         Definition                    Initial Value    Approx d2E/dq
    -----------------------------------------------------------------
      1. B(C   1,C   0)                  1.5246         0.381095   
      2. B(H   2,C   0)                  1.0880         0.362738   
      3. B(H   3,C   0)                  1.0877         0.363193   
      4. B(H   4,C   0)                  1.0879         0.362863   
      5. B(C   5,C   1)                  1.5301         0.373450   
      6. B(H   6,C   1)                  1.0931         0.355992   
      7. B(H   7,C   1)                  1.0925         0.356754   
      8. B(C   8,C   5)                  1.5338         0.368430   
      9. B(H   9,C   5)                  1.0914         0.358236   
     10. B(H  10,C   5)                  1.0910         0.358798   
     11. B(N  11,C   8)                  1.4581         0.435779   
     12. B(H  12,C   8)                  1.1039         0.342126   
     13. B(H  13,C   8)                  1.0944         0.354332   
     14. B(H  14,N  11)                  1.0137         0.426795   
     15. B(H  15,N  11)                  1.0137         0.426831   
     16. A(H   3,C   0,H   4)          108.9004         0.291581   
     17. A(C   1,C   0,H   4)          110.4908         0.325792   
     18. A(C   1,C   0,H   2)          110.1810         0.325774   
     19. A(H   2,C   0,H   3)          107.7386         0.291565   
     20. A(H   2,C   0,H   4)          108.3645         0.291523   
     21. A(C   1,C   0,H   3)          111.0786         0.325841   
     22. A(C   0,C   1,C   5)          113.9732         0.364571   
     23. A(H   6,C   1,H   7)          107.4604         0.289891   
     24. A(C   5,C   1,H   7)          108.0887         0.323804   
     25. A(C   0,C   1,H   7)          108.7625         0.324884   
     26. A(C   5,C   1,H   6)          109.1043         0.323691   
     27. A(C   0,C   1,H   6)          109.2501         0.324770   
     28. A(C   8,C   5,H   9)          108.8256         0.323306   
     29. A(C   1,C   5,H   9)          107.9429         0.324025   
     30. A(C   1,C   5,C   8)          114.3833         0.362471   
     31. A(H   9,C   5,H  10)          107.7621         0.290437   
     32. A(C   8,C   5,H  10)          107.8970         0.323389   
     33. A(C   1,C   5,H  10)          109.8397         0.324108   
     34. A(H  12,C   8,H  13)          107.3233         0.287786   
     35. A(N  11,C   8,H  13)          106.4610         0.329780   
     36. A(C   5,C   8,H  13)          109.4584         0.322726   
     37. A(N  11,C   8,H  12)          113.1826         0.327877   
     38. A(C   5,C   8,H  12)          109.3150         0.320879   
     39. A(C   5,C   8,N  11)          110.9524         0.369864   
     40. A(H  14,N  11,H  15)          107.6454         0.301931   
     41. A(C   8,N  11,H  15)          109.9267         0.337215   
     42. A(C   8,N  11,H  14)          109.9684         0.337210   
     43. D(H   6,C   1,C   0,H   4)   -176.1593         0.011572   
     44. D(C   5,C   1,C   0,H   3)     67.1367         0.011572   
     45. D(H   7,C   1,C   0,H   3)   -172.2045         0.011572   
     46. D(H   6,C   1,C   0,H   2)     64.1251         0.011572   
     47. D(C   5,C   1,C   0,H   4)    -53.8367         0.011572   
     48. D(H   6,C   1,C   0,H   3)    -55.1859         0.011572   
     49. D(H   7,C   1,C   0,H   4)     66.8221         0.011572   
     50. D(C   5,C   1,C   0,H   2)   -173.5523         0.011572   
     51. D(H   7,C   1,C   0,H   2)    -52.8936         0.011572   
     52. D(H   9,C   5,C   1,H   6)    -62.3396         0.011137   
     53. D(C   8,C   5,C   1,H   7)    175.5003         0.011137   
     54. D(C   8,C   5,C   1,H   6)     58.9376         0.011137   
     55. D(C   8,C   5,C   1,C   0)    -63.4650         0.011137   
     56. D(H   9,C   5,C   1,H   7)     54.2231         0.011137   
     57. D(H  10,C   5,C   1,H   7)    -63.0175         0.011137   
     58. D(H  10,C   5,C   1,H   6)   -179.5803         0.011137   
     59. D(H  10,C   5,C   1,C   0)     58.0171         0.011137   
     60. D(H   9,C   5,C   1,C   0)    175.2578         0.011137   
     61. D(H  13,C   8,C   5,H   9)    -24.6160         0.010857   
     62. D(H  13,C   8,C   5,C   1)   -145.4056         0.010857   
     63. D(H  12,C   8,C   5,H  10)   -150.6618         0.010857   
     64. D(H  12,C   8,C   5,H   9)     92.6720         0.010857   
     65. D(H  12,C   8,C   5,C   1)    -28.1176         0.010857   
     66. D(N  11,C   8,C   5,H  10)    -25.1491         0.010857   
     67. D(N  11,C   8,C   5,H   9)   -141.8154         0.010857   
     68. D(H  13,C   8,C   5,H  10)     92.0503         0.010857   
     69. D(N  11,C   8,C   5,C   1)     97.3950         0.010857   
     70. D(H  15,N  11,C   8,C   5)   -179.7653         0.016192   
     71. D(H  14,N  11,C   8,H  13)    179.5607         0.016192   
     72. D(H  14,N  11,C   8,H  12)     61.8961         0.016192   
     73. D(H  14,N  11,C   8,C   5)    -61.4207         0.016192   
     74. D(H  15,N  11,C   8,H  13)     61.2161         0.016192   
     75. D(H  15,N  11,C   8,H  12)    -56.4485         0.016192   
    -----------------------------------------------------------------

Number of atoms                         .... 16
Number of degrees of freedom            .... 75

         *************************************************************
         *                GEOMETRY OPTIMIZATION CYCLE   1            *
         *************************************************************
---------------------------------
CARTESIAN COORDINATES (ANGSTROEM)
---------------------------------
  C     -1.656551    0.755150   -0.512834
  C     -1.363725   -0.532142    0.249702
  H     -2.698126    0.776921   -0.826554
  H     -1.039902    0.829815   -1.405695
  H     -1.470274    1.621996    0.117600
  C      0.035507   -0.584712    0.866601
  H     -1.491109   -1.385509   -0.421458
  H     -2.093916   -0.637053    1.055593
  C      1.179282   -0.558994   -0.154958
  H      0.109349   -1.500972    1.454985
  H      0.172951    0.258505    1.545088
  N      1.708730    0.790566   -0.311021
  H      0.830913   -1.001636   -1.104372
  H      2.006521   -1.176564    0.208338
  H      0.983128    1.409525   -0.654635
  H      2.460119    0.790372   -0.991497

----------------------------
CARTESIAN COORDINATES (A.U.)
----------------------------
  NO LB      ZA    FRAG     MASS         X           Y           Z
   0 C     6.0000    0    12.011   -3.130428    1.427026   -0.969116
   1 C     6.0000    0    12.011   -2.577066   -1.005603    0.471869
   2 H     1.0000    0     1.008   -5.098719    1.468168   -1.561961
   3 H     1.0000    0     1.008   -1.965131    1.568123   -2.656378
   4 H     1.0000    0     1.008   -2.778416    3.065127    0.222232
   5 C     6.0000    0    12.011    0.067099   -1.104945    1.637638
   6 H     1.0000    0     1.008   -2.817787   -2.618232   -0.796441
   7 H     1.0000    0     1.008   -3.956928   -1.203856    1.994782
   8 C     6.0000    0    12.011    2.228520   -1.056345   -0.292829
   9 H     1.0000    0     1.008    0.206640   -2.836425    2.749523
  10 H     1.0000    0     1.008    0.326830    0.488504    2.919793
  11 N     7.0000    0    14.007    3.229032    1.493953   -0.587744
  12 H     1.0000    0     1.008    1.570198   -1.892819   -2.086960
  13 H     1.0000    0     1.008    3.791775   -2.223383    0.393702
  14 H     1.0000    0     1.008    1.857842    2.663616   -1.237080
  15 H     1.0000    0     1.008    4.648951    1.493586   -1.873658

--------------------------------
INTERNAL COORDINATES (ANGSTROEM)
--------------------------------
 C      0   0   0     0.000000000000     0.00000000     0.00000000
 C      1   0   0     1.524574645154     0.00000000     0.00000000
 H      1   2   0     1.088013159636   110.18100065     0.00000000
 H      1   2   3     1.087672099165   111.07863741   240.68907409
 H      1   2   3     1.087919011302   110.49075853   119.71565324
 C      2   1   3     1.530090662611   113.97317454   186.44767516
 H      2   1   3     1.093123046469   109.25005681    64.12505638
 H      2   1   3     1.092541114503   108.76248780   307.10643173
 C      6   2   1     1.533774558501   114.38329368   296.53498245
 H      6   2   1     1.091412366450   107.94291015   175.25779240
 H      6   2   1     1.090986133370   109.83968868    58.01713067
 N      9   6   2     1.458074865702   110.95239659    97.39504415
 H      9   6   2     1.103937949795   109.31497771   331.88242691
 H      9   6   2     1.094395347942   109.45838629   214.59444856
 H     12   9   6     1.013745315535   109.96838349   298.57927416
 H     12   9   6     1.013722300324   109.92667080   180.23467169

---------------------------
INTERNAL COORDINATES (A.U.)
---------------------------
 C      0   0   0     0.000000000000     0.00000000     0.00000000
 C      1   0   0     2.881028550061     0.00000000     0.00000000
 H      1   2   0     2.056046901814   110.18100065     0.00000000
 H      1   2   3     2.055402390930   111.07863741   240.68907409
 H      1   2   3     2.055868987247   110.49075853   119.71565324
 C      2   1   3     2.891452312405   113.97317454   186.44767516
 H      2   1   3     2.065703188504   109.25005681    64.12505638
 H      2   1   3     2.064603496460   108.76248780   307.10643173
 C      6   2   1     2.898413866742   114.38329368   296.53498245
 H      6   2   1     2.062470471765   107.94291015   175.25779240
 H      6   2   1     2.061665007975   109.83968868    58.01713067
 N      9   6   2     2.755362178930   110.95239659    97.39504415
 H      9   6   2     2.086140393955   109.31497771   331.88242691
 H      9   6   2     2.068107489847   109.45838629   214.59444856
 H     12   9   6     1.915701015907   109.96838349   298.57927416
 H     12   9   6     1.915657523462   109.92667080   180.23467169

---------------------
BASIS SET INFORMATION
---------------------
There are 3 groups of distinct atoms

 Group   1 Type C   : 7s4p1d contracted to 3s2p1d pattern {511/31/1}
 Group   2 Type H   : 4s1p contracted to 2s1p pattern {31/1}
 Group   3 Type N   : 7s4p1d contracted to 3s2p1d pattern {511/31/1}

Atom   0C    basis set group =>   1
Atom   1C    basis set group =>   1
Atom   2H    basis set group =>   2
Atom   3H    basis set group =>   2
Atom   4H    basis set group =>   2
Atom   5C    basis set group =>   1
Atom   6H    basis set group =>   2
Atom   7H    basis set group =>   2
Atom   8C    basis set group =>   1
Atom   9H    basis set group =>   2
Atom  10H    basis set group =>   2
Atom  11N    basis set group =>   3
Atom  12H    basis set group =>   2
Atom  13H    basis set group =>   2
Atom  14H    basis set group =>   2
Atom  15H    basis set group =>   2
---------------------------------
AUXILIARY/J BASIS SET INFORMATION
---------------------------------
There are 3 groups of distinct atoms

 Group   1 Type C   : 12s5p4d2f1g contracted to 6s4p3d1f1g pattern {711111/2111/211/2/1}
 Group   2 Type H   : 5s2p1d contracted to 3s1p1d pattern {311/2/1}
 Group   3 Type N   : 12s5p4d2f1g contracted to 6s4p3d1f1g pattern {711111/2111/211/2/1}

Atom   0C    basis set group =>   1
Atom   1C    basis set group =>   1
Atom   2H    basis set group =>   2
Atom   3H    basis set group =>   2
Atom   4H    basis set group =>   2
Atom   5C    basis set group =>   1
Atom   6H    basis set group =>   2
Atom   7H    basis set group =>   2
Atom   8C    basis set group =>   1
Atom   9H    basis set group =>   2
Atom  10H    basis set group =>   2
Atom  11N    basis set group =>   3
Atom  12H    basis set group =>   2
Atom  13H    basis set group =>   2
Atom  14H    basis set group =>   2
Atom  15H    basis set group =>   2


           ************************************************************
           *        Program running with 4 parallel MPI-processes     *
           *              working on a common directory               *
           ************************************************************
------------------------------------------------------------------------------
                           ORCA GTO INTEGRAL CALCULATION
                           -- RI-GTO INTEGRALS CHOSEN --
------------------------------------------------------------------------------
------------------------------------------------------------------------------
                   ___                                                        
                  /   \      - P O W E R E D   B Y -                         
                 /     \                                                     
                 |  |  |   _    _      __       _____    __    __             
                 |  |  |  | |  | |    /  \     |  _  \  |  |  /  |          
                  \  \/   | |  | |   /    \    | | | |  |  | /  /          
                 / \  \   | |__| |  /  /\  \   | |_| |  |  |/  /          
                |  |  |   |  __  | /  /__\  \  |    /   |      \           
                |  |  |   | |  | | |   __   |  |    \   |  |\   \          
                \     /   | |  | | |  |  |  |  | |\  \  |  | \   \       
                 \___/    |_|  |_| |__|  |__|  |_| \__\ |__|  \__/        
                                                                              
                      - O R C A' S   B I G   F R I E N D -                    
                                      &                                       
                       - I N T E G R A L  F E E D E R -                       
                                                                              
 v1 FN, 2020, v2 2021                                                         
------------------------------------------------------------------------------


Reading SHARK input file butylamine_deprot_aq_17.SHARKINP.tmp ... ok
----------------------
SHARK INTEGRAL PACKAGE
----------------------

Number of atoms                             ...     16
Number of basis functions                   ...    125
Number of shells                            ...     63
Maximum angular momentum                    ...      2
Integral batch strategy                     ... SHARK/LIBINT Hybrid
RI-J (if used) integral strategy            ... SPLIT-RIJ (Revised 2003 algorithm where possible)
Printlevel                                  ...      1
Contraction scheme used                     ... SEGMENTED contraction
Coulomb Range Separation                    ... NOT USED
Exchange Range Separation                   ... Long Range
   Mu parameter                             ...  0.300000
   Scaling (regular/separated)              ...  0.157706  0.842294
Finite Nucleus Model                        ... NOT USED
Auxiliary Coulomb fitting basis             ... AVAILABLE
   # of basis functions in Aux-J            ...    366
   # of shells in Aux-J                     ...    130
   Maximum angular momentum in Aux-J        ...      4
Auxiliary J/K fitting basis                 ... NOT available
Auxiliary Correlation fitting basis         ... NOT available
Auxiliary 'external' fitting basis          ... NOT available
Integral threshold                          ...     2.500000e-11
Primitive cut-off                           ...     2.500000e-12
Primitive pair pre-selection threshold      ...     2.500000e-12

Calculating pre-screening integrals         ... done (  0.0 sec) Dimension = 63
Organizing shell pair data                  ... done (  0.0 sec)
Shell pair information
Total number of shell pairs                 ...      2016
Shell pairs after pre-screening             ...      1992
Total number of primitive shell pairs       ...      6768
Primitive shell pairs kept                  ...      5327
          la=0 lb=0:    694 shell pairs
          la=1 lb=0:    767 shell pairs
          la=1 lb=1:    228 shell pairs
          la=2 lb=0:    183 shell pairs
          la=2 lb=1:    105 shell pairs
          la=2 lb=2:     15 shell pairs

Calculating one electron integrals          ... done (  0.0 sec)
Calculating RI/J V-Matrix + Cholesky decomp.... done (  0.0 sec)
Calculating Nuclear repulsion               ... done (  0.0 sec) ENN=    192.591212394030 Eh

SHARK setup successfully completed in   0.2 seconds

Maximum memory used throughout the entire GTOINT-calculation: 10.7 MB


           ************************************************************
           *        Program running with 4 parallel MPI-processes     *
           *              working on a common directory               *
           ************************************************************
-------------------------------------------------------------------------------
                                 ORCA SCF
-------------------------------------------------------------------------------

------------
SCF SETTINGS
------------
Hamiltonian:
 Density Functional     Method          .... DFT(GTOs)
 Exchange Functional    Exchange        .... WB97X
 Correlation Functional Correlation     .... WB97X
 Gradients option       PostSCFGGA      .... off
 Hybrid DFT is turned on
   Fraction HF Exchange ScalHFX         ....  0.157706
   Scaling of DF-GGA-X  ScalDFX         ....  0.000000
   Scaling of DF-GGA-C  ScalDFC         ....  1.000000
   Scaling of DF-LDA-C  ScalLDAC        ....  1.000000
   Perturbative correction              ....  0.000000
   Density functional embedding theory  .... OFF
 Long-range corrected/Screened/Range-Separated Hybrid DFT is turned on
   Amount of maximum screened exact exchange              ....  0.842294
   Range separation parameter mu (erf(mu*r12)/r12)        ....  0.300000
 RI-approximation to the Coulomb term is turned on
   Number of AuxJ basis functions       .... 366
   RIJ-COSX (HFX calculated with COS-X)).... on


General Settings:
 Integral files         IntName         .... butylamine_deprot_aq_17
 Hartree-Fock type      HFTyp           .... RHF
 Total Charge           Charge          ....    0
 Multiplicity           Mult            ....    1
 Number of Electrons    NEL             ....   42
 Basis Dimension        Dim             ....  125
 Nuclear Repulsion      ENuc            ....    192.5912123940 Eh

Convergence Acceleration:
 DIIS                   CNVDIIS         .... on
   Start iteration      DIISMaxIt       ....     0
   Startup error        DIISStart       ....  0.200000
   # of expansion vecs  DIISMaxEq       ....     5
   Bias factor          DIISBfac        ....   1.050
   Max. coefficient     DIISMaxC        ....  10.000
 Trust-Rad. Augm. Hess. CNVTRAH         .... auto
   Auto Start mean grad. ratio tolernc. ....  1.125000
   Auto Start start iteration           ....    20
   Auto Start num. interpolation iter.  ....    10
   Max. Number of Micro iterations      ....    16
   Max. Number of Macro iterations      .... Maxiter - #DIIS iter
   Number of Davidson start vectors     ....     2
   Converg. threshold I  (grad. norm)   ....   1.000e-05
   Converg. threshold II (energy diff.) ....   1.000e-08
   Grad. Scal. Fac. for Micro threshold ....   0.100
   Minimum threshold for Micro iter.    ....   0.010
   NR start threshold (gradient norm)   ....   0.001
   Initial trust radius                 ....   0.400
   Minimum AH scaling param. (alpha)    ....   1.000
   Maximum AH scaling param. (alpha)    .... 1000.000
   Orbital update algorithm             .... Taylor
   White noise on init. David. guess    .... on
   Maximum white noise                  ....   0.010
   Quad. conv. algorithm                .... NR
 SOSCF                  CNVSOSCF        .... on
   Start iteration      SOSCFMaxIt      ....   150
   Startup grad/error   SOSCFStart      ....  0.001000
 Level Shifting         CNVShift        .... on
   Level shift para.    LevelShift      ....    0.2500
   Turn off err/grad.   ShiftErr        ....    0.0000
 Zerner damping         CNVZerner       .... off
 Static damping         CNVDamp         .... on
   Fraction old density DampFac         ....    0.8500
   Max. Damping (<1)    DampMax         ....    0.9800
   Min. Damping (>=0)   DampMin         ....    0.0000
   Turn off err/grad.   DampErr         ....    0.0300
 Fernandez-Rico         CNVRico         .... off

SCF Procedure:
 Maximum # iterations   MaxIter         ....   125
 SCF integral mode      SCFMode         .... Direct
   Integral package                     .... SHARK and LIBINT hybrid scheme
 Reset frequency        DirectResetFreq ....    20
 Integral Threshold     Thresh          ....  2.500e-11 Eh
 Primitive CutOff       TCut            ....  2.500e-12 Eh

Convergence Tolerance:
 Convergence Check Mode ConvCheckMode   .... Total+1el-Energy
 Convergence forced     ConvForced      .... 0
 Energy Change          TolE            ....  1.000e-08 Eh
 1-El. energy change                    ....  1.000e-05 Eh
 Orbital Gradient       TolG            ....  1.000e-05
 Orbital Rotation angle TolX            ....  1.000e-05
 DIIS Error             TolErr          ....  5.000e-07


Diagonalization of the overlap matrix:
Smallest eigenvalue                        ... 2.214e-03
Time for diagonalization                   ...    0.008 sec
Threshold for overlap eigenvalues          ... 1.000e-08
Number of eigenvalues below threshold      ... 0
Time for construction of square roots      ...    0.009 sec
Total time needed                          ...    0.017 sec

Time for model grid setup =    0.334 sec

------------------------------
INITIAL GUESS: MODEL POTENTIAL
------------------------------
Loading Hartree-Fock densities                     ... done
Calculating cut-offs                               ... done
Initializing the effective Hamiltonian             ... done
Setting up the integral package (SHARK)            ... done
Starting the Coulomb interaction                   ... done (   0.0 sec)
Reading the grid                                   ... done
Mapping shells                                     ... done
Starting the XC term evaluation                    ... done (   0.0 sec)
  promolecular density results
     # of electrons  =     41.993071508
     EX              =    -30.244188253
     EC              =     -1.357830555
     EX+EC           =    -31.602018809
Transforming the Hamiltonian                       ... done (   0.0 sec)
Diagonalizing the Hamiltonian                      ... done (   0.0 sec)
Back transforming the eigenvectors                 ... done (   0.0 sec)
Now organizing SCF variables                       ... done
                      ------------------
                      INITIAL GUESS DONE (   0.4 sec)
                      ------------------
-------------------
DFT GRID GENERATION
-------------------

General Integration Accuracy     IntAcc      ... 4.388
Radial Grid Type                 RadialGrid  ... OptM3 with GC (2021)
Angular Grid (max. ang.)         AngularGrid ... 4 (Lebedev-302)
Angular grid pruning method      GridPruning ... 4 (adaptive)
Weight generation scheme         WeightScheme... Becke
Basis function cutoff            BFCut       ... 1.0000e-11
Integration weight cutoff        WCut        ... 1.0000e-14
Angular grids for H and He will be reduced by one unit
Partially contracted basis set               ... off
Rotationally invariant grid construction     ... off

Total number of grid points                  ...    65434
Total number of batches                      ...     1030
Average number of points per batch           ...       63
Average number of grid points per atom       ...     4090
Time for grid setup =    0.277 sec

--------------------
COSX GRID GENERATION
--------------------

GRIDX 1
-------
General Integration Accuracy     IntAcc      ... 3.816
Radial Grid Type                 RadialGrid  ... OptM3 with GC (2021)
Angular Grid (max. ang.)         AngularGrid ... 1 (Lebedev-50)
Angular grid pruning method      GridPruning ... 4 (adaptive)
Weight generation scheme         WeightScheme... Becke
Basis function cutoff            BFCut       ... 1.0000e-11
Integration weight cutoff        WCut        ... 1.0000e-14
Angular grids for H and He will be reduced by one unit
Partially contracted basis set               ... on
Rotationally invariant grid construction     ... off

Total number of grid points                  ...     8417
Total number of batches                      ...      144
Average number of points per batch           ...       58
Average number of grid points per atom       ...      526
UseSFitting                                  ... on

GRIDX 2
-------
General Integration Accuracy     IntAcc      ... 4.020
Radial Grid Type                 RadialGrid  ... OptM3 with GC (2021)
Angular Grid (max. ang.)         AngularGrid ... 2 (Lebedev-110)
Angular grid pruning method      GridPruning ... 4 (adaptive)
Weight generation scheme         WeightScheme... Becke
Basis function cutoff            BFCut       ... 1.0000e-11
Integration weight cutoff        WCut        ... 1.0000e-14
Angular grids for H and He will be reduced by one unit
Partially contracted basis set               ... on
Rotationally invariant grid construction     ... off

Total number of grid points                  ...    17362
Total number of batches                      ...      280
Average number of points per batch           ...       62
Average number of grid points per atom       ...     1085
UseSFitting                                  ... on

GRIDX 3
-------
General Integration Accuracy     IntAcc      ... 4.338
Radial Grid Type                 RadialGrid  ... OptM3 with GC (2021)
Angular Grid (max. ang.)         AngularGrid ... 3 (Lebedev-194)
Angular grid pruning method      GridPruning ... 4 (adaptive)
Weight generation scheme         WeightScheme... Becke
Basis function cutoff            BFCut       ... 1.0000e-11
Integration weight cutoff        WCut        ... 1.0000e-14
Angular grids for H and He will be reduced by one unit
Partially contracted basis set               ... on
Rotationally invariant grid construction     ... off

Total number of grid points                  ...    37870
Total number of batches                      ...      601
Average number of points per batch           ...       63
Average number of grid points per atom       ...     2367
UseSFitting                                  ... on

Time for X-Grid setup             =    0.242 sec

--------------
SCF ITERATIONS
--------------
ITER       Energy         Delta-E        Max-DP      RMS-DP      [F,P]     Damp
               ***  Starting incremental Fock matrix formation  ***
  0   -213.3777553593   0.000000000000 0.03920649  0.00115628  0.2391177 0.8500
  1   -213.4233709774  -0.045615618110 0.03361328  0.00109716  0.1846035 0.8500
                               ***Turning on DIIS***
  2   -213.4567622637  -0.033391286280 0.02495472  0.00087733  0.1343728 0.8500
  3   -213.4807508229  -0.023988559288 0.01428389  0.00056801  0.0961338 0.8500
  4   -213.4988916498  -0.018140826810 0.00953004  0.00040467  0.0750059 0.8500
  5   -213.5129996330  -0.014107983255 0.00712167  0.00031923  0.0618753 0.8500
  6   -213.5244087244  -0.011409091440 0.00567474  0.00026466  0.0521014 0.8500
  7   -213.5338289158  -0.009420191337 0.00475619  0.00022782  0.0441555 0.8500
  8   -213.5417028502  -0.007873934425 0.00404356  0.00019630  0.0371824 0.8500
  9   -213.5482967900  -0.006593939745 0.00342573  0.00016784  0.0312118 0.8500
 10   -213.5538245363  -0.005527746353 0.01922633  0.00095215  0.0262183 0.0000
 11   -213.5838835439  -0.030059007601 0.00109851  0.00003852  0.0015923 0.0000
                      *** Initiating the SOSCF procedure ***
                           *** Shutting down DIIS ***
                      *** Re-Reading the Fockian *** 
                      *** Removing any level shift *** 
ITER      Energy       Delta-E        Grad      Rot      Max-DP    RMS-DP
 12   -213.58389293  -0.0000093861  0.000060  0.000060  0.000258  0.000013
               *** Restarting incremental Fock matrix formation ***
 13   -213.58394339  -0.0000504575  0.000046  0.000080  0.000250  0.000010
 14   -213.58394351  -0.0000001233  0.000015  0.000041  0.000096  0.000004
 15   -213.58394352  -0.0000000124  0.000012  0.000006  0.000029  0.000001
 16   -213.58394353  -0.0000000020  0.000003  0.000002  0.000008  0.000000
                  ***Gradient check signals convergence***
              ***Rediagonalizing the Fockian in SOSCF/NRSCF***

               *****************************************************
               *                     SUCCESS                       *
               *           SCF CONVERGED AFTER  17 CYCLES          *
               *****************************************************

Old exchange energy                            =    -10.443389942 Eh
New exchange energy                            =    -10.443406635 Eh
Exchange energy change after final integration =     -0.000016694 Eh
Total energy after final integration           =   -213.583960219 Eh
Final COS-X integration done in                =     3.152 sec

----------------
TOTAL SCF ENERGY
----------------

Total Energy       :         -213.58396022 Eh           -5811.91503 eV

Components:
Nuclear Repulsion  :          192.59121239 Eh            5240.67332 eV
Electronic Energy  :         -406.17517261 Eh          -11052.58835 eV
One Electron Energy:         -667.89035727 Eh          -18174.22058 eV
Two Electron Energy:          261.71518466 Eh            7121.63223 eV
Max COSX asymmetry :            0.00000219 Eh               0.00006 eV

Virial components:
Potential Energy   :         -424.61288839 Eh          -11554.30410 eV
Kinetic Energy     :          211.02892817 Eh            5742.38907 eV
Virial Ratio       :            2.01210750


DFT components:
N(Alpha)           :       21.000005685322 electrons
N(Beta)            :       21.000005685322 electrons
N(Total)           :       42.000011370644 electrons
E(XC)              :      -22.250512518537 Eh       
DFET-embed. en.    :        0.000000000000 Eh       

---------------
SCF CONVERGENCE
---------------

  Last Energy change         ...   -2.7671e-10  Tolerance :   1.0000e-08
  Last MAX-Density change    ...    1.7764e-15  Tolerance :   1.0000e-07
  Last RMS-Density change    ...    3.5754e-17  Tolerance :   5.0000e-09
  Last Orbital Gradient      ...    5.5413e-07  Tolerance :   1.0000e-05
  Last Orbital Rotation      ...    1.2583e-06  Tolerance :   1.0000e-05

             **** THE GBW FILE WAS UPDATED (butylamine_deprot_aq_17.gbw) ****
             **** DENSITY butylamine_deprot_aq_17.scfp WAS UPDATED ****
             **** ENERGY FILE WAS UPDATED (butylamine_deprot_aq_17.en.tmp) ****
             **** THE GBW FILE WAS UPDATED (butylamine_deprot_aq_17.gbw) ****
             **** DENSITY butylamine_deprot_aq_17.scfp WAS UPDATED ****
----------------
ORBITAL ENERGIES
----------------

  NO   OCC          E(Eh)            E(eV) 
   0   2.0000     -14.373039      -391.1103 
   1   2.0000     -10.282194      -279.7927 
   2   2.0000     -10.261476      -279.2290 
   3   2.0000     -10.259291      -279.1695 
   4   2.0000     -10.254600      -279.0418 
   5   2.0000      -0.996310       -27.1110 
   6   2.0000      -0.908515       -24.7220 
   7   2.0000      -0.826474       -22.4895 
   8   2.0000      -0.742167       -20.1954 
   9   2.0000      -0.681946       -18.5567 
  10   2.0000      -0.603201       -16.4139 
  11   2.0000      -0.580042       -15.7837 
  12   2.0000      -0.549114       -14.9422 
  13   2.0000      -0.536864       -14.6088 
  14   2.0000      -0.494694       -13.4613 
  15   2.0000      -0.492679       -13.4065 
  16   2.0000      -0.474557       -12.9134 
  17   2.0000      -0.430898       -11.7253 
  18   2.0000      -0.426480       -11.6051 
  19   2.0000      -0.415775       -11.3138 
  20   2.0000      -0.330759        -9.0004 
  21   0.0000       0.140344         3.8190 
  22   0.0000       0.170822         4.6483 
  23   0.0000       0.179441         4.8828 
  24   0.0000       0.185651         5.0518 
  25   0.0000       0.213789         5.8175 
  26   0.0000       0.226002         6.1498 
  27   0.0000       0.237350         6.4586 
  28   0.0000       0.244207         6.6452 
  29   0.0000       0.255647         6.9565 
  30   0.0000       0.265901         7.2355 
  31   0.0000       0.275973         7.5096 
  32   0.0000       0.311664         8.4808 
  33   0.0000       0.326574         8.8865 
  34   0.0000       0.351219         9.5572 
  35   0.0000       0.389607        10.6018 
  36   0.0000       0.511776        13.9261 
  37   0.0000       0.527794        14.3620 
  38   0.0000       0.547201        14.8901 
  39   0.0000       0.568086        15.4584 
  40   0.0000       0.573138        15.5959 
  41   0.0000       0.602592        16.3974 
  42   0.0000       0.682381        18.5685 
  43   0.0000       0.712724        19.3942 
  44   0.0000       0.719625        19.5820 
  45   0.0000       0.739278        20.1168 
  46   0.0000       0.746854        20.3229 
  47   0.0000       0.766802        20.8657 
  48   0.0000       0.770112        20.9558 
  49   0.0000       0.784452        21.3460 
  50   0.0000       0.787830        21.4379 
  51   0.0000       0.800224        21.7752 
  52   0.0000       0.805765        21.9260 
  53   0.0000       0.815177        22.1821 
  54   0.0000       0.820843        22.3363 
  55   0.0000       0.822281        22.3754 
  56   0.0000       0.833306        22.6754 
  57   0.0000       0.855028        23.2665 
  58   0.0000       0.868176        23.6243 
  59   0.0000       0.881538        23.9879 
  60   0.0000       0.958718        26.0881 
  61   0.0000       1.009556        27.4714 
  62   0.0000       1.032491        28.0955 
  63   0.0000       1.084496        29.5106 
  64   0.0000       1.118291        30.4303 
  65   0.0000       1.192510        32.4498 
  66   0.0000       1.257719        34.2243 
  67   0.0000       1.319530        35.9062 
  68   0.0000       1.349604        36.7246 
  69   0.0000       1.393837        37.9282 
  70   0.0000       1.420625        38.6572 
  71   0.0000       1.462853        39.8063 
  72   0.0000       1.503685        40.9173 
  73   0.0000       1.629830        44.3499 
  74   0.0000       1.660337        45.1801 
  75   0.0000       1.665304        45.3152 
  76   0.0000       1.726404        46.9779 
  77   0.0000       1.767035        48.0835 
  78   0.0000       1.826393        49.6987 
  79   0.0000       1.837841        50.0102 
  80   0.0000       1.876910        51.0733 
  81   0.0000       1.886485        51.3339 
  82   0.0000       1.897921        51.6451 
  83   0.0000       1.911743        52.0212 
  84   0.0000       1.920712        52.2652 
  85   0.0000       1.933983        52.6263 
  86   0.0000       1.950186        53.0673 
  87   0.0000       1.977475        53.8098 
  88   0.0000       1.984207        53.9930 
  89   0.0000       2.006870        54.6097 
  90   0.0000       2.019422        54.9513 
  91   0.0000       2.028045        55.1859 
  92   0.0000       2.054185        55.8972 
  93   0.0000       2.064845        56.1873 
  94   0.0000       2.124090        57.7994 
  95   0.0000       2.142072        58.2887 
  96   0.0000       2.192825        59.6698 
  97   0.0000       2.247531        61.1584 
  98   0.0000       2.273481        61.8646 
  99   0.0000       2.304673        62.7133 
 100   0.0000       2.356314        64.1186 
 101   0.0000       2.401337        65.3437 
 102   0.0000       2.436383        66.2974 
 103   0.0000       2.485001        67.6203 
 104   0.0000       2.535643        68.9984 
 105   0.0000       2.569986        69.9329 
 106   0.0000       2.591146        70.5087 
 107   0.0000       2.643127        71.9231 
 108   0.0000       2.710197        73.7482 
 109   0.0000       2.739142        74.5358 
 110   0.0000       2.754441        74.9522 
 111   0.0000       2.813488        76.5589 
 112   0.0000       2.885424        78.5164 
 113   0.0000       2.913270        79.2741 
 114   0.0000       2.961552        80.5879 
 115   0.0000       3.007257        81.8316 
 116   0.0000       3.039796        82.7171 
 117   0.0000       3.080289        83.8189 
 118   0.0000       3.105914        84.5162 
 119   0.0000       3.133917        85.2782 
 120   0.0000       3.162831        86.0650 
 121   0.0000       3.172866        86.3381 
 122   0.0000       3.227939        87.8367 
 123   0.0000       3.349263        91.1381 
 124   0.0000       3.532884        96.1347 

                    ********************************
                    * MULLIKEN POPULATION ANALYSIS *
                    ********************************

-----------------------
MULLIKEN ATOMIC CHARGES
-----------------------
   0 C :   -0.046491
   1 C :   -0.054138
   2 H :    0.028833
   3 H :    0.019824
   4 H :    0.025992
   5 C :   -0.047519
   6 H :    0.014880
   7 H :    0.019131
   8 C :    0.071325
   9 H :    0.016728
  10 H :    0.020193
  11 N :   -0.249898
  12 H :   -0.007119
  13 H :    0.011808
  14 H :    0.081142
  15 H :    0.095308
Sum of atomic charges:   -0.0000000

--------------------------------
MULLIKEN REDUCED ORBITAL CHARGES
--------------------------------
  0 C s       :     3.005078  s :     3.005078
      pz      :     1.001024  p :     3.012913
      px      :     1.019807
      py      :     0.992082
      dz2     :     0.003890  d :     0.028500
      dxz     :     0.006272
      dyz     :     0.007467
      dx2y2   :     0.008505
      dxy     :     0.002365
  1 C s       :     3.031985  s :     3.031985
      pz      :     0.997064  p :     2.985142
      px      :     0.990699
      py      :     0.997379
      dz2     :     0.003562  d :     0.037011
      dxz     :     0.009670
      dyz     :     0.009508
      dx2y2   :     0.009428
      dxy     :     0.004843
  2 H s       :     0.947202  s :     0.947202
      pz      :     0.005559  p :     0.023965
      px      :     0.014120
      py      :     0.004286
  3 H s       :     0.955889  s :     0.955889
      pz      :     0.011630  p :     0.024287
      px      :     0.008256
      py      :     0.004401
  4 H s       :     0.950011  s :     0.950011
      pz      :     0.008122  p :     0.023997
      px      :     0.005129
      py      :     0.010746
  5 C s       :     3.035214  s :     3.035214
      pz      :     1.001239  p :     2.977746
      px      :     0.963852
      py      :     1.012655
      dz2     :     0.003644  d :     0.034559
      dxz     :     0.008977
      dyz     :     0.008679
      dx2y2   :     0.009750
      dxy     :     0.003509
  6 H s       :     0.962491  s :     0.962491
      pz      :     0.008270  p :     0.022629
      px      :     0.004080
      py      :     0.010279
  7 H s       :     0.958218  s :     0.958218
      pz      :     0.009911  p :     0.022651
      px      :     0.008507
      py      :     0.004232
  8 C s       :     2.996015  s :     2.996015
      pz      :     0.994801  p :     2.881123
      px      :     1.000627
      py      :     0.885695
      dz2     :     0.007931  d :     0.051537
      dxz     :     0.008761
      dyz     :     0.012553
      dx2y2   :     0.009420
      dxy     :     0.012872
  9 H s       :     0.960254  s :     0.960254
      pz      :     0.007286  p :     0.023018
      px      :     0.003925
      py      :     0.011807
 10 H s       :     0.956883  s :     0.956883
      pz      :     0.007880  p :     0.022924
      px      :     0.003881
      py      :     0.011163
 11 N s       :     3.408025  s :     3.408025
      pz      :     1.560073  p :     3.822075
      px      :     1.133262
      py      :     1.128740
      dz2     :     0.002730  d :     0.019798
      dxz     :     0.006201
      dyz     :     0.002637
      dx2y2   :     0.003232
      dxy     :     0.004998
 12 H s       :     0.985896  s :     0.985896
      pz      :     0.011718  p :     0.021223
      px      :     0.004979
      py      :     0.004526
 13 H s       :     0.966625  s :     0.966625
      pz      :     0.005602  p :     0.021568
      px      :     0.009802
      py      :     0.006164
 14 H s       :     0.872411  s :     0.872411
      pz      :     0.014162  p :     0.046448
      px      :     0.017110
      py      :     0.015176
 15 H s       :     0.859331  s :     0.859331
      pz      :     0.017265  p :     0.045361
      px      :     0.019639
      py      :     0.008457


                     *******************************
                     * LOEWDIN POPULATION ANALYSIS *
                     *******************************

----------------------
LOEWDIN ATOMIC CHARGES
----------------------
   0 C :   -0.064131
   1 C :   -0.041520
   2 H :    0.026212
   3 H :    0.016163
   4 H :    0.022344
   5 C :   -0.046745
   6 H :    0.017884
   7 H :    0.021695
   8 C :    0.015775
   9 H :    0.023905
  10 H :    0.022186
  11 N :   -0.124390
  12 H :   -0.004107
  13 H :    0.018229
  14 H :    0.043892
  15 H :    0.052609

-------------------------------
LOEWDIN REDUCED ORBITAL CHARGES
-------------------------------
  0 C s       :     2.827118  s :     2.827118
      pz      :     1.055297  p :     3.163705
      px      :     1.065213
      py      :     1.043196
      dz2     :     0.009161  d :     0.073308
      dxz     :     0.016339
      dyz     :     0.020066
      dx2y2   :     0.022341
      dxy     :     0.005400
  1 C s       :     2.830180  s :     2.830180
      pz      :     1.048849  p :     3.120586
      px      :     1.034300
      py      :     1.037436
      dz2     :     0.007664  d :     0.090755
      dxz     :     0.024401
      dyz     :     0.024448
      dx2y2   :     0.024775
      dxy     :     0.009467
  2 H s       :     0.907336  s :     0.907336
      pz      :     0.015298  p :     0.066452
      px      :     0.037748
      py      :     0.013406
  3 H s       :     0.916661  s :     0.916661
      pz      :     0.031521  p :     0.067176
      px      :     0.021917
      py      :     0.013737
  4 H s       :     0.910962  s :     0.910962
      pz      :     0.022235  p :     0.066694
      px      :     0.013685
      py      :     0.030774
  5 C s       :     2.836271  s :     2.836271
      pz      :     1.042106  p :     3.123758
      px      :     1.016824
      py      :     1.064827
      dz2     :     0.006934  d :     0.086716
      dxz     :     0.023613
      dyz     :     0.023369
      dx2y2   :     0.025872
      dxy     :     0.006927
  6 H s       :     0.916136  s :     0.916136
      pz      :     0.023221  p :     0.065981
      px      :     0.013493
      py      :     0.029266
  7 H s       :     0.912246  s :     0.912246
      pz      :     0.027418  p :     0.066059
      px      :     0.025432
      py      :     0.013209
  8 C s       :     2.831848  s :     2.831848
      pz      :     1.049947  p :     3.033947
      px      :     1.040267
      py      :     0.943734
      dz2     :     0.018822  d :     0.118430
      dxz     :     0.023016
      dyz     :     0.026896
      dx2y2   :     0.020487
      dxy     :     0.029208
  9 H s       :     0.909326  s :     0.909326
      pz      :     0.021331  p :     0.066768
      px      :     0.013844
      py      :     0.031593
 10 H s       :     0.909781  s :     0.909781
      pz      :     0.024268  p :     0.068033
      px      :     0.013625
      py      :     0.030139
 11 N s       :     3.122388  s :     3.122388
      pz      :     1.566300  p :     3.957857
      px      :     1.202556
      py      :     1.189002
      dz2     :     0.004352  d :     0.044145
      dxz     :     0.013086
      dyz     :     0.004548
      dx2y2   :     0.008846
      dxy     :     0.013314
 12 H s       :     0.939484  s :     0.939484
      pz      :     0.032817  p :     0.064623
      px      :     0.015353
      py      :     0.016454
 13 H s       :     0.917987  s :     0.917987
      pz      :     0.016369  p :     0.063784
      px      :     0.028420
      py      :     0.018995
 14 H s       :     0.832588  s :     0.832588
      pz      :     0.041012  p :     0.123519
      px      :     0.042756
      py      :     0.039752
 15 H s       :     0.825538  s :     0.825538
      pz      :     0.053783  p :     0.121852
      px      :     0.046239
      py      :     0.021831


                      *****************************
                      * MAYER POPULATION ANALYSIS *
                      *****************************

  NA   - Mulliken gross atomic population
  ZA   - Total nuclear charge
  QA   - Mulliken gross atomic charge
  VA   - Mayer's total valence
  BVA  - Mayer's bonded valence
  FA   - Mayer's free valence

  ATOM       NA         ZA         QA         VA         BVA        FA
  0 C      6.0465     6.0000    -0.0465     3.9970     3.9970    -0.0000
  1 C      6.0541     6.0000    -0.0541     4.0987     4.0987     0.0000
  2 H      0.9712     1.0000     0.0288     0.9880     0.9880    -0.0000
  3 H      0.9802     1.0000     0.0198     0.9930     0.9930    -0.0000
  4 H      0.9740     1.0000     0.0260     0.9916     0.9916    -0.0000
  5 C      6.0475     6.0000    -0.0475     4.0385     4.0385     0.0000
  6 H      0.9851     1.0000     0.0149     0.9791     0.9791    -0.0000
  7 H      0.9809     1.0000     0.0191     0.9774     0.9774     0.0000
  8 C      5.9287     6.0000     0.0713     4.0546     4.0546    -0.0000
  9 H      0.9833     1.0000     0.0167     0.9801     0.9801     0.0000
 10 H      0.9798     1.0000     0.0202     1.0066     1.0066    -0.0000
 11 N      7.2499     7.0000    -0.2499     3.0522     3.0522    -0.0000
 12 H      1.0071     1.0000    -0.0071     0.9750     0.9750    -0.0000
 13 H      0.9882     1.0000     0.0118     0.9807     0.9807     0.0000
 14 H      0.9189     1.0000     0.0811     1.0191     1.0191    -0.0000
 15 H      0.9047     1.0000     0.0953     0.9958     0.9958    -0.0000

  Mayer bond orders larger than 0.100000
B(  0-C ,  1-C ) :   1.0785 B(  0-C ,  2-H ) :   0.9715 B(  0-C ,  3-H ) :   0.9695 
B(  0-C ,  4-H ) :   0.9750 B(  1-C ,  5-C ) :   1.0798 B(  1-C ,  6-H ) :   0.9555 
B(  1-C ,  7-H ) :   0.9574 B(  5-C ,  8-C ) :   1.0507 B(  5-C ,  9-H ) :   0.9538 
B(  5-C , 10-H ) :   0.9523 B(  8-C , 11-N ) :   1.0671 B(  8-C , 12-H ) :   0.9540 
B(  8-C , 13-H ) :   0.9559 B( 11-N , 14-H ) :   0.9798 B( 11-N , 15-H ) :   0.9711 


-------
TIMINGS
-------

Total SCF time: 0 days 0 hours 0 min 23 sec 

Total time                  ....      23.564 sec
Sum of individual times     ....      23.245 sec  ( 98.6%)

Fock matrix formation       ....      22.185 sec  ( 94.1%)
  Split-RI-J                ....       1.248 sec  (  5.6% of F)
  Chain of spheres X        ....      16.911 sec  ( 76.2% of F)
  XC integration            ....       3.854 sec  ( 17.4% of F)
    Basis function eval.    ....       1.178 sec  ( 30.6% of XC)
    Density eval.           ....       0.575 sec  ( 14.9% of XC)
    XC-Functional eval.     ....       0.529 sec  ( 13.7% of XC)
    XC-Potential eval.      ....       0.665 sec  ( 17.3% of XC)
Diagonalization             ....       0.044 sec  (  0.2%)
Density matrix formation    ....       0.004 sec  (  0.0%)
Population analysis         ....       0.008 sec  (  0.0%)
Initial guess               ....       0.078 sec  (  0.3%)
Orbital Transformation      ....       0.000 sec  (  0.0%)
Orbital Orthonormalization  ....       0.000 sec  (  0.0%)
DIIS solution               ....       0.054 sec  (  0.2%)
SOSCF solution              ....       0.019 sec  (  0.1%)
Grid generation             ....       0.853 sec  (  3.6%)

Maximum memory used throughout the entire SCF-calculation: 49.8 MB


-------------------------------------------------------------------------------
                          DFT DISPERSION CORRECTION                            
                                                                               
                                 DFTD4 V2.5                                    
-------------------------------------------------------------------------------
The WB97X functional is recognized
Active option DFTDOPT                   ...         5   

Starting D4
-------------------------   ----------------
Dispersion correction           -0.001453595
-------------------------   ----------------


-------------------------   --------------------
FINAL SINGLE POINT ENERGY      -213.585413814435
-------------------------   --------------------



           ************************************************************
           *        Program running with 4 parallel MPI-processes     *
           *              working on a common directory               *
           ************************************************************
------------------------------------------------------------------------------
                         ORCA SCF GRADIENT CALCULATION
------------------------------------------------------------------------------

 ... reading COSX grid (gridx3)
Gradient of the Kohn-Sham DFT energy:
Kohn-Sham wavefunction type      ... RKS
Hartree-Fock exchange scaling    ...    0.158
Number of operators              ...    1
Number of atoms                  ...   16
Basis set dimensions             ...  125
Integral neglect threshold       ... 2.5e-11
Integral primitive cutoff        ... 2.5e-12
SHARK Integral package           ... ON

Nuc. rep. gradient       (SHARK) ... done (  0.0 sec)
HCore & Overlap gradient (SHARK) ... done (  0.0 sec)
RI-J gradient            (SHARK) ... done (  0.5 sec)
COSX-gradient                    ... done (  3.6 sec)
Exchange-correlation gradient    ... done
Dispersion correction            ... Starting D4
Starting D4
Starting D4
Starting D4


------------------- 
Dispersion Gradient 
------------------- 
   1  :   -0.000019767    0.000014706   -0.000009690
   2  :   -0.000017576   -0.000010473    0.000003606
   3  :   -0.000007410    0.000001872   -0.000001127
   4  :   -0.000006291   -0.000000032    0.000002935
   5  :   -0.000006174   -0.000001545   -0.000001622
   6  :    0.000001031   -0.000008260    0.000013777
   7  :   -0.000003430    0.000002541    0.000002660
   8  :   -0.000003466    0.000000329   -0.000000631
   9  :    0.000010350   -0.000016930   -0.000003827
  10  :    0.000000352   -0.000001188    0.000000872
  11  :    0.000001451   -0.000003006   -0.000004507
  12  :    0.000027053    0.000013486    0.000000056
  13  :    0.000004919    0.000003446    0.000004447
  14  :    0.000004718    0.000002916    0.000000220
  15  :    0.000003378    0.000000473   -0.000000827
  16  :    0.000010861    0.000001664   -0.000006341

  |G| =    0.000053154

done

------------------
CARTESIAN GRADIENT
------------------

   1   C   :    0.000101112    0.011335900   -0.005233219
   2   C   :   -0.007623693   -0.009334888   -0.001808245
   3   H   :    0.007853190   -0.002173789    0.003738003
   4   H   :   -0.005473391   -0.002305800    0.008407344
   5   H   :   -0.001197514   -0.008815610   -0.004397359
   6   C   :    0.002395173    0.005455581    0.012981755
   7   H   :    0.002253195    0.006503136    0.003089073
   8   H   :    0.005700810    0.002513394   -0.004131202
   9   C   :    0.000358833   -0.010211591   -0.005795057
  10   H   :   -0.000417809    0.005209069   -0.005521489
  11   H   :   -0.002230626   -0.004861792   -0.006450306
  12   N   :    0.000513495    0.003120335   -0.003056247
  13   H   :    0.001431862    0.004429973    0.003208836
  14   H   :   -0.002935878    0.004839091   -0.000661029
  15   H   :    0.000890335   -0.003342995    0.002776639
  16   H   :   -0.001658721   -0.002276642    0.002813216

Difference to translation invariance:
           :   -0.0000396284    0.0000833734   -0.0000392882

Difference to rotation invariance:
           :   -0.0001390757    0.0006752541    0.0002181154

Norm of the cartesian gradient     ...    0.0359357647
RMS gradient                       ...    0.0051868809
MAX gradient                       ...    0.0129817551

-------
TIMINGS
-------

Total SCF gradient time            ...        5.358 sec

One electron gradient       ....       0.039 sec  (  0.7%)
RI-J Coulomb gradient       ....       0.456 sec  (  8.5%)
COSX gradient               ....       3.554 sec  ( 66.3%)
XC gradient                 ....       1.007 sec  ( 18.8%)

Maximum memory used throughout the entire SCFGRAD-calculation: 38.4 MB
------------------------------------------------------------------------------
                         ORCA GEOMETRY RELAXATION STEP
------------------------------------------------------------------------------

Reading the OPT-File                    .... done
Getting information on internals        .... done
Copying old internal coords+grads       .... done
Making the new internal coordinates     .... (new redundants).... done
Validating the new internal coordinates .... (new redundants).... done
Calculating the B-matrix                .... done
Calculating the G,G- and P matrices     .... done
Transforming gradient to internals      .... done
Projecting the internal gradient        .... done
Number of atoms                         ....  16
Number of internal coordinates          ....  75
Current Energy                          ....  -213.585413814 Eh
Current gradient norm                   ....     0.035935765 Eh/bohr
Maximum allowed component of the step   ....  0.300
Current trust radius                    ....  0.300
Evaluating the initial hessian          ....  (Almloef) done
Projecting the Hessian                  .... done
Forming the augmented Hessian           .... done
Diagonalizing the augmented Hessian     .... done
Last element of RFO vector              ....  0.987819196
Lowest eigenvalues of augmented Hessian:
 -0.002288958  0.010988024  0.011197431  0.011598059  0.016194227
Length of the computed step             ....  0.157524810
The final length of the internal step   ....  0.157524810
Converting the step to cartesian space:
 Initial RMS(Int)=    0.0181893982
Transforming coordinates:
 Iter   0:  RMS(Cart)=    0.0295127878 RMS(Int)=    0.0181453533
 Iter   1:  RMS(Cart)=    0.0003729487 RMS(Int)=    0.0002377354
 Iter   2:  RMS(Cart)=    0.0000118528 RMS(Int)=    0.0000059772
 Iter   3:  RMS(Cart)=    0.0000002833 RMS(Int)=    0.0000001990
 Iter   4:  RMS(Cart)=    0.0000000091 RMS(Int)=    0.0000000051
done
Storing new coordinates                 .... done

                                .--------------------.
          ----------------------|Geometry convergence|-------------------------
          Item                value                   Tolerance       Converged
          ---------------------------------------------------------------------
          RMS gradient        0.0029901165            0.0001000000      NO
          MAX gradient        0.0101541746            0.0003000000      NO
          RMS step            0.0181893982            0.0020000000      NO
          MAX step            0.0512566655            0.0040000000      NO
          ........................................................
          Max(Bonds)      0.0147      Max(Angles)    0.70
          Max(Dihed)        2.94      Max(Improp)    0.00
          ---------------------------------------------------------------------

The optimization has not yet converged - more geometry cycles are needed


    ---------------------------------------------------------------------------
                         Redundant Internal Coordinates
                            (Angstroem and degrees)

        Definition                    Value    dE/dq     Step     New-Value
    ----------------------------------------------------------------------------
     1. B(C   1,C   0)                1.5246 -0.003156  0.0044    1.5289   
     2. B(H   2,C   0)                1.0880 -0.008644  0.0125    1.1005   
     3. B(H   3,C   0)                1.0877 -0.010154  0.0147    1.1024   
     4. B(H   4,C   0)                1.0879 -0.009780  0.0142    1.1021   
     5. B(C   5,C   1)                1.5301 -0.001424  0.0020    1.5321   
     6. B(H   6,C   1)                1.0931 -0.007228  0.0107    1.1038   
     7. B(H   7,C   1)                1.0925 -0.007104  0.0105    1.1030   
     8. B(C   8,C   5)                1.5338 -0.000660  0.0009    1.5347   
     9. B(H   9,C   5)                1.0914 -0.007370  0.0108    1.1022   
    10. B(H  10,C   5)                1.0910 -0.008056  0.0118    1.1028   
    11. B(N  11,C   8)                1.4581 -0.002692  0.0033    1.4613   
    12. B(H  12,C   8)                1.1039 -0.004994  0.0077    1.1116   
    13. B(H  13,C   8)                1.0944 -0.005160  0.0077    1.1021   
    14. B(H  14,N  11)                1.0137 -0.003635  0.0045    1.0182   
    15. B(H  15,N  11)                1.0137 -0.003126  0.0039    1.0176   
    16. A(H   3,C   0,H   4)          108.90  0.001798   -0.42    108.48   
    17. A(C   1,C   0,H   4)          110.49 -0.001500    0.26    110.75   
    18. A(C   1,C   0,H   2)          110.18 -0.002816    0.55    110.73   
    19. A(H   2,C   0,H   3)          107.74  0.001951   -0.32    107.42   
    20. A(H   2,C   0,H   4)          108.36  0.002026   -0.32    108.04   
    21. A(C   1,C   0,H   3)          111.08 -0.001246    0.21    111.29   
    22. A(C   0,C   1,C   5)          113.97 -0.000408    0.26    114.23   
    23. A(H   6,C   1,H   7)          107.46  0.001136   -0.70    106.76   
    24. A(C   5,C   1,H   7)          108.09 -0.000632    0.35    108.44   
    25. A(C   0,C   1,H   7)          108.76 -0.000257    0.26    109.03   
    26. A(C   5,C   1,H   6)          109.10  0.000314   -0.16    108.95   
    27. A(C   0,C   1,H   6)          109.25 -0.000060   -0.07    109.18   
    28. A(C   8,C   5,H   9)          108.83 -0.000833    0.41    109.24   
    29. A(C   1,C   5,H   9)          107.94 -0.000380    0.35    108.29   
    30. A(C   1,C   5,C   8)          114.38 -0.000028    0.17    114.55   
    31. A(H   9,C   5,H  10)          107.76  0.001045   -0.61    107.16   
    32. A(C   8,C   5,H  10)          107.90  0.000770   -0.35    107.55   
    33. A(C   1,C   5,H  10)          109.84 -0.000505   -0.02    109.82   
    34. A(H  12,C   8,H  13)          107.32  0.000833   -0.68    106.65   
    35. A(N  11,C   8,H  13)          106.46 -0.000945    0.56    107.02   
    36. A(C   5,C   8,H  13)          109.46  0.000808   -0.08    109.38   
    37. A(N  11,C   8,H  12)          113.18 -0.000153    0.11    113.29   
    38. A(C   5,C   8,H  12)          109.31  0.001572   -0.47    108.85   
    39. A(C   5,C   8,N  11)          110.95 -0.002046    0.54    111.49   
    40. A(H  14,N  11,H  15)          107.65  0.002748   -0.60    107.04   
    41. A(C   8,N  11,H  15)          109.93 -0.002610    0.40    110.33   
    42. A(C   8,N  11,H  14)          109.97 -0.002367    0.36    110.33   
    43. D(H   6,C   1,C   0,H   4)   -176.16  0.000315   -0.81   -176.97   
    44. D(C   5,C   1,C   0,H   3)     67.14  0.000821   -1.10     66.04   
    45. D(H   7,C   1,C   0,H   3)   -172.20 -0.000439   -0.29   -172.50   
    46. D(H   6,C   1,C   0,H   2)     64.13  0.000555   -0.93     63.20   
    47. D(C   5,C   1,C   0,H   4)    -53.84  0.000394   -0.89    -54.72   
    48. D(H   6,C   1,C   0,H   3)    -55.19  0.000743   -1.02    -56.21   
    49. D(H   7,C   1,C   0,H   4)     66.82 -0.000867   -0.08     66.75   
    50. D(C   5,C   1,C   0,H   2)   -173.55  0.000634   -1.01   -174.56   
    51. D(H   7,C   1,C   0,H   2)    -52.89 -0.000627   -0.19    -53.09   
    52. D(H   9,C   5,C   1,H   6)    -62.34  0.000046    0.72    -61.62   
    53. D(C   8,C   5,C   1,H   7)    175.50 -0.000143    0.89    176.39   
    54. D(C   8,C   5,C   1,H   6)     58.94 -0.001313    1.61     60.55   
    55. D(C   8,C   5,C   1,C   0)    -63.47 -0.001187    1.65    -61.82   
    56. D(H   9,C   5,C   1,H   7)     54.22  0.001216   -0.00     54.22   
    57. D(H  10,C   5,C   1,H   7)    -63.02  0.000460    0.54    -62.48   
    58. D(H  10,C   5,C   1,H   6)   -179.58 -0.000710    1.26   -178.32   
    59. D(H  10,C   5,C   1,C   0)     58.02 -0.000584    1.29     59.31   
    60. D(H   9,C   5,C   1,C   0)    175.26  0.000172    0.76    176.01   
    61. D(H  13,C   8,C   5,H   9)    -24.62 -0.001702   -0.94    -25.56   
    62. D(H  13,C   8,C   5,C   1)   -145.41 -0.000586   -1.80   -147.21   
    63. D(H  12,C   8,C   5,H  10)   -150.66  0.001891   -2.76   -153.42   
    64. D(H  12,C   8,C   5,H   9)     92.67  0.000679   -2.08     90.60   
    65. D(H  12,C   8,C   5,C   1)    -28.12  0.001795   -2.94    -31.05   
    66. D(N  11,C   8,C   5,H  10)    -25.15  0.001389   -2.58    -27.73   
    67. D(N  11,C   8,C   5,H   9)   -141.82  0.000177   -1.90   -143.71   
    68. D(H  13,C   8,C   5,H  10)     92.05 -0.000490   -1.63     90.42   
    69. D(N  11,C   8,C   5,C   1)     97.40  0.001293   -2.76     94.64   
    70. D(H  15,N  11,C   8,C   5)   -179.77 -0.000453    0.08   -179.68   
    71. D(H  14,N  11,C   8,H  13)    179.56  0.000610   -0.73    178.83   
    72. D(H  14,N  11,C   8,H  12)     61.90  0.000280   -0.32     61.58   
    73. D(H  14,N  11,C   8,C   5)    -61.42 -0.000112   -0.19    -61.61   
    74. D(H  15,N  11,C   8,H  13)     61.22  0.000269   -0.45     60.76   
    75. D(H  15,N  11,C   8,H  12)    -56.45 -0.000061   -0.04    -56.49   
    ----------------------------------------------------------------------------

         *************************************************************
         *                GEOMETRY OPTIMIZATION CYCLE   2            *
         *************************************************************
---------------------------------
CARTESIAN COORDINATES (ANGSTROEM)
---------------------------------
  C     -1.645110    0.761845   -0.513151
  C     -1.364331   -0.529889    0.255104
  H     -2.693099    0.796401   -0.847403
  H     -1.009759    0.839932   -1.410626
  H     -1.460606    1.642572    0.123156
  C      0.036454   -0.603174    0.871343
  H     -1.504133   -1.391346   -0.420704
  H     -2.107125   -0.636047    1.063573
  C      1.184053   -0.557269   -0.146627
  H      0.108108   -1.533762    1.457672
  H      0.180614    0.235315    1.572990
  N      1.686684    0.803153   -0.325765
  H      0.842698   -1.028065   -1.093995
  H      2.025192   -1.165816    0.223068
  H      0.950892    1.407468   -0.686598
  H      2.442365    0.813950   -1.007155

----------------------------
CARTESIAN COORDINATES (A.U.)
----------------------------
  NO LB      ZA    FRAG     MASS         X           Y           Z
   0 C     6.0000    0    12.011   -3.108807    1.439678   -0.969715
   1 C     6.0000    0    12.011   -2.578212   -1.001344    0.482077
   2 H     1.0000    0     1.008   -5.089220    1.504979   -1.601359
   3 H     1.0000    0     1.008   -1.908168    1.587241   -2.665696
   4 H     1.0000    0     1.008   -2.760146    3.104011    0.232731
   5 C     6.0000    0    12.011    0.068887   -1.139833    1.646601
   6 H     1.0000    0     1.008   -2.842400   -2.629263   -0.795016
   7 H     1.0000    0     1.008   -3.981889   -1.201954    2.009861
   8 C     6.0000    0    12.011    2.237536   -1.053085   -0.277084
   9 H     1.0000    0     1.008    0.204294   -2.898391    2.754602
  10 H     1.0000    0     1.008    0.341312    0.444680    2.972519
  11 N     7.0000    0    14.007    3.187372    1.517739   -0.615606
  12 H     1.0000    0     1.008    1.592468   -1.942760   -2.067352
  13 H     1.0000    0     1.008    3.827058   -2.203074    0.421538
  14 H     1.0000    0     1.008    1.796926    2.659729   -1.297482
  15 H     1.0000    0     1.008    4.615400    1.538143   -1.903247

--------------------------------
INTERNAL COORDINATES (ANGSTROEM)
--------------------------------
 C      0   0   0     0.000000000000     0.00000000     0.00000000
 C      1   0   0     1.528930541145     0.00000000     0.00000000
 H      1   2   0     1.100544986544   110.73291041     0.00000000
 H      1   2   3     1.102374225368   111.28980603   240.59299744
 H      1   2   3     1.102092768516   110.75090164   119.83534190
 C      2   1   3     1.532096116642   114.23145760   185.44144869
 H      2   1   3     1.103798413608   109.17558075    63.19627836
 H      2   1   3     1.103011170523   109.02262489   306.91185086
 C      6   2   1     1.534716415394   114.54767995   298.18297434
 H      6   2   1     1.102230233580   108.28722570   176.01362376
 H      6   2   1     1.102792771879   109.81965215    59.31219263
 N      9   6   2     1.461326600484   111.49083808    94.63801641
 H      9   6   2     1.111611474744   108.84451061   328.94644737
 H      9   6   2     1.102052432496   109.37199741   212.79214880
 H     12   9   6     1.018227683112   110.32883074   298.38668160
 H     12   9   6     1.017576687530   110.32806413   180.31880160

---------------------------
INTERNAL COORDINATES (A.U.)
---------------------------
 C      0   0   0     0.000000000000     0.00000000     0.00000000
 C      1   0   0     2.889260000552     0.00000000     0.00000000
 H      1   2   0     2.079728622627   110.73291041     0.00000000
 H      1   2   3     2.083185383039   111.28980603   240.59299744
 H      1   2   3     2.082653506671   110.75090164   119.83534190
 C      2   1   3     2.895242071298   114.23145760   185.44144869
 H      2   1   3     2.085876708776   109.17558075    63.19627836
 H      2   1   3     2.084389034945   109.02262489   306.91185086
 C      6   2   1     2.900193718328   114.54767995   298.18297434
 H      6   2   1     2.082913277994   108.28722570   176.01362376
 H      6   2   1     2.083976321320   109.81965215    59.31219263
 N      9   6   2     2.761507067129   111.49083808    94.63801641
 H      9   6   2     2.100641254590   108.84451061   328.94644737
 H      9   6   2     2.082577282640   109.37199741   212.79214880
 H     12   9   6     1.924171463060   110.32883074   298.38668160
 H     12   9   6     1.922941259694   110.32806413   180.31880160



           ************************************************************
           *        Program running with 4 parallel MPI-processes     *
           *              working on a common directory               *
           ************************************************************
------------------------------------------------------------------------------
                   ___                                                        
                  /   \      - P O W E R E D   B Y -                         
                 /     \                                                     
                 |  |  |   _    _      __       _____    __    __             
                 |  |  |  | |  | |    /  \     |  _  \  |  |  /  |          
                  \  \/   | |  | |   /    \    | | | |  |  | /  /          
                 / \  \   | |__| |  /  /\  \   | |_| |  |  |/  /          
                |  |  |   |  __  | /  /__\  \  |    /   |      \           
                |  |  |   | |  | | |   __   |  |    \   |  |\   \          
                \     /   | |  | | |  |  |  |  | |\  \  |  | \   \       
[...]
     37      -0.186645   0.023690   0.113496  -0.010530   0.133166   0.435348
     38       0.234384  -0.007857  -0.077818   0.000604  -0.056148  -0.218467
     39      -0.244013  -0.071423   0.046881   0.035193  -0.002277   0.090657
     40      -0.256591  -0.073382   0.115265   0.026358   0.148392   0.504395
     41       0.330984   0.092260   0.021280  -0.059105   0.167093   0.409475
     42       0.101390   0.019761   0.002098  -0.014831   0.033253   0.013663
     43       0.168425   0.040999  -0.002464  -0.043580   0.003900   0.001080
     44      -0.038369  -0.006434   0.003478  -0.007548  -0.027654  -0.009226
     45      -0.039012  -0.008312  -0.001150   0.001852  -0.024970   0.003212
     46      -0.266004  -0.050242   0.059995   0.034649   0.056066   0.050957
     47       0.013740  -0.002797  -0.011837  -0.003210  -0.035788  -0.011655
                 36         37         38         39         40         41    
      0      -0.003302   0.000394   0.005565   0.000876   0.000759  -0.001838
      1      -0.000217   0.000337  -0.024443  -0.038592   0.008390   0.001789
      2      -0.002501   0.000004   0.015892   0.019322  -0.001958   0.003889
      3      -0.001168   0.000026  -0.033555   0.021395  -0.011883   0.011399
      4       0.001939   0.001342  -0.043076   0.029280  -0.023555  -0.007145
      5      -0.002341   0.000897  -0.005889   0.000409  -0.012027  -0.023140
      6      -0.011218   0.000588  -0.325610  -0.378386   0.054153   0.009738
      7      -0.021064   0.000007   0.015079   0.021868  -0.005340  -0.000125
      8       0.032468   0.000183  -0.077891  -0.092266   0.014462   0.003325
      9       0.046425  -0.002099   0.192212   0.264730  -0.040302   0.019596
     10       0.016509  -0.001494   0.022894   0.032132  -0.004962   0.002962
     11       0.026664   0.002928  -0.298803  -0.419345   0.065012  -0.031207
     12       0.023577  -0.001861   0.073731   0.111772  -0.023196  -0.007652
     13       0.006796  -0.003375   0.251801   0.387103  -0.083852  -0.025379
     14      -0.019182  -0.002378   0.191106   0.293742  -0.061253  -0.018484
     15      -0.002681  -0.001337  -0.000942   0.001900   0.009683   0.001302
     16       0.002773   0.003200   0.008252  -0.007407  -0.005241   0.013119
     17       0.002535   0.000690  -0.013939   0.020882   0.063357   0.011059
     18       0.003565   0.002134   0.082385  -0.049414   0.048006   0.022267
     19      -0.003893  -0.013116   0.467898  -0.292364   0.265898   0.117863
     20       0.003911  -0.010702   0.404576  -0.249630   0.225617   0.097902
     21       0.009996   0.000190   0.306307  -0.207817   0.080421  -0.162585
     22      -0.006362   0.001002   0.046696  -0.035038   0.009700  -0.030800
     23       0.005889   0.002804  -0.337661   0.231005  -0.084303   0.175074
     24      -0.003467  -0.004119   0.001905  -0.002837  -0.009139   0.064331
     25      -0.018006  -0.047385  -0.001508   0.001303   0.005102  -0.026474
     26      -0.020151  -0.060888   0.000813  -0.002000  -0.007864   0.043889
     27       0.023997   0.005082   0.005582  -0.006353  -0.026527   0.001953
     28      -0.002099  -0.020067  -0.176286   0.222289   0.532094  -0.020430
     29      -0.007491   0.007328   0.089881  -0.112088  -0.269315   0.010091
     30      -0.011187  -0.005831   0.014325  -0.022718  -0.085601  -0.022541
     31      -0.000117  -0.020563   0.077836  -0.136851  -0.478227  -0.133754
     32       0.007381  -0.020862   0.073847  -0.131028  -0.470466  -0.134375
     33       0.020368  -0.000535  -0.000340  -0.000305   0.000274  -0.001293
     34       0.066251  -0.001427   0.000081   0.000094  -0.000094   0.000802
     35      -0.041285   0.000486   0.000018  -0.000191  -0.000134  -0.000656
     36      -0.037238   0.202951   0.000871   0.000923   0.000352  -0.021427
     37      -0.032334   0.521969   0.003888   0.002811   0.012097  -0.083022
     38      -0.010202   0.804947   0.007254   0.002772   0.018299  -0.120348
     39       0.020837  -0.134364  -0.025092   0.036337   0.116901  -0.729296
     40       0.064531   0.065501   0.013619  -0.018968  -0.064128   0.391571
     41       0.021048  -0.090760  -0.013822   0.020217   0.069594  -0.404296
     42      -0.515149  -0.006416   0.002086   0.001878  -0.001242   0.010229
     43      -0.294259   0.001217  -0.001044  -0.001232   0.000996  -0.002785
     44       0.386534   0.004818  -0.000339  -0.000160  -0.001290   0.008230
     45       0.289880   0.007061  -0.000042  -0.000911  -0.000689   0.001702
     46      -0.487337  -0.004763   0.000660   0.000622  -0.000620  -0.004296
     47       0.394275   0.001511  -0.001186  -0.000650   0.000917  -0.002154
                 42         43         44         45         46         47    
      0       0.010117  -0.002053   0.055786   0.072349  -0.000116  -0.000116
      1      -0.006826   0.004199  -0.026372   0.037007   0.000003   0.000031
      2      -0.016425   0.007047  -0.066213   0.045860  -0.000199  -0.000209
      3      -0.037212   0.004282   0.009603   0.001203   0.000113   0.000155
      4       0.022695  -0.011186  -0.006384   0.005294  -0.000087  -0.000029
      5       0.071042  -0.016921  -0.018903   0.004170  -0.000096  -0.000038
      6      -0.059962   0.006618  -0.376439  -0.734152  -0.000787  -0.000854
      7       0.001369   0.000481   0.021003   0.051844   0.000136  -0.000031
      8      -0.019696   0.003907  -0.108232  -0.181449  -0.000363  -0.000384
      9      -0.091809   0.033017  -0.403616   0.010200  -0.004670  -0.005484
     10      -0.011872   0.004579  -0.059539   0.005538  -0.001635  -0.001516
     11       0.142342  -0.050881   0.644284   0.007795   0.002067   0.002589
     12       0.030798  -0.016612   0.111293  -0.136640   0.000025   0.000135
     13       0.095248  -0.048591   0.351216  -0.503080   0.000553   0.000054
     14       0.071169  -0.038564   0.253477  -0.372213   0.000644   0.000151
     15       0.000626  -0.004774  -0.000487  -0.000273  -0.000240   0.000257
     16      -0.017860  -0.089890  -0.002803   0.001966   0.000209   0.000095
     17       0.009939  -0.012525  -0.001758  -0.000053  -0.000004  -0.000067
     18      -0.073210   0.029603   0.017707  -0.009576   0.000003  -0.000213
     19      -0.367614   0.140797   0.100944  -0.057793   0.000585   0.000096
     20      -0.305857   0.120135   0.083235  -0.046614   0.000298  -0.000057
     21       0.509899  -0.078979  -0.129384  -0.000706  -0.000332  -0.000366
     22       0.092709  -0.013543  -0.025117  -0.000430   0.000273   0.000218
     23      -0.543233   0.083691   0.139481  -0.000033   0.000153   0.000064
     24       0.020858   0.006016  -0.001104  -0.000303  -0.001057  -0.001341
     25      -0.008468  -0.005317   0.000356   0.000497  -0.002663   0.000504
     26       0.013435   0.001246  -0.000926   0.000066  -0.001765  -0.000518
     27      -0.010113  -0.029623  -0.000684   0.001305   0.001225  -0.000542
     28       0.211876   0.610156   0.011177  -0.015453  -0.000355  -0.000406
     29      -0.112440  -0.321435  -0.004939   0.007375  -0.000151   0.000237
     30       0.000049   0.085627   0.005977  -0.003535   0.000199   0.000176
     31       0.004251   0.464736   0.023956  -0.008584   0.000944  -0.000070
     32       0.006682   0.474622   0.025323  -0.010761   0.000868  -0.000869
     33      -0.000349  -0.000255   0.000618   0.000095   0.014086  -0.076957
     34       0.000253   0.000448  -0.000122  -0.000026   0.025167   0.023511
     35      -0.000222   0.000084   0.000374  -0.000109  -0.050459  -0.004566
     36      -0.005237   0.004009  -0.000194  -0.000500   0.000629   0.000631
     37      -0.026965   0.010988   0.002543  -0.002177  -0.000549  -0.000339
     38      -0.039358   0.020343   0.004105  -0.003273   0.006252   0.000712
     39      -0.232508  -0.075061   0.010519   0.004146   0.004977   0.010284
     40       0.123943   0.041951  -0.005513  -0.002614  -0.001087  -0.005659
     41      -0.128229  -0.041390   0.006031   0.002179   0.002863   0.004736
     42       0.003018   0.001769  -0.005402  -0.001258   0.472416   0.534631
     43      -0.000495  -0.000641   0.000842   0.000559  -0.299581  -0.342926
     44       0.002379   0.000064  -0.002886   0.001823   0.330778   0.415249
     45       0.000792   0.001818   0.001426  -0.000145  -0.653920   0.543427
     46      -0.001335   0.000572  -0.000349  -0.000842  -0.018752   0.016720
     47       0.000004   0.000380   0.001141   0.000386   0.382361  -0.349064


-----------
IR SPECTRUM
-----------

 Mode   freq       eps      Int      T**2         TX        TY        TZ
       cm**-1   L/(mol*cm) km/mol    a.u.
----------------------------------------------------------------------------
  6:     67.33   0.002025   10.24  0.009388  (-0.087423  0.039051 -0.014832)
  7:    136.89   0.001329    6.72  0.003031  (-0.054987  0.002653  0.000356)
  8:    222.85   0.007578   38.29  0.010611  ( 0.102567 -0.009188 -0.002627)
  9:    291.69   0.000113    0.57  0.000121  ( 0.010939  0.000573  0.000747)
 10:    315.78   0.000020    0.10  0.000019  (-0.004079 -0.001313 -0.001053)
 11:    389.75   0.001838    9.29  0.001472  (-0.036334 -0.011913  0.003125)
 12:    484.70   0.000519    2.62  0.000334  ( 0.011520  0.013780  0.003393)
 13:    769.03   0.002417   12.21  0.000981  ( 0.020632  0.023323  0.003327)
 14:    803.25   0.004136   20.90  0.001607  (-0.009290 -0.032492 -0.021561)
 15:    833.42   0.019528   98.69  0.007312  (-0.026383 -0.069522 -0.042222)
 16:    878.53   0.000170    0.86  0.000060  ( 0.007418 -0.002133  0.000901)
 17:    948.61   0.000272    1.37  0.000089  (-0.005453  0.005654  0.005267)
 18:    981.14   0.001662    8.40  0.000529  ( 0.008235  0.020064  0.007630)
 19:   1061.50   0.000565    2.86  0.000166  ( 0.005330 -0.009353  0.007087)
 20:   1100.66   0.000544    2.75  0.000154  (-0.006010 -0.008478  0.006808)
 21:   1157.90   0.002121   10.72  0.000572  (-0.007089 -0.020942 -0.009105)
 22:   1160.98   0.000596    3.01  0.000160  ( 0.003682  0.006168 -0.010424)
 23:   1202.63   0.000451    2.28  0.000117  (-0.004003 -0.009864 -0.001916)
 24:   1255.06   0.000174    0.88  0.000043  ( 0.005325 -0.000277 -0.003836)
 25:   1312.84   0.000130    0.66  0.000031  (-0.002546 -0.002093  0.004481)
 26:   1348.54   0.001558    7.88  0.000361  (-0.002209  0.016292 -0.009503)
 27:   1370.14   0.000435    2.20  0.000099  (-0.009060 -0.004119  0.000123)
 28:   1394.28   0.000183    0.93  0.000041  ( 0.005702  0.001008  0.002744)
 29:   1419.84   0.000922    4.66  0.000203  (-0.008606  0.010597 -0.004037)
 30:   1446.72   0.001905    9.63  0.000411  ( 0.007174  0.017366 -0.007613)
 31:   1455.46   0.000985    4.98  0.000211  (-0.002618  0.002368 -0.014094)
 32:   1470.61   0.000697    3.52  0.000148  (-0.004103 -0.011395 -0.001062)
 33:   1478.91   0.001907    9.64  0.000402  (-0.011646  0.001793  0.016235)
 34:   1493.46   0.001367    6.91  0.000286  ( 0.011528  0.007632  0.009725)
 35:   1496.95   0.001085    5.48  0.000226  (-0.013844 -0.003856  0.004426)
 36:   1646.67   0.006325   31.96  0.001199  (-0.012484 -0.018321  0.026593)
 37:   2969.14   0.015869   80.20  0.001668  (-0.000955 -0.031661 -0.025779)
 38:   3056.77   0.006903   34.89  0.000705  (-0.011454 -0.023895  0.001599)
 39:   3059.69   0.003605   18.22  0.000368  ( 0.009385 -0.005942  0.015631)
 40:   3066.40   0.003069   15.51  0.000312  (-0.004923 -0.009011  0.014384)
 41:   3104.28   0.006990   35.32  0.000703  ( 0.023725 -0.006674  0.009759)
 42:   3110.44   0.004708   23.79  0.000472  (-0.000133 -0.003660  0.021422)
 43:   3125.77   0.006018   30.41  0.000601  ( 0.001383 -0.024180 -0.003779)
 44:   3151.22   0.008069   40.78  0.000799  ( 0.018866 -0.007317 -0.019739)
 45:   3159.74   0.004567   23.08  0.000451  ( 0.016722  0.007723  0.010574)
 46:   3577.89   0.000166    0.84  0.000014  ( 0.002602  0.000837  0.002651)
 47:   3661.00   0.001025    5.18  0.000087  ( 0.009178 -0.001691 -0.000553)

* The epsilon (eps) is given for a Dirac delta lineshape.
** The dipole moment derivative (T) already includes vibrational overlap.

The first frequency considered to be a vibration is 6
The total number of vibrations considered is 42


--------------------------
THERMOCHEMISTRY AT 298.15K
--------------------------

Temperature         ... 298.15 K
Pressure            ... 1.00 atm
Total Mass          ... 73.14 AMU

Throughout the following assumptions are being made:
  (1) The electronic state is orbitally nondegenerate
  (2) There are no thermally accessible electronically excited states
  (3) Hindered rotations indicated by low frequency modes are not
      treated as such but are treated as vibrations and this may
      cause some error
  (4) All equations used are the standard statistical mechanics
      equations for an ideal gas
  (5) All vibrations are strictly harmonic

freq.      67.33  E(vib)   ...       0.50 
freq.     136.89  E(vib)   ...       0.42 
freq.     222.85  E(vib)   ...       0.33 
freq.     291.69  E(vib)   ...       0.27 
freq.     315.78  E(vib)   ...       0.25 
freq.     389.75  E(vib)   ...       0.20 
freq.     484.70  E(vib)   ...       0.15 
freq.     769.03  E(vib)   ...       0.06 
freq.     803.25  E(vib)   ...       0.05 
freq.     833.42  E(vib)   ...       0.04 
freq.     878.53  E(vib)   ...       0.04 
freq.     948.61  E(vib)   ...       0.03 
freq.     981.14  E(vib)   ...       0.02 
freq.    1061.50  E(vib)   ...       0.02 
freq.    1100.66  E(vib)   ...       0.02 
freq.    1157.90  E(vib)   ...       0.01 
freq.    1160.98  E(vib)   ...       0.01 
freq.    1202.63  E(vib)   ...       0.01 
freq.    1255.06  E(vib)   ...       0.01 
freq.    1312.84  E(vib)   ...       0.01 
freq.    1348.54  E(vib)   ...       0.01 
freq.    1370.14  E(vib)   ...       0.01 
freq.    1394.28  E(vib)   ...       0.00 
freq.    1419.84  E(vib)   ...       0.00 
freq.    1446.72  E(vib)   ...       0.00 
freq.    1455.46  E(vib)   ...       0.00 
freq.    1470.61  E(vib)   ...       0.00 
freq.    1478.91  E(vib)   ...       0.00 
freq.    1493.46  E(vib)   ...       0.00 
freq.    1496.95  E(vib)   ...       0.00 
freq.    1646.67  E(vib)   ...       0.00 
freq.    2969.14  E(vib)   ...       0.00 
freq.    3056.77  E(vib)   ...       0.00 
freq.    3059.69  E(vib)   ...       0.00 
freq.    3066.40  E(vib)   ...       0.00 
freq.    3104.28  E(vib)   ...       0.00 
freq.    3110.44  E(vib)   ...       0.00 
freq.    3125.77  E(vib)   ...       0.00 
freq.    3151.22  E(vib)   ...       0.00 
freq.    3159.74  E(vib)   ...       0.00 
freq.    3577.89  E(vib)   ...       0.00 
freq.    3661.00  E(vib)   ...       0.00 

------------
INNER ENERGY
------------

The inner energy is: U= E(el) + E(ZPE) + E(vib) + E(rot) + E(trans)
    E(el)   - is the total energy from the electronic structure calculation
              = E(kin-el) + E(nuc-el) + E(el-el) + E(nuc-nuc)
    E(ZPE)  - the the zero temperature vibrational energy from the frequency calculation
    E(vib)  - the the finite temperature correction to E(ZPE) due to population
              of excited vibrational states
    E(rot)  - is the rotational thermal energy
    E(trans)- is the translational thermal energy

Summary of contributions to the inner energy U:
Electronic energy                ...   -213.58743158 Eh
Zero point energy                ...      0.15135794 Eh      94.98 kcal/mol
Thermal vibrational correction   ...      0.00395735 Eh       2.48 kcal/mol
Thermal rotational correction    ...      0.00141627 Eh       0.89 kcal/mol
Thermal translational correction ...      0.00141627 Eh       0.89 kcal/mol
-----------------------------------------------------------------------
Total thermal energy                   -213.42928375 Eh


Summary of corrections to the electronic energy:
(perhaps to be used in another calculation)
Total thermal correction                  0.00678989 Eh       4.26 kcal/mol
Non-thermal (ZPE) correction              0.15135794 Eh      94.98 kcal/mol
-----------------------------------------------------------------------
Total correction                          0.15814783 Eh      99.24 kcal/mol


--------
ENTHALPY
--------

The enthalpy is H = U + kB*T
                kB is Boltzmann's constant
Total free energy                 ...   -213.42928375 Eh 
Thermal Enthalpy correction       ...      0.00094421 Eh       0.59 kcal/mol
-----------------------------------------------------------------------
Total Enthalpy                    ...   -213.42833954 Eh


Note: Only C1 symmetry has been detected, increase convergence thresholds 
      if your molecule has a higher symmetry. Symmetry factor of 1.0 is   
      used for the rotational entropy correction. 
 

Note: Rotational entropy computed according to Herzberg 
Infrared and Raman Spectra, Chapter V,1, Van Nostrand Reinhold, 1945 
Point Group:  C1, Symmetry Number:   1  
Rotational constants in cm-1:     0.243331     0.113389     0.086225 

Vibrational entropy computed according to the QRRHO of S. Grimme
Chem.Eur.J. 2012 18 9955


-------
ENTROPY
-------

The entropy contributions are T*S = T*(S(el)+S(vib)+S(rot)+S(trans))
     S(el)   - electronic entropy
     S(vib)  - vibrational entropy
     S(rot)  - rotational entropy
     S(trans)- translational entropy
The entropies will be listed as multiplied by the temperature to get
units of energy

Electronic entropy                ...      0.00000000 Eh      0.00 kcal/mol
Vibrational entropy               ...      0.00671229 Eh      4.21 kcal/mol
Rotational entropy                ...      0.01236273 Eh      7.76 kcal/mol
Translational entropy             ...      0.01842822 Eh     11.56 kcal/mol
-----------------------------------------------------------------------
Final entropy term                ...      0.03750324 Eh     23.53 kcal/mol

In case the symmetry of your molecule has not been determined correctly
or in case you have a reason to use a different symmetry number we print 
out the resulting rotational entropy values for sn=1,12 :
 --------------------------------------------------------
|  sn= 1 | S(rot)=       0.01236273 Eh      7.76 kcal/mol|
|  sn= 2 | S(rot)=       0.01170828 Eh      7.35 kcal/mol|
|  sn= 3 | S(rot)=       0.01132545 Eh      7.11 kcal/mol|
|  sn= 4 | S(rot)=       0.01105382 Eh      6.94 kcal/mol|
|  sn= 5 | S(rot)=       0.01084313 Eh      6.80 kcal/mol|
|  sn= 6 | S(rot)=       0.01067099 Eh      6.70 kcal/mol|
|  sn= 7 | S(rot)=       0.01052544 Eh      6.60 kcal/mol|
|  sn= 8 | S(rot)=       0.01039937 Eh      6.53 kcal/mol|
|  sn= 9 | S(rot)=       0.01028816 Eh      6.46 kcal/mol|
|  sn=10 | S(rot)=       0.01018868 Eh      6.39 kcal/mol|
|  sn=11 | S(rot)=       0.01009869 Eh      6.34 kcal/mol|
|  sn=12 | S(rot)=       0.01001653 Eh      6.29 kcal/mol|
 --------------------------------------------------------


-------------------
GIBBS FREE ENERGY
-------------------

The Gibbs free energy is G = H - T*S

Total enthalpy                    ...   -213.42833954 Eh 
Total entropy correction          ...     -0.03750324 Eh    -23.53 kcal/mol
-----------------------------------------------------------------------
Final Gibbs free energy         ...   -213.46584278 Eh

For completeness - the Gibbs free energy minus the electronic energy
G-E(el)                           ...      0.12158880 Eh     76.30 kcal/mol


Timings for individual modules:

Sum of individual times         ...      316.996 sec (=   5.283 min)
GTO integral calculation        ...        5.948 sec (=   0.099 min)   1.9 %
SCF iterations                  ...      190.034 sec (=   3.167 min)  59.9 %
SCF Gradient evaluation         ...       54.471 sec (=   0.908 min)  17.2 %
Geometry relaxation             ...        0.450 sec (=   0.007 min)   0.1 %
Analytical frequency calculation...       66.094 sec (=   1.102 min)  20.9 %
                             ****ORCA TERMINATED NORMALLY****
TOTAL RUN TIME: 0 days 0 hours 5 minutes 21 seconds 771 msec
