
                                 *****************
                                 * O   R   C   A *
                                 *****************

                                            #,                                       
                                            ###                                      
                                            ####                                     
                                            #####                                    
                                            ######                                   
                                           ########,                                 
                                     ,,################,,,,,                         
                               ,,#################################,,                 
                          ,,##########################################,,             
                       ,#########################################, ''#####,          
                    ,#############################################,,   '####,        
                  ,##################################################,,,,####,       
                ,###########''''           ''''###############################       
              ,#####''   ,,,,##########,,,,          '''####'''          '####       
            ,##' ,,,,###########################,,,                        '##       
           ' ,,###''''                  '''############,,,                           
         ,,##''                                '''############,,,,        ,,,,,,###''
      ,#''                                            '''#######################'''  
     '                                                          ''''####''''         
             ,#######,   #######,   ,#######,      ##                                
            ,#'     '#,  ##    ##  ,#'     '#,    #''#        ######   ,####,        
            ##       ##  ##   ,#'  ##            #'  '#       #        #'  '#        
            ##       ##  #######   ##           ,######,      #####,   #    #        
            '#,     ,#'  ##    ##  '#,     ,#' ,#      #,         ##   #,  ,#        
             '#######'   ##     ##  '#######'  #'      '#     #####' # '####'        



                  #######################################################
                  #                        -***-                        #
                  #          Department of theory and spectroscopy      #
                  #    Directorship and core code : Frank Neese         #
                  #        Max Planck Institute fuer Kohlenforschung    #
                  #                Kaiser Wilhelm Platz 1               #
                  #                 D-45470 Muelheim/Ruhr               #
                  #                      Germany                        #
                  #                                                     #
                  #                  All rights reserved                #
                  #                        -***-                        #
                  #######################################################


                         Program Version 5.0.4 -  RELEASE  -


 With contributions from (in alphabetic order):
   Daniel Aravena         : Magnetic Suceptibility
   Michael Atanasov       : Ab Initio Ligand Field Theory (pilot matlab implementation)
   Alexander A. Auer      : GIAO ZORA, VPT2 properties, NMR spectrum
   Ute Becker             : Parallelization
   Giovanni Bistoni       : ED, misc. LED, open-shell LED, HFLD
   Martin Brehm           : Molecular dynamics
   Dmytro Bykov           : SCF Hessian
   Vijay G. Chilkuri      : MRCI spin determinant printing, contributions to CSF-ICE
   Dipayan Datta          : RHF DLPNO-CCSD density
   Achintya Kumar Dutta   : EOM-CC, STEOM-CC
   Dmitry Ganyushin       : Spin-Orbit,Spin-Spin,Magnetic field MRCI
   Miquel Garcia          : C-PCM and meta-GGA Hessian, CC/C-PCM, Gaussian charge scheme
   Yang Guo               : DLPNO-NEVPT2, F12-NEVPT2, CIM, IAO-localization
   Andreas Hansen         : Spin unrestricted coupled pair/coupled cluster methods
   Benjamin Helmich-Paris : MC-RPA, TRAH-SCF, COSX integrals
   Lee Huntington         : MR-EOM, pCC
   Robert Izsak           : Overlap fitted RIJCOSX, COSX-SCS-MP3, EOM
   Marcus Kettner         : VPT2
   Christian Kollmar      : KDIIS, OOCD, Brueckner-CCSD(T), CCSD density, CASPT2, CASPT2-K
   Simone Kossmann        : Meta GGA functionals, TD-DFT gradient, OOMP2, MP2 Hessian
   Martin Krupicka        : Initial AUTO-CI
   Lucas Lang             : DCDCAS
   Marvin Lechner         : AUTO-CI (C++ implementation), FIC-MRCC
   Dagmar Lenk            : GEPOL surface, SMD
   Dimitrios Liakos       : Extrapolation schemes; Compound Job, initial MDCI parallelization
   Dimitrios Manganas     : Further ROCIS development; embedding schemes
   Dimitrios Pantazis     : SARC Basis sets
   Anastasios Papadopoulos: AUTO-CI, single reference methods and gradients
   Taras Petrenko         : DFT Hessian,TD-DFT gradient, ASA, ECA, R-Raman, ABS, FL, XAS/XES, NRVS
   Peter Pinski           : DLPNO-MP2, DLPNO-MP2 Gradient
   Christoph Reimann      : Effective Core Potentials
   Marius Retegan         : Local ZFS, SOC
   Christoph Riplinger    : Optimizer, TS searches, QM/MM, DLPNO-CCSD(T), (RO)-DLPNO pert. Triples
   Tobias Risthaus        : Range-separated hybrids, TD-DFT gradient, RPA, STAB
   Michael Roemelt        : Original ROCIS implementation
   Masaaki Saitow         : Open-shell DLPNO-CCSD energy and density
   Barbara Sandhoefer     : DKH picture change effects
   Avijit Sen             : IP-ROCIS
   Kantharuban Sivalingam : CASSCF convergence, NEVPT2, FIC-MRCI
   Bernardo de Souza      : ESD, SOC TD-DFT
   Georgi Stoychev        : AutoAux, RI-MP2 NMR, DLPNO-MP2 response
   Willem Van den Heuvel  : Paramagnetic NMR
   Boris Wezisla          : Elementary symmetry handling
   Frank Wennmohs         : Technical directorship


 We gratefully acknowledge several colleagues who have allowed us to
 interface, adapt or use parts of their codes:
   Stefan Grimme, W. Hujo, H. Kruse, P. Pracht,  : VdW corrections, initial TS optimization,
                  C. Bannwarth, S. Ehlert          DFT functionals, gCP, sTDA/sTD-DF
   Ed Valeev, F. Pavosevic, A. Kumar             : LibInt (2-el integral package), F12 methods
   Garnet Chan, S. Sharma, J. Yang, R. Olivares  : DMRG
   Ulf Ekstrom                                   : XCFun DFT Library
   Mihaly Kallay                                 : mrcc  (arbitrary order and MRCC methods)
   Jiri Pittner, Ondrej Demel                    : Mk-CCSD
   Frank Weinhold                                : gennbo (NPA and NBO analysis)
   Christopher J. Cramer and Donald G. Truhlar   : smd solvation model
   Lars Goerigk                                  : TD-DFT with DH, B97 family of functionals
   V. Asgeirsson, H. Jonsson                     : NEB implementation
   FAccTs GmbH                                   : IRC, NEB, NEB-TS, DLPNO-Multilevel, CI-OPT
                                                   MM, QMMM, 2- and 3-layer-ONIOM, Crystal-QMMM,
                                                   LR-CPCM, SF, NACMEs, symmetry and pop. for TD-DFT,
                                                   nearIR, NL-DFT gradient (VV10), updates on ESD,
                                                   ML-optimized integration grids
   S Lehtola, MJT Oliveira, MAL Marques          : LibXC Library
   Liviu Ungur et al                             : ANISO software


 Your calculation uses the libint2 library for the computation of 2-el integrals
 For citations please refer to: http://libint.valeyev.net

 Your ORCA version has been built with support for libXC version: 5.1.0
 For citations please refer to: https://tddft.org/programs/libxc/

 This ORCA versions uses:
   CBLAS   interface :  Fast vector & matrix operations
   LAPACKE interface :  Fast linear algebra routines
   SCALAPACK package :  Parallel linear algebra routines
   Shared memory     :  Shared parallel matrices
   BLAS/LAPACK       :  OpenBLAS 0.3.15  USE64BITINT DYNAMIC_ARCH NO_AFFINITY SkylakeX SINGLE_THREADED
        Core in use  :  SkylakeX
   Copyright (c) 2011-2014, The OpenBLAS Project




***************************************
The coordinates will be read from file: butylamine_deprot_aq_8.xyz
***************************************


Your calculation utilizes the atom-pairwise dispersion correction
based on tight binding partial charges (D4)
Cite in your paper:
E.Caldeweyher, C.Bannwarth, S.Grimme, J.Chem.Phys., (2017), 147, 034112.
E.Caldeweyher, S.Ehlert, A.Hansen, H.Neugebauer, S.Grimme, J.Chem.Phys., (2018), in progress.
   

XCFun DFT library Copyright 2009-2010 Ulf Ekstrom and contributors.
See http://admol.org/xcfun for more information.
This is free software; see the source code for copying conditions.
There is ABSOLUTELY NO WARRANTY; not even for MERCHANTABILITY or FITNESS FOR A PARTICULAR PURPOSE.
For details see the documentation.
Scientific users of this library should cite U. Ekstrom, L. Visscher, R. Bast, A. J. Thorvaldsen and K. Ruud;
J.Chem.Theor.Comp. 2010, DOI: 10.1021/ct100117s
XCFun Version 0.99 

================================================================================

----- Orbital basis set information -----
Your calculation utilizes the basis: def2-SVP
   F. Weigend and R. Ahlrichs, Phys. Chem. Chem. Phys. 7, 3297 (2005).

----- AuxJ basis set information -----
Your calculation utilizes the auxiliary basis: def2/J
   F. Weigend, Phys. Chem. Chem. Phys. 8, 1057 (2006).

================================================================================
                                        WARNINGS
                       Please study these warnings very carefully!
================================================================================


WARNING: Geometry Optimization
  ===> : Switching off AutoStart
         For restart on a previous wavefunction, please use MOREAD

INFO   : the flag for use of the SHARK integral package has been found!

================================================================================
                                       INPUT FILE
================================================================================
NAME = butylamine_deprot_aq_8.inp
|  1> # ORCA 5.0.4 - /users/bwb16179/postgrad/2024_06/pKa_Reviewer_Comments/CREST_Confs/butylamine/butylamine_deprot_aq_8.inp # write input file
|  2> # Basic Mode
|  3> #
|  4> ! Opt Freq wB97X Def2-SVP D4 SlowConv TightSCF Defgrid2 Def2/J RIJCOSX 
|  5> 
|  6> %PAL NPROCS 4 END
|  7> 
|  8> %maxcore 4500
|  9> 
| 10> %geom
| 11> Maxiter 150
| 12> END
| 13> 
| 14> * xyzfile 0 1 butylamine_deprot_aq_8.xyz
| 15> 
| 16>                          ****END OF INPUT****
================================================================================

                       *****************************
                       * Geometry Optimization Run *
                       *****************************

Geometry optimization settings:
Update method            Update   .... BFGS
Choice of coordinates    CoordSys .... Z-matrix Internals
Initial Hessian          InHess   .... Almoef's Model

Convergence Tolerances:
Energy Change            TolE     ....  5.0000e-06 Eh
Max. Gradient            TolMAXG  ....  3.0000e-04 Eh/bohr
RMS Gradient             TolRMSG  ....  1.0000e-04 Eh/bohr
Max. Displacement        TolMAXD  ....  4.0000e-03 bohr
RMS Displacement         TolRMSD  ....  2.0000e-03 bohr
Strict Convergence                ....  False
------------------------------------------------------------------------------
                        ORCA OPTIMIZATION COORDINATE SETUP
------------------------------------------------------------------------------

The optimization will be done in new redundant internal coordinates
Making redundant internal coordinates   ...  (new redundants) done
Evaluating the initial hessian          ...  (Almloef) done
Evaluating the coordinates              ...  done
Calculating the B-matrix                .... done
Calculating the G-matrix                .... done
Diagonalizing the G-matrix              .... done
Small eigenvalue found = 2.732e-02
The first mode is                       ....   33
The number of degrees of freedom        ....   42

    -----------------------------------------------------------------
                    Redundant Internal Coordinates


    -----------------------------------------------------------------
         Definition                    Initial Value    Approx d2E/dq
    -----------------------------------------------------------------
      1. B(C   1,C   0)                  1.5246         0.381056   
      2. B(H   2,C   0)                  1.0875         0.363385   
      3. B(H   3,C   0)                  1.0867         0.364449   
      4. B(H   4,C   0)                  1.0876         0.363250   
      5. B(C   5,C   1)                  1.5284         0.375736   
      6. B(H   6,C   1)                  1.0923         0.357031   
      7. B(H   7,C   1)                  1.0929         0.356336   
      8. B(C   8,C   5)                  1.5275         0.377071   
      9. B(H   9,C   5)                  1.0909         0.358918   
     10. B(H  10,C   5)                  1.0934         0.355666   
     11. B(N  11,C   8)                  1.4577         0.436351   
     12. B(H  12,C   8)                  1.1050         0.340793   
     13. B(H  13,C   8)                  1.0928         0.356411   
     14. B(H  14,N  11)                  1.0146         0.425415   
     15. B(H  15,N  11)                  1.0136         0.427088   
     16. A(H   3,C   0,H   4)          108.1579         0.291788   
     17. A(C   1,C   0,H   4)          110.2194         0.325844   
     18. A(C   1,C   0,H   2)          110.3708         0.325864   
     19. A(H   2,C   0,H   3)          108.4638         0.291805   
     20. A(H   2,C   0,H   4)          108.4493         0.291654   
     21. A(C   1,C   0,H   3)          111.0999         0.326020   
     22. A(C   0,C   1,C   5)          113.2821         0.364946   
     23. A(H   6,C   1,H   7)          107.5751         0.289970   
     24. A(C   5,C   1,H   7)          109.2744         0.324067   
     25. A(C   0,C   1,H   7)          109.4260         0.324816   
     26. A(C   5,C   1,H   6)          108.3529         0.324170   
     27. A(C   0,C   1,H   6)          108.7678         0.324920   
     28. A(C   8,C   5,H   9)          108.5912         0.324640   
     29. A(C   1,C   5,H   9)          109.8993         0.324451   
     30. A(C   1,C   5,C   8)          113.3688         0.364290   
     31. A(H   9,C   5,H  10)          107.5982         0.290124   
     32. A(C   8,C   5,H  10)          108.3209         0.324155   
     33. A(C   1,C   5,H  10)          108.8938         0.323966   
     34. A(H  12,C   8,H  13)          107.8142         0.287874   
     35. A(N  11,C   8,H  13)          107.0564         0.330171   
     36. A(C   5,C   8,H  13)          110.0101         0.324267   
     37. A(N  11,C   8,H  12)          112.9718         0.327737   
     38. A(C   5,C   8,H  12)          108.9605         0.321892   
     39. A(C   5,C   8,N  11)          109.9734         0.371425   
     40. A(H  14,N  11,H  15)          107.5453         0.301804   
     41. A(C   8,N  11,H  15)          109.9777         0.337323   
     42. A(C   8,N  11,H  14)          109.6847         0.337102   
     43. D(H   6,C   1,C   0,H   4)     54.8492         0.011569   
     44. D(C   5,C   1,C   0,H   3)    -64.7301         0.011569   
     45. D(H   7,C   1,C   0,H   3)     57.4647         0.011569   
     46. D(H   6,C   1,C   0,H   2)    -64.9200         0.011569   
     47. D(C   5,C   1,C   0,H   4)    175.3964         0.011569   
     48. D(H   6,C   1,C   0,H   3)    174.7228         0.011569   
     49. D(H   7,C   1,C   0,H   4)    -62.4088         0.011569   
     50. D(C   5,C   1,C   0,H   2)     55.6272         0.011569   
     51. D(H   7,C   1,C   0,H   2)    177.8220         0.011569   
     52. D(H   9,C   5,C   1,H   6)     67.5956         0.011266   
     53. D(C   8,C   5,C   1,H   7)    -53.7459         0.011266   
     54. D(C   8,C   5,C   1,H   6)   -170.6846         0.011266   
     55. D(C   8,C   5,C   1,C   0)     68.5333         0.011266   
     56. D(H   9,C   5,C   1,H   7)   -175.4657         0.011266   
     57. D(H  10,C   5,C   1,H   7)     66.9056         0.011266   
     58. D(H  10,C   5,C   1,H   6)    -50.0331         0.011266   
     59. D(H  10,C   5,C   1,C   0)   -170.8152         0.011266   
     60. D(H   9,C   5,C   1,C   0)    -53.1865         0.011266   
     61. D(H  13,C   8,C   5,H   9)     59.4149         0.011341   
     62. D(H  13,C   8,C   5,C   1)    -63.0334         0.011341   
     63. D(H  12,C   8,C   5,H  10)    -66.0143         0.011341   
     64. D(H  12,C   8,C   5,H   9)    177.4088         0.011341   
     65. D(H  12,C   8,C   5,C   1)     54.9606         0.011341   
     66. D(N  11,C   8,C   5,H  10)     58.3145         0.011341   
     67. D(N  11,C   8,C   5,H   9)    -58.2623         0.011341   
     68. D(H  13,C   8,C   5,H  10)    175.9917         0.011341   
     69. D(N  11,C   8,C   5,C   1)    179.2895         0.011341   
     70. D(H  15,N  11,C   8,C   5)   -179.6116         0.016234   
     71. D(H  14,N  11,C   8,H  13)    178.9750         0.016234   
     72. D(H  14,N  11,C   8,H  12)     60.4447         0.016234   
     73. D(H  14,N  11,C   8,C   5)    -61.5304         0.016234   
     74. D(H  15,N  11,C   8,H  13)     60.8937         0.016234   
     75. D(H  15,N  11,C   8,H  12)    -57.6365         0.016234   
    -----------------------------------------------------------------

Number of atoms                         .... 16
Number of degrees of freedom            .... 75

         *************************************************************
         *                GEOMETRY OPTIMIZATION CYCLE   1            *
         *************************************************************
---------------------------------
CARTESIAN COORDINATES (ANGSTROEM)
---------------------------------
  C     -2.125533    0.339921    0.585690
  C     -1.384804   -0.452688   -0.485526
  H     -2.134291    1.398213    0.335374
  H     -1.653899    0.219972    1.557370
  H     -3.154452   -0.003873    0.663589
  C      0.037986    0.048250   -0.732159
  H     -1.941507   -0.382342   -1.422712
  H     -1.351594   -1.507005   -0.199768
  C      0.982413   -0.208160    0.440640
  H      0.023856    1.119144   -0.939618
  H      0.442175   -0.454214   -1.615122
  N      2.317649    0.281658    0.121008
  H      0.965568   -1.285376    0.686300
  H      0.641954    0.341083    1.321910
  H      2.680359   -0.216118   -0.685298
  H      2.945899    0.105791    0.896684

----------------------------
CARTESIAN COORDINATES (A.U.)
----------------------------
  NO LB      ZA    FRAG     MASS         X           Y           Z
   0 C     6.0000    0    12.011   -4.016675    0.642358    1.106794
   1 C     6.0000    0    12.011   -2.616900   -0.855457   -0.917511
   2 H     1.0000    0     1.008   -4.033225    2.642240    0.633765
   3 H     1.0000    0     1.008   -3.125417    0.415686    2.943002
   4 H     1.0000    0     1.008   -5.961051   -0.007319    1.254001
   5 C     6.0000    0    12.011    0.071783    0.091179   -1.383580
   6 H     1.0000    0     1.008   -3.668916   -0.722521   -2.688536
   7 H     1.0000    0     1.008   -2.554143   -2.847827   -0.377507
   8 C     6.0000    0    12.011    1.856492   -0.393366    0.832690
   9 H     1.0000    0     1.008    0.045081    2.114876   -1.775621
  10 H     1.0000    0     1.008    0.835590   -0.858340   -3.052139
  11 N     7.0000    0    14.007    4.379722    0.532257    0.228672
  12 H     1.0000    0     1.008    1.824660   -2.429009    1.296919
  13 H     1.0000    0     1.008    1.213117    0.644554    2.498049
  14 H     1.0000    0     1.008    5.065144   -0.408403   -1.295025
  15 H     1.0000    0     1.008    5.566943    0.199915    1.694487

--------------------------------
INTERNAL COORDINATES (ANGSTROEM)
--------------------------------
 C      0   0   0     0.000000000000     0.00000000     0.00000000
 C      1   0   0     1.524602525398     0.00000000     0.00000000
 H      1   2   0     1.087527832310   110.37081074     0.00000000
 H      1   2   3     1.086732515088   111.09989204   239.64275820
 H      1   2   3     1.087629351444   110.21943604   119.76920834
 C      2   1   3     1.528429643318   113.28211471    55.62715633
 H      2   1   3     1.092330175408   108.76778400   295.08001333
 H      2   1   3     1.092860532559   109.42601360   177.82197003
 C      6   2   1     1.527464477096   113.36882080    68.53330922
 H      6   2   1     1.090895329751   109.89926373   306.81353597
 H      6   2   1     1.093372521856   108.89379625   189.18484274
 N      9   6   2     1.457718015214   109.97338046   179.28945530
 H      9   6   2     1.105000402974   108.96052668    54.96055741
 H      9   6   2     1.092802800349   110.01009907   296.96661693
 H     12   9   6     1.014627153379   109.68465710   298.46963419
 H     12   9   6     1.013558772244   109.97769951   180.38839015

---------------------------
INTERNAL COORDINATES (A.U.)
---------------------------
 C      0   0   0     0.000000000000     0.00000000     0.00000000
 C      1   0   0     2.881081236087     0.00000000     0.00000000
 H      1   2   0     2.055129766082   110.37081074     0.00000000
 H      1   2   3     2.053626834344   111.09989204   239.64275820
 H      1   2   3     2.055321609444   110.21943604   119.76920834
 C      2   1   3     2.888313440838   113.28211471    55.62715633
 H      2   1   3     2.064204879340   108.76778400   295.08001333
 H      2   1   3     2.065207109107   109.42601360   177.82197003
 C      6   2   1     2.886489541005   113.36882080    68.53330922
 H      6   2   1     2.061493414004   109.89926373   306.81353597
 H      6   2   1     2.066174628663   108.89379625   189.18484274
 N      9   6   2     2.754687829238   109.97338046   179.28945530
 H      9   6   2     2.088148139493   108.96052668    54.96055741
 H      9   6   2     2.065098011042   110.01009907   296.96661693
 H     12   9   6     1.917367447926   109.68465710   298.46963419
 H     12   9   6     1.915348500174   109.97769951   180.38839015

---------------------
BASIS SET INFORMATION
---------------------
There are 3 groups of distinct atoms

 Group   1 Type C   : 7s4p1d contracted to 3s2p1d pattern {511/31/1}
 Group   2 Type H   : 4s1p contracted to 2s1p pattern {31/1}
 Group   3 Type N   : 7s4p1d contracted to 3s2p1d pattern {511/31/1}

Atom   0C    basis set group =>   1
Atom   1C    basis set group =>   1
Atom   2H    basis set group =>   2
Atom   3H    basis set group =>   2
Atom   4H    basis set group =>   2
Atom   5C    basis set group =>   1
Atom   6H    basis set group =>   2
Atom   7H    basis set group =>   2
Atom   8C    basis set group =>   1
Atom   9H    basis set group =>   2
Atom  10H    basis set group =>   2
Atom  11N    basis set group =>   3
Atom  12H    basis set group =>   2
Atom  13H    basis set group =>   2
Atom  14H    basis set group =>   2
Atom  15H    basis set group =>   2
---------------------------------
AUXILIARY/J BASIS SET INFORMATION
---------------------------------
There are 3 groups of distinct atoms

 Group   1 Type C   : 12s5p4d2f1g contracted to 6s4p3d1f1g pattern {711111/2111/211/2/1}
 Group   2 Type H   : 5s2p1d contracted to 3s1p1d pattern {311/2/1}
 Group   3 Type N   : 12s5p4d2f1g contracted to 6s4p3d1f1g pattern {711111/2111/211/2/1}

Atom   0C    basis set group =>   1
Atom   1C    basis set group =>   1
Atom   2H    basis set group =>   2
Atom   3H    basis set group =>   2
Atom   4H    basis set group =>   2
Atom   5C    basis set group =>   1
Atom   6H    basis set group =>   2
Atom   7H    basis set group =>   2
Atom   8C    basis set group =>   1
Atom   9H    basis set group =>   2
Atom  10H    basis set group =>   2
Atom  11N    basis set group =>   3
Atom  12H    basis set group =>   2
Atom  13H    basis set group =>   2
Atom  14H    basis set group =>   2
Atom  15H    basis set group =>   2


           ************************************************************
           *        Program running with 4 parallel MPI-processes     *
           *              working on a common directory               *
           ************************************************************
------------------------------------------------------------------------------
                           ORCA GTO INTEGRAL CALCULATION
                           -- RI-GTO INTEGRALS CHOSEN --
------------------------------------------------------------------------------
------------------------------------------------------------------------------
                   ___                                                        
                  /   \      - P O W E R E D   B Y -                         
                 /     \                                                     
                 |  |  |   _    _      __       _____    __    __             
                 |  |  |  | |  | |    /  \     |  _  \  |  |  /  |          
                  \  \/   | |  | |   /    \    | | | |  |  | /  /          
                 / \  \   | |__| |  /  /\  \   | |_| |  |  |/  /          
                |  |  |   |  __  | /  /__\  \  |    /   |      \           
                |  |  |   | |  | | |   __   |  |    \   |  |\   \          
                \     /   | |  | | |  |  |  |  | |\  \  |  | \   \       
                 \___/    |_|  |_| |__|  |__|  |_| \__\ |__|  \__/        
                                                                              
                      - O R C A' S   B I G   F R I E N D -                    
                                      &                                       
                       - I N T E G R A L  F E E D E R -                       
                                                                              
 v1 FN, 2020, v2 2021                                                         
------------------------------------------------------------------------------


Reading SHARK input file butylamine_deprot_aq_8.SHARKINP.tmp ... ok
----------------------
SHARK INTEGRAL PACKAGE
----------------------

Number of atoms                             ...     16
Number of basis functions                   ...    125
Number of shells                            ...     63
Maximum angular momentum                    ...      2
Integral batch strategy                     ... SHARK/LIBINT Hybrid
RI-J (if used) integral strategy            ... SPLIT-RIJ (Revised 2003 algorithm where possible)
Printlevel                                  ...      1
Contraction scheme used                     ... SEGMENTED contraction
Coulomb Range Separation                    ... NOT USED
Exchange Range Separation                   ... Long Range
   Mu parameter                             ...  0.300000
   Scaling (regular/separated)              ...  0.157706  0.842294
Finite Nucleus Model                        ... NOT USED
Auxiliary Coulomb fitting basis             ... AVAILABLE
   # of basis functions in Aux-J            ...    366
   # of shells in Aux-J                     ...    130
   Maximum angular momentum in Aux-J        ...      4
Auxiliary J/K fitting basis                 ... NOT available
Auxiliary Correlation fitting basis         ... NOT available
Auxiliary 'external' fitting basis          ... NOT available
Integral threshold                          ...     2.500000e-11
Primitive cut-off                           ...     2.500000e-12
Primitive pair pre-selection threshold      ...     2.500000e-12

Calculating pre-screening integrals         ... done (  0.0 sec) Dimension = 63
Organizing shell pair data                  ... done (  0.0 sec)
Shell pair information
Total number of shell pairs                 ...      2016
Shell pairs after pre-screening             ...      1949
Total number of primitive shell pairs       ...      6768
Primitive shell pairs kept                  ...      5182
          la=0 lb=0:    684 shell pairs
          la=1 lb=0:    749 shell pairs
          la=1 lb=1:    221 shell pairs
          la=2 lb=0:    180 shell pairs
          la=2 lb=1:    100 shell pairs
          la=2 lb=2:     15 shell pairs

Calculating one electron integrals          ... done (  0.0 sec)
Calculating RI/J V-Matrix + Cholesky decomp.... done (  0.0 sec)
Calculating Nuclear repulsion               ... done (  0.0 sec) ENN=    188.931896805022 Eh

SHARK setup successfully completed in   0.7 seconds

Maximum memory used throughout the entire GTOINT-calculation: 10.6 MB


           ************************************************************
           *        Program running with 4 parallel MPI-processes     *
           *              working on a common directory               *
           ************************************************************
-------------------------------------------------------------------------------
                                 ORCA SCF
-------------------------------------------------------------------------------

------------
SCF SETTINGS
------------
Hamiltonian:
 Density Functional     Method          .... DFT(GTOs)
 Exchange Functional    Exchange        .... WB97X
 Correlation Functional Correlation     .... WB97X
 Gradients option       PostSCFGGA      .... off
 Hybrid DFT is turned on
   Fraction HF Exchange ScalHFX         ....  0.157706
   Scaling of DF-GGA-X  ScalDFX         ....  0.000000
   Scaling of DF-GGA-C  ScalDFC         ....  1.000000
   Scaling of DF-LDA-C  ScalLDAC        ....  1.000000
   Perturbative correction              ....  0.000000
   Density functional embedding theory  .... OFF
 Long-range corrected/Screened/Range-Separated Hybrid DFT is turned on
   Amount of maximum screened exact exchange              ....  0.842294
   Range separation parameter mu (erf(mu*r12)/r12)        ....  0.300000
 RI-approximation to the Coulomb term is turned on
   Number of AuxJ basis functions       .... 366
   RIJ-COSX (HFX calculated with COS-X)).... on


General Settings:
 Integral files         IntName         .... butylamine_deprot_aq_8
 Hartree-Fock type      HFTyp           .... RHF
 Total Charge           Charge          ....    0
 Multiplicity           Mult            ....    1
 Number of Electrons    NEL             ....   42
 Basis Dimension        Dim             ....  125
 Nuclear Repulsion      ENuc            ....    188.9318968050 Eh

Convergence Acceleration:
 DIIS                   CNVDIIS         .... on
   Start iteration      DIISMaxIt       ....     0
   Startup error        DIISStart       ....  0.200000
   # of expansion vecs  DIISMaxEq       ....     5
   Bias factor          DIISBfac        ....   1.050
   Max. coefficient     DIISMaxC        ....  10.000
 Trust-Rad. Augm. Hess. CNVTRAH         .... auto
   Auto Start mean grad. ratio tolernc. ....  1.125000
   Auto Start start iteration           ....    20
   Auto Start num. interpolation iter.  ....    10
   Max. Number of Micro iterations      ....    16
   Max. Number of Macro iterations      .... Maxiter - #DIIS iter
   Number of Davidson start vectors     ....     2
   Converg. threshold I  (grad. norm)   ....   1.000e-05
   Converg. threshold II (energy diff.) ....   1.000e-08
   Grad. Scal. Fac. for Micro threshold ....   0.100
   Minimum threshold for Micro iter.    ....   0.010
   NR start threshold (gradient norm)   ....   0.001
   Initial trust radius                 ....   0.400
   Minimum AH scaling param. (alpha)    ....   1.000
   Maximum AH scaling param. (alpha)    .... 1000.000
   Orbital update algorithm             .... Taylor
   White noise on init. David. guess    .... on
   Maximum white noise                  ....   0.010
   Quad. conv. algorithm                .... NR
 SOSCF                  CNVSOSCF        .... on
   Start iteration      SOSCFMaxIt      ....   150
   Startup grad/error   SOSCFStart      ....  0.001000
 Level Shifting         CNVShift        .... on
   Level shift para.    LevelShift      ....    0.2500
   Turn off err/grad.   ShiftErr        ....    0.0000
 Zerner damping         CNVZerner       .... off
 Static damping         CNVDamp         .... on
   Fraction old density DampFac         ....    0.8500
   Max. Damping (<1)    DampMax         ....    0.9800
   Min. Damping (>=0)   DampMin         ....    0.0000
   Turn off err/grad.   DampErr         ....    0.0300
 Fernandez-Rico         CNVRico         .... off

SCF Procedure:
 Maximum # iterations   MaxIter         ....   125
 SCF integral mode      SCFMode         .... Direct
   Integral package                     .... SHARK and LIBINT hybrid scheme
 Reset frequency        DirectResetFreq ....    20
 Integral Threshold     Thresh          ....  2.500e-11 Eh
 Primitive CutOff       TCut            ....  2.500e-12 Eh

Convergence Tolerance:
 Convergence Check Mode ConvCheckMode   .... Total+1el-Energy
 Convergence forced     ConvForced      .... 0
 Energy Change          TolE            ....  1.000e-08 Eh
 1-El. energy change                    ....  1.000e-05 Eh
 Orbital Gradient       TolG            ....  1.000e-05
 Orbital Rotation angle TolX            ....  1.000e-05
 DIIS Error             TolErr          ....  5.000e-07


Diagonalization of the overlap matrix:
Smallest eigenvalue                        ... 1.848e-03
Time for diagonalization                   ...    0.003 sec
Threshold for overlap eigenvalues          ... 1.000e-08
Number of eigenvalues below threshold      ... 0
Time for construction of square roots      ...    0.011 sec
Total time needed                          ...    0.014 sec

Time for model grid setup =    0.095 sec

------------------------------
INITIAL GUESS: MODEL POTENTIAL
------------------------------
Loading Hartree-Fock densities                     ... done
Calculating cut-offs                               ... done
Initializing the effective Hamiltonian             ... done
Setting up the integral package (SHARK)            ... done
Starting the Coulomb interaction                   ... done (   0.0 sec)
Reading the grid                                   ... done
Mapping shells                                     ... done
Starting the XC term evaluation                    ... done (   0.0 sec)
  promolecular density results
     # of electrons  =     41.994221733
     EX              =    -30.245078036
     EC              =     -1.356134398
     EX+EC           =    -31.601212434
Transforming the Hamiltonian                       ... done (   0.0 sec)
Diagonalizing the Hamiltonian                      ... done (   0.0 sec)
Back transforming the eigenvectors                 ... done (   0.0 sec)
Now organizing SCF variables                       ... done
                      ------------------
                      INITIAL GUESS DONE (   0.2 sec)
                      ------------------
-------------------
DFT GRID GENERATION
-------------------

General Integration Accuracy     IntAcc      ... 4.388
Radial Grid Type                 RadialGrid  ... OptM3 with GC (2021)
Angular Grid (max. ang.)         AngularGrid ... 4 (Lebedev-302)
Angular grid pruning method      GridPruning ... 4 (adaptive)
Weight generation scheme         WeightScheme... Becke
Basis function cutoff            BFCut       ... 1.0000e-11
Integration weight cutoff        WCut        ... 1.0000e-14
Angular grids for H and He will be reduced by one unit
Partially contracted basis set               ... off
Rotationally invariant grid construction     ... off

Total number of grid points                  ...    65472
Total number of batches                      ...     1029
Average number of points per batch           ...       63
Average number of grid points per atom       ...     4092
Time for grid setup =    0.419 sec

--------------------
COSX GRID GENERATION
--------------------

GRIDX 1
-------
General Integration Accuracy     IntAcc      ... 3.816
Radial Grid Type                 RadialGrid  ... OptM3 with GC (2021)
Angular Grid (max. ang.)         AngularGrid ... 1 (Lebedev-50)
Angular grid pruning method      GridPruning ... 4 (adaptive)
Weight generation scheme         WeightScheme... Becke
Basis function cutoff            BFCut       ... 1.0000e-11
Integration weight cutoff        WCut        ... 1.0000e-14
Angular grids for H and He will be reduced by one unit
Partially contracted basis set               ... on
Rotationally invariant grid construction     ... off

Total number of grid points                  ...     8453
Total number of batches                      ...      143
Average number of points per batch           ...       59
Average number of grid points per atom       ...      528
UseSFitting                                  ... on

GRIDX 2
-------
General Integration Accuracy     IntAcc      ... 4.020
Radial Grid Type                 RadialGrid  ... OptM3 with GC (2021)
Angular Grid (max. ang.)         AngularGrid ... 2 (Lebedev-110)
Angular grid pruning method      GridPruning ... 4 (adaptive)
Weight generation scheme         WeightScheme... Becke
Basis function cutoff            BFCut       ... 1.0000e-11
Integration weight cutoff        WCut        ... 1.0000e-14
Angular grids for H and He will be reduced by one unit
Partially contracted basis set               ... on
Rotationally invariant grid construction     ... off

Total number of grid points                  ...    17417
Total number of batches                      ...      282
Average number of points per batch           ...       61
Average number of grid points per atom       ...     1089
UseSFitting                                  ... on

GRIDX 3
-------
General Integration Accuracy     IntAcc      ... 4.338
Radial Grid Type                 RadialGrid  ... OptM3 with GC (2021)
Angular Grid (max. ang.)         AngularGrid ... 3 (Lebedev-194)
Angular grid pruning method      GridPruning ... 4 (adaptive)
Weight generation scheme         WeightScheme... Becke
Basis function cutoff            BFCut       ... 1.0000e-11
Integration weight cutoff        WCut        ... 1.0000e-14
Angular grids for H and He will be reduced by one unit
Partially contracted basis set               ... on
Rotationally invariant grid construction     ... off

Total number of grid points                  ...    38016
Total number of batches                      ...      603
Average number of points per batch           ...       63
Average number of grid points per atom       ...     2376
UseSFitting                                  ... on

Time for X-Grid setup             =    1.264 sec

--------------
SCF ITERATIONS
--------------
ITER       Energy         Delta-E        Max-DP      RMS-DP      [F,P]     Damp
               ***  Starting incremental Fock matrix formation  ***
  0   -213.3798031492   0.000000000000 0.03903010  0.00116585  0.2349039 0.8500
  1   -213.4254490139  -0.045645864643 0.03353298  0.00111057  0.1817272 0.8500
                               ***Turning on DIIS***
  2   -213.4589529000  -0.033503886133 0.02495046  0.00088874  0.1330590 0.8500
  3   -213.4830695475  -0.024116647457 0.01430736  0.00057425  0.0960509 0.8500
  4   -213.5013158916  -0.018246344182 0.00952051  0.00040764  0.0753579 0.8500
  5   -213.5155086856  -0.014192793929 0.00711234  0.00032103  0.0623222 0.8500
  6   -213.5269831838  -0.011474498235 0.00566837  0.00026603  0.0525510 0.8500
  7   -213.5364536669  -0.009470483108 0.00475272  0.00022902  0.0445903 0.8500
  8   -213.5443661598  -0.007912492869 0.00404056  0.00019733  0.0376208 0.8500
  9   -213.5509918144  -0.006625654628 0.00342336  0.00016875  0.0316481 0.8500
 10   -213.5565466100  -0.005554795555 0.01921418  0.00095734  0.0266341 0.0000
 11   -213.5867533003  -0.030206690291 0.00110313  0.00003867  0.0016563 0.0000
                      *** Initiating the SOSCF procedure ***
                           *** Shutting down DIIS ***
                      *** Re-Reading the Fockian *** 
                      *** Removing any level shift *** 
ITER      Energy       Delta-E        Grad      Rot      Max-DP    RMS-DP
 12   -213.58676271  -0.0000094062  0.000075  0.000075  0.000248  0.000013
               *** Restarting incremental Fock matrix formation ***
 13   -213.58677145  -0.0000087429  0.000042  0.000067  0.000306  0.000012
 14   -213.58677157  -0.0000001236  0.000015  0.000036  0.000109  0.000005
 15   -213.58677158  -0.0000000116  0.000013  0.000006  0.000030  0.000001
                  ***Gradient check signals convergence***
              ***Rediagonalizing the Fockian in SOSCF/NRSCF***

               *****************************************************
               *                     SUCCESS                       *
               *           SCF CONVERGED AFTER  16 CYCLES          *
               *****************************************************

Old exchange energy                            =    -10.443755732 Eh
New exchange energy                            =    -10.443754974 Eh
Exchange energy change after final integration =      0.000000758 Eh
Total energy after final integration           =   -213.586770830 Eh
Final COS-X integration done in                =     3.233 sec

----------------
TOTAL SCF ENERGY
----------------

Total Energy       :         -213.58677083 Eh           -5811.99151 eV

Components:
Nuclear Repulsion  :          188.93189681 Eh            5141.09828 eV
Electronic Energy  :         -402.51866764 Eh          -10953.08979 eV
One Electron Energy:         -660.61041336 Eh          -17976.12324 eV
Two Electron Energy:          258.09174572 Eh            7023.03345 eV
Max COSX asymmetry :            0.00000159 Eh               0.00004 eV

Virial components:
Potential Energy   :         -424.60897160 Eh          -11554.19752 eV
Kinetic Energy     :          211.02220077 Eh            5742.20601 eV
Virial Ratio       :            2.01215308


DFT components:
N(Alpha)           :       21.000033193102 electrons
N(Beta)            :       21.000033193102 electrons
N(Total)           :       42.000066386204 electrons
E(XC)              :      -22.249824673626 Eh       
DFET-embed. en.    :        0.000000000000 Eh       

---------------
SCF CONVERGENCE
---------------

  Last Energy change         ...   -3.5706e-09  Tolerance :   1.0000e-08
  Last MAX-Density change    ...    2.6645e-15  Tolerance :   1.0000e-07
  Last RMS-Density change    ...    3.6507e-17  Tolerance :   5.0000e-09
  Last Orbital Gradient      ...    2.1930e-06  Tolerance :   1.0000e-05
  Last Orbital Rotation      ...    1.6393e-06  Tolerance :   1.0000e-05

             **** THE GBW FILE WAS UPDATED (butylamine_deprot_aq_8.gbw) ****
             **** DENSITY butylamine_deprot_aq_8.scfp WAS UPDATED ****
             **** ENERGY FILE WAS UPDATED (butylamine_deprot_aq_8.en.tmp) ****
             **** THE GBW FILE WAS UPDATED (butylamine_deprot_aq_8.gbw) ****
             **** DENSITY butylamine_deprot_aq_8.scfp WAS UPDATED ****
----------------
ORBITAL ENERGIES
----------------

  NO   OCC          E(Eh)            E(eV) 
   0   2.0000     -14.374041      -391.1375 
   1   2.0000     -10.282630      -279.8046 
   2   2.0000     -10.260278      -279.1964 
   3   2.0000     -10.255835      -279.0755 
   4   2.0000     -10.254112      -279.0286 
   5   2.0000      -0.996584       -27.1184 
   6   2.0000      -0.910105       -24.7652 
   7   2.0000      -0.820738       -22.3334 
   8   2.0000      -0.742584       -20.2067 
   9   2.0000      -0.682781       -18.5794 
  10   2.0000      -0.600160       -16.3312 
  11   2.0000      -0.573491       -15.6055 
  12   2.0000      -0.554619       -15.0919 
  13   2.0000      -0.541171       -14.7260 
  14   2.0000      -0.499084       -13.5808 
  15   2.0000      -0.478109       -13.0100 
  16   2.0000      -0.471207       -12.8222 
  17   2.0000      -0.430015       -11.7013 
  18   2.0000      -0.428208       -11.6521 
  19   2.0000      -0.417040       -11.3482 
  20   2.0000      -0.332165        -9.0387 
  21   0.0000       0.146480         3.9859 
  22   0.0000       0.160351         4.3634 
  23   0.0000       0.177095         4.8190 
  24   0.0000       0.189417         5.1543 
  25   0.0000       0.217942         5.9305 
  26   0.0000       0.225557         6.1377 
  27   0.0000       0.237366         6.4591 
  28   0.0000       0.249731         6.7955 
  29   0.0000       0.254067         6.9135 
  30   0.0000       0.267535         7.2800 
  31   0.0000       0.280645         7.6367 
  32   0.0000       0.325436         8.8556 
  33   0.0000       0.338684         9.2161 
  34   0.0000       0.357407         9.7255 
  35   0.0000       0.362456         9.8629 
  36   0.0000       0.517380        14.0786 
  37   0.0000       0.530148        14.4261 
  38   0.0000       0.539681        14.6855 
  39   0.0000       0.559021        15.2117 
  40   0.0000       0.570765        15.5313 
  41   0.0000       0.604812        16.4578 
  42   0.0000       0.628346        17.0982 
  43   0.0000       0.719315        19.5736 
  44   0.0000       0.727228        19.7889 
  45   0.0000       0.737657        20.0727 
  46   0.0000       0.745177        20.2773 
  47   0.0000       0.757500        20.6126 
  48   0.0000       0.771269        20.9873 
  49   0.0000       0.783750        21.3269 
  50   0.0000       0.792961        21.5776 
  51   0.0000       0.801907        21.8210 
  52   0.0000       0.802984        21.8503 
  53   0.0000       0.819988        22.3130 
  54   0.0000       0.831151        22.6168 
  55   0.0000       0.832922        22.6650 
  56   0.0000       0.842261        22.9191 
  57   0.0000       0.858648        23.3650 
  58   0.0000       0.864181        23.5156 
  59   0.0000       0.902288        24.5525 
  60   0.0000       0.950345        25.8602 
  61   0.0000       1.028257        27.9803 
  62   0.0000       1.055460        28.7205 
  63   0.0000       1.100586        29.9485 
  64   0.0000       1.155794        31.4507 
  65   0.0000       1.173516        31.9330 
  66   0.0000       1.255130        34.1538 
  67   0.0000       1.300145        35.3787 
  68   0.0000       1.358503        36.9668 
  69   0.0000       1.388735        37.7894 
  70   0.0000       1.405207        38.2376 
  71   0.0000       1.450935        39.4819 
  72   0.0000       1.510156        41.0934 
  73   0.0000       1.592395        43.3313 
  74   0.0000       1.648656        44.8622 
  75   0.0000       1.665272        45.3144 
  76   0.0000       1.715926        46.6927 
  77   0.0000       1.786859        48.6229 
  78   0.0000       1.841470        50.1090 
  79   0.0000       1.855436        50.4890 
  80   0.0000       1.878309        51.1114 
  81   0.0000       1.888111        51.3781 
  82   0.0000       1.901099        51.7315 
  83   0.0000       1.912618        52.0450 
  84   0.0000       1.925203        52.3874 
  85   0.0000       1.936228        52.6874 
  86   0.0000       1.947558        52.9958 
  87   0.0000       1.977102        53.7997 
  88   0.0000       1.985697        54.0336 
  89   0.0000       1.999677        54.4140 
  90   0.0000       2.008898        54.6649 
  91   0.0000       2.041177        55.5432 
  92   0.0000       2.053296        55.8730 
  93   0.0000       2.062054        56.1113 
  94   0.0000       2.106911        57.3319 
  95   0.0000       2.123012        57.7701 
  96   0.0000       2.179869        59.3173 
  97   0.0000       2.225641        60.5628 
  98   0.0000       2.285921        62.2031 
  99   0.0000       2.340064        63.6764 
 100   0.0000       2.354237        64.0620 
 101   0.0000       2.404536        65.4307 
 102   0.0000       2.433461        66.2178 
 103   0.0000       2.515609        68.4532 
 104   0.0000       2.534263        68.9608 
 105   0.0000       2.562687        69.7343 
 106   0.0000       2.587975        70.4224 
 107   0.0000       2.651890        72.1616 
 108   0.0000       2.710388        73.7534 
 109   0.0000       2.720209        74.0206 
 110   0.0000       2.763646        75.2026 
 111   0.0000       2.786807        75.8329 
 112   0.0000       2.892950        78.7212 
 113   0.0000       2.911394        79.2231 
 114   0.0000       2.992683        81.4350 
 115   0.0000       3.001108        81.6643 
 116   0.0000       3.024451        82.2995 
 117   0.0000       3.078736        83.7767 
 118   0.0000       3.088117        84.0319 
 119   0.0000       3.137563        85.3774 
 120   0.0000       3.160382        85.9984 
 121   0.0000       3.198208        87.0277 
 122   0.0000       3.243382        88.2569 
 123   0.0000       3.348033        91.1046 
 124   0.0000       3.528755        96.0223 

                    ********************************
                    * MULLIKEN POPULATION ANALYSIS *
                    ********************************

-----------------------
MULLIKEN ATOMIC CHARGES
-----------------------
   0 C :   -0.033557
   1 C :   -0.047704
   2 H :    0.021329
   3 H :    0.022171
   4 H :    0.025432
   5 C :   -0.047175
   6 H :    0.017791
   7 H :    0.009843
   8 C :    0.069217
   9 H :    0.018572
  10 H :    0.005627
  11 N :   -0.249296
  12 H :   -0.008016
  13 H :    0.010067
  14 H :    0.091388
  15 H :    0.094311
Sum of atomic charges:   -0.0000000

--------------------------------
MULLIKEN REDUCED ORBITAL CHARGES
--------------------------------
  0 C s       :     2.997763  s :     2.997763
      pz      :     0.997343  p :     3.007306
      px      :     1.005518
      py      :     1.004445
      dz2     :     0.008254  d :     0.028488
      dxz     :     0.005189
      dyz     :     0.003615
      dx2y2   :     0.008275
      dxy     :     0.003157
  1 C s       :     3.027490  s :     3.027490
      pz      :     0.999718  p :     2.983407
      px      :     0.977731
      py      :     1.005958
      dz2     :     0.007600  d :     0.036806
      dxz     :     0.009434
      dyz     :     0.004459
      dx2y2   :     0.010069
      dxy     :     0.005245
  2 H s       :     0.954615  s :     0.954615
      pz      :     0.005011  p :     0.024056
      px      :     0.004680
      py      :     0.014365
  3 H s       :     0.953491  s :     0.953491
      pz      :     0.012636  p :     0.024338
      px      :     0.006819
      py      :     0.004883
  4 H s       :     0.950574  s :     0.950574
      pz      :     0.004602  p :     0.023995
      px      :     0.013705
      py      :     0.005687
  5 C s       :     3.034919  s :     3.034919
      pz      :     1.001696  p :     2.976957
      px      :     0.962008
      py      :     1.013253
      dz2     :     0.006680  d :     0.035299
      dxz     :     0.008998
      dyz     :     0.005492
      dx2y2   :     0.009024
      dxy     :     0.005105
  6 H s       :     0.959553  s :     0.959553
      pz      :     0.011702  p :     0.022655
      px      :     0.006504
      py      :     0.004449
  7 H s       :     0.967465  s :     0.967465
      pz      :     0.005022  p :     0.022692
      px      :     0.003844
      py      :     0.013826
  8 C s       :     2.995400  s :     2.995400
      pz      :     1.035448  p :     2.883108
      px      :     0.872116
      py      :     0.975544
      dz2     :     0.008788  d :     0.052275
      dxz     :     0.010803
      dyz     :     0.007138
      dx2y2   :     0.015220
      dxy     :     0.010326
  9 H s       :     0.958827  s :     0.958827
      pz      :     0.004372  p :     0.022601
      px      :     0.003478
      py      :     0.014751
 10 H s       :     0.971491  s :     0.971491
      pz      :     0.010970  p :     0.022882
      px      :     0.005132
      py      :     0.006780
 11 N s       :     3.414866  s :     3.414866
      pz      :     1.070506  p :     3.814617
      px      :     1.059905
      py      :     1.684206
      dz2     :     0.001699  d :     0.019813
      dxz     :     0.005893
      dyz     :     0.004663
      dx2y2   :     0.002586
      dxy     :     0.004973
 12 H s       :     0.987085  s :     0.987085
      pz      :     0.004392  p :     0.020931
      px      :     0.002353
      py      :     0.014186
 13 H s       :     0.968153  s :     0.968153
      pz      :     0.010733  p :     0.021780
      px      :     0.003796
      py      :     0.007250
 14 H s       :     0.862785  s :     0.862785
      pz      :     0.020302  p :     0.045827
      px      :     0.009842
      py      :     0.015683
 15 H s       :     0.860128  s :     0.860128
      pz      :     0.017854  p :     0.045561
      px      :     0.013785
      py      :     0.013921


                     *******************************
                     * LOEWDIN POPULATION ANALYSIS *
                     *******************************

----------------------
LOEWDIN ATOMIC CHARGES
----------------------
   0 C :   -0.060031
   1 C :   -0.041927
   2 H :    0.022858
   3 H :    0.019303
   4 H :    0.024356
   5 C :   -0.044205
   6 H :    0.021971
   7 H :    0.017584
   8 C :    0.014983
   9 H :    0.022178
  10 H :    0.016847
  11 N :   -0.126123
  12 H :   -0.003179
  13 H :    0.014600
  14 H :    0.048670
  15 H :    0.052117

-------------------------------
LOEWDIN REDUCED ORBITAL CHARGES
-------------------------------
  0 C s       :     2.825828  s :     2.825828
      pz      :     1.049685  p :     3.160952
      px      :     1.053849
      py      :     1.057419
      dz2     :     0.019950  d :     0.073251
      dxz     :     0.014128
      dyz     :     0.009810
      dx2y2   :     0.021240
      dxy     :     0.008124
  1 C s       :     2.828010  s :     2.828010
      pz      :     1.046585  p :     3.123707
      px      :     1.026268
      py      :     1.050854
      dz2     :     0.018285  d :     0.090210
      dxz     :     0.023083
      dyz     :     0.011549
      dx2y2   :     0.024972
      dxy     :     0.012322
  2 H s       :     0.910656  s :     0.910656
      pz      :     0.014536  p :     0.066487
      px      :     0.012951
      py      :     0.038999
  3 H s       :     0.913570  s :     0.913570
      pz      :     0.034935  p :     0.067127
      px      :     0.018692
      py      :     0.013501
  4 H s       :     0.909226  s :     0.909226
      pz      :     0.013528  p :     0.066418
      px      :     0.037157
      py      :     0.015734
  5 C s       :     2.835629  s :     2.835629
      pz      :     1.038504  p :     3.120036
      px      :     1.018937
      py      :     1.062595
      dz2     :     0.016898  d :     0.088540
      dxz     :     0.023213
      dyz     :     0.013038
      dx2y2   :     0.023835
      dxy     :     0.011556
  6 H s       :     0.911833  s :     0.911833
      pz      :     0.032584  p :     0.066196
      px      :     0.020419
      py      :     0.013193
  7 H s       :     0.916184  s :     0.916184
      pz      :     0.014960  p :     0.066231
      px      :     0.013353
      py      :     0.037919
  8 C s       :     2.830508  s :     2.830508
      pz      :     1.054523  p :     3.034503
      px      :     0.932877
      py      :     1.047104
      dz2     :     0.020312  d :     0.120006
      dxz     :     0.024971
      dyz     :     0.016798
      dx2y2   :     0.035340
      dxy     :     0.022585
  9 H s       :     0.910508  s :     0.910508
      pz      :     0.014152  p :     0.067314
      px      :     0.012932
      py      :     0.040230
 10 H s       :     0.916973  s :     0.916973
      pz      :     0.030891  p :     0.066180
      px      :     0.016963
      py      :     0.018326
 11 N s       :     3.123768  s :     3.123768
      pz      :     1.157952  p :     3.958294
      px      :     1.124587
      py      :     1.675754
      dz2     :     0.005683  d :     0.044061
      dxz     :     0.015838
      dyz     :     0.008469
      dx2y2   :     0.005544
      dxy     :     0.008526
 12 H s       :     0.938898  s :     0.938898
      pz      :     0.014261  p :     0.064281
      px      :     0.011111
      py      :     0.038910
 13 H s       :     0.920747  s :     0.920747
      pz      :     0.030730  p :     0.064653
      px      :     0.014263
      py      :     0.019660
 14 H s       :     0.829600  s :     0.829600
      pz      :     0.047635  p :     0.121731
      px      :     0.024582
      py      :     0.049514
 15 H s       :     0.825776  s :     0.825776
      pz      :     0.043756  p :     0.122106
      px      :     0.036358
      py      :     0.041992


                      *****************************
                      * MAYER POPULATION ANALYSIS *
                      *****************************

  NA   - Mulliken gross atomic population
  ZA   - Total nuclear charge
  QA   - Mulliken gross atomic charge
  VA   - Mayer's total valence
  BVA  - Mayer's bonded valence
  FA   - Mayer's free valence

  ATOM       NA         ZA         QA         VA         BVA        FA
  0 C      6.0336     6.0000    -0.0336     4.0054     4.0054     0.0000
  1 C      6.0477     6.0000    -0.0477     4.0806     4.0806    -0.0000
  2 H      0.9787     1.0000     0.0213     0.9918     0.9918    -0.0000
  3 H      0.9778     1.0000     0.0222     0.9927     0.9927    -0.0000
  4 H      0.9746     1.0000     0.0254     0.9875     0.9875    -0.0000
  5 C      6.0472     6.0000    -0.0472     4.0480     4.0480    -0.0000
  6 H      0.9822     1.0000     0.0178     0.9767     0.9767     0.0000
  7 H      0.9902     1.0000     0.0098     0.9811     0.9811    -0.0000
  8 C      5.9308     6.0000     0.0692     4.0517     4.0517    -0.0000
  9 H      0.9814     1.0000     0.0186     0.9936     0.9936    -0.0000
 10 H      0.9944     1.0000     0.0056     0.9831     0.9831     0.0000
 11 N      7.2493     7.0000    -0.2493     3.0353     3.0353     0.0000
 12 H      1.0080     1.0000    -0.0080     0.9736     0.9736    -0.0000
 13 H      0.9899     1.0000     0.0101     0.9870     0.9870     0.0000
 14 H      0.9086     1.0000     0.0914     1.0002     1.0002     0.0000
 15 H      0.9057     1.0000     0.0943     0.9970     0.9970     0.0000

  Mayer bond orders larger than 0.100000
B(  0-C ,  1-C ) :   1.0808 B(  0-C ,  2-H ) :   0.9761 B(  0-C ,  3-H ) :   0.9766 
B(  0-C ,  4-H ) :   0.9732 B(  1-C ,  5-C ) :   1.0689 B(  1-C ,  6-H ) :   0.9554 
B(  1-C ,  7-H ) :   0.9532 B(  5-C ,  8-C ) :   1.0635 B(  5-C ,  9-H ) :   0.9506 
B(  5-C , 10-H ) :   0.9530 B(  8-C , 11-N ) :   1.0621 B(  8-C , 12-H ) :   0.9517 
B(  8-C , 13-H ) :   0.9517 B( 11-N , 14-H ) :   0.9756 B( 11-N , 15-H ) :   0.9722 


-------
TIMINGS
-------

Total SCF time: 0 days 0 hours 0 min 27 sec 

Total time                  ....      27.709 sec
Sum of individual times     ....      26.593 sec  ( 96.0%)

Fock matrix formation       ....      24.225 sec  ( 87.4%)
  Split-RI-J                ....       1.143 sec  (  4.7% of F)
  Chain of spheres X        ....      17.967 sec  ( 74.2% of F)
  XC integration            ....       4.406 sec  ( 18.2% of F)
    Basis function eval.    ....       1.348 sec  ( 30.6% of XC)
    Density eval.           ....       0.655 sec  ( 14.9% of XC)
    XC-Functional eval.     ....       0.616 sec  ( 14.0% of XC)
    XC-Potential eval.      ....       0.760 sec  ( 17.2% of XC)
Diagonalization             ....       0.057 sec  (  0.2%)
Density matrix formation    ....       0.003 sec  (  0.0%)
Population analysis         ....       0.327 sec  (  1.2%)
Initial guess               ....       0.086 sec  (  0.3%)
Orbital Transformation      ....       0.000 sec  (  0.0%)
Orbital Orthonormalization  ....       0.000 sec  (  0.0%)
DIIS solution               ....       0.048 sec  (  0.2%)
SOSCF solution              ....       0.069 sec  (  0.2%)
Grid generation             ....       1.778 sec  (  6.4%)

Maximum memory used throughout the entire SCF-calculation: 49.8 MB


-------------------------------------------------------------------------------
                          DFT DISPERSION CORRECTION                            
                                                                               
                                 DFTD4 V2.5                                    
-------------------------------------------------------------------------------
The WB97X functional is recognized
Active option DFTDOPT                   ...         5   

Starting D4
-------------------------   ----------------
Dispersion correction           -0.001394029
-------------------------   ----------------


-------------------------   --------------------
FINAL SINGLE POINT ENERGY      -213.588164859691
-------------------------   --------------------



           ************************************************************
           *        Program running with 4 parallel MPI-processes     *
           *              working on a common directory               *
           ************************************************************
------------------------------------------------------------------------------
                         ORCA SCF GRADIENT CALCULATION
------------------------------------------------------------------------------

 ... reading COSX grid (gridx3)
Gradient of the Kohn-Sham DFT energy:
Kohn-Sham wavefunction type      ... RKS
Hartree-Fock exchange scaling    ...    0.158
Number of operators              ...    1
Number of atoms                  ...   16
Basis set dimensions             ...  125
Integral neglect threshold       ... 2.5e-11
Integral primitive cutoff        ... 2.5e-12
SHARK Integral package           ... ON

Nuc. rep. gradient       (SHARK) ... done (  0.0 sec)
HCore & Overlap gradient (SHARK) ... done (  0.0 sec)
RI-J gradient            (SHARK) ... done (  0.2 sec)
COSX-gradient                    ... done (  3.4 sec)
Exchange-correlation gradient    ... done
Dispersion correction            ... Starting D4
Starting D4
Starting D4
Starting D4


------------------- 
Dispersion Gradient 
------------------- 
   1  :   -0.000026822    0.000007175    0.000011420
   2  :   -0.000016796   -0.000009196   -0.000008128
   3  :   -0.000007318   -0.000001835    0.000000743
   4  :   -0.000008544    0.000000412   -0.000002149
   5  :   -0.000006254    0.000000871    0.000000879
   6  :    0.000001395    0.000001231   -0.000011524
   7  :   -0.000004354    0.000000385    0.000001174
   8  :   -0.000004888    0.000003666   -0.000001055
   9  :    0.000003028   -0.000008451    0.000008964
  10  :    0.000001416   -0.000004270    0.000001786
  11  :    0.000001369    0.000000685    0.000001845
  12  :    0.000035124    0.000008412    0.000000667
  13  :    0.000007053    0.000003967   -0.000002276
  14  :    0.000007758    0.000000090   -0.000005500
  15  :    0.000007471   -0.000001689   -0.000001270
  16  :    0.000010358   -0.000001455    0.000004423

  |G| =    0.000054070

done

------------------
CARTESIAN GRADIENT
------------------

   1   C   :   -0.004084051    0.008289328    0.008271719
   2   C   :   -0.004715744   -0.010177888   -0.002886153
   3   H   :    0.000852408   -0.009779536    0.000921950
   4   H   :   -0.003090707   -0.000228046   -0.009511739
   5   H   :    0.008757549    0.001398093   -0.002406614
   6   C   :    0.003693596    0.008435232   -0.012512627
   7   H   :    0.003913241    0.001931470    0.005865601
   8   H   :    0.000821878    0.007941581    0.000074736
   9   C   :   -0.007122041   -0.004372020    0.011436077
  10   H   :   -0.001330143   -0.007801107    0.002862792
  11   H   :   -0.003626301    0.002050743    0.006601783
  12   N   :    0.005843023   -0.002218068   -0.001438867
  13   H   :    0.002616298    0.003754734   -0.002242891
  14   H   :    0.003954946   -0.001383663   -0.005994009
  15   H   :   -0.002976026    0.001935413    0.001477161
  16   H   :   -0.003641234    0.000567127   -0.000682280

Difference to translation invariance:
           :   -0.0001333081    0.0003433931   -0.0001633603

Difference to rotation invariance:
           :   -0.0001893052    0.0011149221   -0.0003161471

Norm of the cartesian gradient     ...    0.0375508862
RMS gradient                       ...    0.0054200036
MAX gradient                       ...    0.0125126272

-------
TIMINGS
-------

Total SCF gradient time            ...        5.034 sec

One electron gradient       ....       0.038 sec  (  0.8%)
RI-J Coulomb gradient       ....       0.224 sec  (  4.4%)
COSX gradient               ....       3.413 sec  ( 67.8%)
XC gradient                 ....       1.065 sec  ( 21.1%)

Maximum memory used throughout the entire SCFGRAD-calculation: 38.3 MB
------------------------------------------------------------------------------
                         ORCA GEOMETRY RELAXATION STEP
------------------------------------------------------------------------------

Reading the OPT-File                    .... done
Getting information on internals        .... done
Copying old internal coords+grads       .... done
Making the new internal coordinates     .... (new redundants).... done
Validating the new internal coordinates .... (new redundants).... done
Calculating the B-matrix                .... done
Calculating the G,G- and P matrices     .... done
Transforming gradient to internals      .... done
Projecting the internal gradient        .... done
Number of atoms                         ....  16
Number of internal coordinates          ....  75
Current Energy                          ....  -213.588164860 Eh
Current gradient norm                   ....     0.037550886 Eh/bohr
Maximum allowed component of the step   ....  0.300
Current trust radius                    ....  0.300
Evaluating the initial hessian          ....  (Almloef) done
Projecting the Hessian                  .... done
Forming the augmented Hessian           .... done
Diagonalizing the augmented Hessian     .... done
Last element of RFO vector              ....  0.994824163
Lowest eigenvalues of augmented Hessian:
 -0.002121452  0.011290360  0.011341373  0.011574133  0.016241839
Length of the computed step             ....  0.102140102
The final length of the internal step   ....  0.102140102
Converting the step to cartesian space:
 Initial RMS(Int)=    0.0117941230
Transforming coordinates:
 Iter   0:  RMS(Cart)=    0.0183727994 RMS(Int)=    0.7247145633
 Iter   1:  RMS(Cart)=    0.0001234602 RMS(Int)=    0.0001077141
 Iter   2:  RMS(Cart)=    0.0000016617 RMS(Int)=    0.0000013866
 Iter   3:  RMS(Cart)=    0.0000000295 RMS(Int)=    0.0000000261
done
Storing new coordinates                 .... done

                                .--------------------.
          ----------------------|Geometry convergence|-------------------------
          Item                value                   Tolerance       Converged
          ---------------------------------------------------------------------
          RMS gradient        0.0030101996            0.0001000000      NO
          MAX gradient        0.0098226158            0.0003000000      NO
          RMS step            0.0117941230            0.0020000000      NO
          MAX step            0.0267960189            0.0040000000      NO
          ........................................................
          Max(Bonds)      0.0142      Max(Angles)    0.78
          Max(Dihed)        1.41      Max(Improp)    0.00
          ---------------------------------------------------------------------

The optimization has not yet converged - more geometry cycles are needed


    ---------------------------------------------------------------------------
                         Redundant Internal Coordinates
                            (Angstroem and degrees)

        Definition                    Value    dE/dq     Step     New-Value
    ----------------------------------------------------------------------------
     1. B(C   1,C   0)                1.5246 -0.003344  0.0046    1.5292   
     2. B(H   2,C   0)                1.0875 -0.009761  0.0141    1.1017   
     3. B(H   3,C   0)                1.0867 -0.009823  0.0142    1.1009   
     4. B(H   4,C   0)                1.0876 -0.008893  0.0129    1.1005   
     5. B(C   5,C   1)                1.5284 -0.002026  0.0028    1.5313   
     6. B(H   6,C   1)                1.0923 -0.006908  0.0102    1.1025   
     7. B(H   7,C   1)                1.0929 -0.007598  0.0112    1.1041   
     8. B(C   8,C   5)                1.5275  0.001597 -0.0022    1.5252   
     9. B(H   9,C   5)                1.0909 -0.008205  0.0120    1.1029   
    10. B(H  10,C   5)                1.0934 -0.007611  0.0113    1.1046   
    11. B(N  11,C   8)                1.4577 -0.000495  0.0006    1.4583   
    12. B(H  12,C   8)                1.1050 -0.004173  0.0064    1.1114   
    13. B(H  13,C   8)                1.0928 -0.006757  0.0100    1.1028   
    14. B(H  14,N  11)                1.0146 -0.003204  0.0040    1.0186   
    15. B(H  15,N  11)                1.0136 -0.002843  0.0035    1.0171   
    16. A(H   3,C   0,H   4)          108.16  0.002167   -0.36    107.80   
    17. A(C   1,C   0,H   4)          110.22 -0.002637    0.51    110.73   
    18. A(C   1,C   0,H   2)          110.37 -0.001254    0.22    110.59   
    19. A(H   2,C   0,H   3)          108.46  0.001853   -0.40    108.06   
    20. A(H   2,C   0,H   4)          108.45  0.001923   -0.33    108.11   
    21. A(C   1,C   0,H   3)          111.10 -0.001829    0.33    111.43   
    22. A(C   0,C   1,C   5)          113.28 -0.001246    0.43    113.71   
    23. A(H   6,C   1,H   7)          107.58  0.001098   -0.78    106.80   
    24. A(C   5,C   1,H   7)          109.27  0.000364   -0.08    109.19   
    25. A(C   0,C   1,H   7)          109.43  0.000136   -0.03    109.40   
    26. A(C   5,C   1,H   6)          108.35 -0.000161    0.21    108.56   
    27. A(C   0,C   1,H   6)          108.77 -0.000075    0.19    108.96   
    28. A(C   8,C   5,H   9)          108.59  0.001136   -0.25    108.35   
    29. A(C   1,C   5,H   9)          109.90 -0.000145    0.12    110.02   
    30. A(C   1,C   5,C   8)          113.37 -0.002075    0.52    113.89   
    31. A(H   9,C   5,H  10)          107.60  0.000602   -0.59    107.01   
    32. A(C   8,C   5,H  10)          108.32  0.000602   -0.05    108.28   
    33. A(C   1,C   5,H  10)          108.89  0.000019    0.17    109.06   
    34. A(H  12,C   8,H  13)          107.81  0.000990   -0.71    107.11   
    35. A(N  11,C   8,H  13)          107.06 -0.000861    0.36    107.42   
    36. A(C   5,C   8,H  13)          110.01  0.001127   -0.34    109.67   
    37. A(N  11,C   8,H  12)          112.97 -0.001111    0.49    113.47   
    38. A(C   5,C   8,H  12)          108.96  0.001140   -0.26    108.70   
    39. A(C   5,C   8,N  11)          109.97 -0.001215    0.41    110.39   
    40. A(H  14,N  11,H  15)          107.55  0.002424   -0.53    107.02   
    41. A(C   8,N  11,H  15)          109.98 -0.002968    0.47    110.45   
    42. A(C   8,N  11,H  14)          109.68 -0.001489    0.22    109.90   
    43. D(H   6,C   1,C   0,H   4)     54.85  0.000760   -0.18     54.67   
    44. D(C   5,C   1,C   0,H   3)    -64.73 -0.000505    0.59    -64.14   
    45. D(H   7,C   1,C   0,H   3)     57.46 -0.000794    0.76     58.23   
    46. D(H   6,C   1,C   0,H   2)    -64.92  0.000853   -0.23    -65.15   
    47. D(C   5,C   1,C   0,H   4)    175.40 -0.000304    0.49    175.89   
    48. D(H   6,C   1,C   0,H   3)    174.72  0.000559   -0.08    174.64   
    49. D(H   7,C   1,C   0,H   4)    -62.41 -0.000593    0.66    -61.75   
    50. D(C   5,C   1,C   0,H   2)     55.63 -0.000211    0.45     56.07   
    51. D(H   7,C   1,C   0,H   2)    177.82 -0.000500    0.61    178.44   
    52. D(H   9,C   5,C   1,H   6)     67.60 -0.000371   -0.55     67.04   
    53. D(C   8,C   5,C   1,H   7)    -53.75  0.000974   -1.27    -55.02   
    54. D(C   8,C   5,C   1,H   6)   -170.68 -0.000447   -0.41   -171.10   
    55. D(C   8,C   5,C   1,C   0)     68.53  0.000560   -1.08     67.46   
    56. D(H   9,C   5,C   1,H   7)   -175.47  0.001050   -1.41   -176.88   
    57. D(H  10,C   5,C   1,H   7)     66.91  0.000394   -0.87     66.03   
    58. D(H  10,C   5,C   1,H   6)    -50.03 -0.001027   -0.01    -50.04   
    59. D(H  10,C   5,C   1,C   0)   -170.82 -0.000019   -0.67   -171.49   
    60. D(H   9,C   5,C   1,C   0)    -53.19  0.000637   -1.21    -54.40   
    61. D(H  13,C   8,C   5,H   9)     59.41 -0.002027    1.00     60.42   
    62. D(H  13,C   8,C   5,C   1)    -63.03 -0.001269    0.67    -62.36   
    63. D(H  12,C   8,C   5,H  10)    -66.01  0.002161   -1.06    -67.07   
    64. D(H  12,C   8,C   5,H   9)    177.41  0.000510   -0.20    177.20   
    65. D(H  12,C   8,C   5,C   1)     54.96  0.001268   -0.54     54.42   
    66. D(N  11,C   8,C   5,H  10)     58.31  0.000730   -0.34     57.98   
    67. D(N  11,C   8,C   5,H   9)    -58.26 -0.000922    0.51    -57.75   
    68. D(H  13,C   8,C   5,H  10)    175.99 -0.000376    0.15    176.14   
    69. D(N  11,C   8,C   5,C   1)    179.29 -0.000164    0.18    179.47   
    70. D(H  15,N  11,C   8,C   5)   -179.61  0.000128   -0.45   -180.06   
    71. D(H  14,N  11,C   8,H  13)    178.97  0.000244   -0.72    178.25   
    72. D(H  14,N  11,C   8,H  12)     60.44  0.000228   -0.37     60.07   
    73. D(H  14,N  11,C   8,C   5)    -61.53  0.000411   -0.68    -62.21   
    74. D(H  15,N  11,C   8,H  13)     60.89 -0.000039   -0.49     60.40   
    75. D(H  15,N  11,C   8,H  12)    -57.64 -0.000056   -0.14    -57.78   
    ----------------------------------------------------------------------------

         *************************************************************
         *                GEOMETRY OPTIMIZATION CYCLE   2            *
         *************************************************************
---------------------------------
CARTESIAN COORDINATES (ANGSTROEM)
---------------------------------
  C     -2.131690    0.335428    0.591526
  C     -1.387778   -0.448475   -0.490420
  H     -2.145044    1.410428    0.351004
  H     -1.655867    0.211982    1.576595
  H     -3.173416   -0.009341    0.675572
  C      0.041646    0.043474   -0.734365
  H     -1.950071   -0.375690   -1.435964
  H     -1.361782   -1.517631   -0.216168
  C      0.988045   -0.203345    0.435999
  H      0.036675    1.124128   -0.954815
  H      0.451525   -0.466073   -1.624627
  N      2.326201    0.281440    0.118190
  H      0.958820   -1.283531    0.696086
  H      0.636876    0.352977    1.321043
  H      2.699790   -0.229713   -0.679735
  H      2.957850    0.118199    0.898441

----------------------------
CARTESIAN COORDINATES (A.U.)
----------------------------
  NO LB      ZA    FRAG     MASS         X           Y           Z
   0 C     6.0000    0    12.011   -4.028311    0.633867    1.117821
   1 C     6.0000    0    12.011   -2.622521   -0.847494   -0.926759
   2 H     1.0000    0     1.008   -4.053547    2.665322    0.663302
   3 H     1.0000    0     1.008   -3.129135    0.400587    2.979332
   4 H     1.0000    0     1.008   -5.996888   -0.017651    1.276647
   5 C     6.0000    0    12.011    0.078700    0.082154   -1.387749
   6 H     1.0000    0     1.008   -3.685101   -0.709952   -2.713578
   7 H     1.0000    0     1.008   -2.573396   -2.867908   -0.408499
   8 C     6.0000    0    12.011    1.867134   -0.384267    0.823920
   9 H     1.0000    0     1.008    0.069306    2.124294   -1.804338
  10 H     1.0000    0     1.008    0.853259   -0.880750   -3.070101
  11 N     7.0000    0    14.007    4.395884    0.531845    0.223347
  12 H     1.0000    0     1.008    1.811908   -2.425521    1.315411
  13 H     1.0000    0     1.008    1.203521    0.667031    2.496409
  14 H     1.0000    0     1.008    5.101863   -0.434095   -1.284514
  15 H     1.0000    0     1.008    5.589527    0.223364    1.697807

--------------------------------
INTERNAL COORDINATES (ANGSTROEM)
--------------------------------
 C      0   0   0     0.000000000000     0.00000000     0.00000000
 C      1   0   0     1.529220136378     0.00000000     0.00000000
 H      1   2   0     1.101659177740   110.58756990     0.00000000
 H      1   2   3     1.100912357570   111.42802294   239.79018151
 H      1   2   3     1.100509882338   110.72732938   119.81721227
 C      2   1   3     1.531266475643   113.71185046    56.07418286
 H      2   1   3     1.102508242597   108.95592065   294.85007542
 H      2   1   3     1.104076750041   109.39696580   178.43561144
 C      6   2   1     1.525235854596   113.89066663    67.45527977
 H      6   2   1     1.102921082385   110.02426836   305.59851538
 H      6   2   1     1.104629229263   109.06103847   188.51011575
 N      9   6   2     1.458315008457   110.38633361   179.46937279
 H      9   6   2     1.111440063216   108.69438527    54.42421001
 H      9   6   2     1.102776431239   109.67010527   297.63641925
 H     12   9   6     1.018592921382   109.90403209   297.78886386
 H     12   9   6     1.017063618456   110.44680735   179.93964476

---------------------------
INTERNAL COORDINATES (A.U.)
---------------------------
 C      0   0   0     0.000000000000     0.00000000     0.00000000
 C      1   0   0     2.889807256232     0.00000000     0.00000000
 H      1   2   0     2.081834138850   110.58756990     0.00000000
 H      1   2   3     2.080422853257   111.42802294   239.79018151
 H      1   2   3     2.079662285292   110.72732938   119.81721227
 C      2   1   3     2.893674277020   113.71185046    56.07418286
 H      2   1   3     2.083438638900   108.95592065   294.85007542
 H      2   1   3     2.086402688406   109.39696580   178.43561144
 C      6   2   1     2.882278054823   113.89066663    67.45527977
 H      6   2   1     2.084218793035   110.02426836   305.59851538
 H      6   2   1     2.087446722831   109.06103847   188.51011575
 N      9   6   2     2.755815982970   110.38633361   179.46937279
 H      9   6   2     2.100317333746   108.69438527    54.42421001
 H      9   6   2     2.083945441984   109.67010527   297.63641925
 H     12   9   6     1.924861663362   109.90403209   297.78886386
 H     12   9   6     1.921971699656   110.44680735   179.93964476



           ************************************************************
           *        Program running with 4 parallel MPI-processes     *
           *              working on a common directory               *
           ************************************************************
------------------------------------------------------------------------------
                   ___                                                        
                  /   \      - P O W E R E D   B Y -                         
                 /     \                                                     
                 |  |  |   _    _      __       _____    __    __             
                 |  |  |  | |  | |    /  \     |  _  \  |  |  /  |          
                  \  \/   | |  | |   /    \    | | | |  |  | /  /          
                 / \  \   | |__| |  /  /\  \   | |_| |  |  |/  /          
                |  |  |   |  __  | /  /__\  \  |    /   |      \           
                |  |  |   | |  | | |   __   |  |    \   |  |\   \          
                \     /   | |  | | |  |  |  |  | |\  \  |  | \   \       
                 \___/    |_|  |_| |__|  |__|  |_| \__\ |__|  \__/        
                                                                              
[...]
     37       0.054535   0.030133  -0.054731  -0.017183   0.001935   0.204178
     38       0.222990   0.103010  -0.179438  -0.051405   0.012001   0.572757
     39       0.464475   0.072898  -0.123727   0.035551   0.047181  -0.178767
     40       0.007702  -0.075041   0.098465   0.057514   0.014796  -0.599402
     41       0.143440   0.071575  -0.094565  -0.025841   0.000673   0.291210
     42      -0.135446  -0.023847   0.045034  -0.003558  -0.016411  -0.029094
     43      -0.052494  -0.005744   0.011453  -0.008722  -0.006589  -0.002614
     44      -0.006233  -0.004328   0.008197   0.008909   0.001094  -0.018207
     45       0.177605   0.023706  -0.054066   0.008001   0.024808  -0.052436
     46       0.095112   0.014800  -0.032453  -0.003629   0.007627  -0.003755
     47      -0.078250  -0.008948   0.022649  -0.007268  -0.012142   0.029321
                 36         37         38         39         40         41    
      0      -0.000218   0.000122   0.001735  -0.020516   0.009951  -0.003847
      1       0.000431   0.000399   0.001738   0.024937  -0.021639   0.004337
      2       0.000730  -0.000037   0.000508   0.029419  -0.018957  -0.001299
      3       0.000335   0.000009  -0.012623   0.011833   0.015027  -0.003019
      4      -0.000818   0.001600  -0.027034   0.029171   0.049236  -0.000427
      5      -0.003205   0.000136  -0.017294   0.009298   0.015570  -0.005279
      6      -0.000567  -0.000493   0.000274   0.002694  -0.004101  -0.000333
      7       0.000442  -0.004173  -0.011952  -0.514671   0.371682  -0.060989
      8       0.000369   0.000627   0.003223   0.100230  -0.071444   0.012143
      9       0.004950  -0.000164  -0.002131  -0.211921   0.131863   0.004134
     10       0.000535  -0.001285   0.001717   0.071396  -0.046058  -0.000906
     11      -0.001693  -0.000695  -0.007236  -0.412169   0.260765   0.008997
     12      -0.000515   0.000142  -0.019799   0.442869  -0.235981   0.035999
     13      -0.000153  -0.000026  -0.007055   0.150221  -0.077390   0.012790
     14      -0.005384  -0.000210   0.000790  -0.029592   0.019582  -0.004972
     15       0.001661  -0.001546  -0.022682  -0.006381  -0.010634   0.005091
     16      -0.002593   0.002642  -0.005624  -0.006410  -0.012130  -0.035835
     17       0.004858   0.000010   0.057948   0.016326   0.025612  -0.005196
     18      -0.012298   0.000094   0.163696  -0.127156  -0.182660   0.039582
     19      -0.002234   0.002745  -0.040891   0.031433   0.044117  -0.007793
     20       0.004401  -0.003543   0.279128  -0.206258  -0.302662   0.065503
     21       0.000329   0.003806  -0.006442   0.003938   0.008453   0.000036
     22      -0.000143  -0.017579   0.362446  -0.379955  -0.616207   0.008816
     23       0.000957   0.004562  -0.081817   0.085531   0.134128  -0.002972
     24       0.002997  -0.004793   0.000083   0.001011  -0.001194  -0.023413
     25       0.025873  -0.069379  -0.003208  -0.002538   0.001121   0.050368
     26      -0.009609   0.033138  -0.003674  -0.004001  -0.000301   0.055970
     27       0.010079  -0.002004  -0.002220  -0.001345   0.001339   0.005140
     28      -0.001695  -0.030123   0.429065   0.170068   0.288177   0.350179
     29       0.008430   0.007688  -0.090474  -0.037893  -0.065123  -0.083619
     30      -0.020209   0.010588   0.273969   0.072234   0.115200  -0.067765
     31       0.003079  -0.011177  -0.367155  -0.095855  -0.147098   0.081544
     32      -0.001176  -0.020201  -0.586896  -0.151518  -0.235243   0.139707
     33      -0.080955  -0.001620   0.000049   0.000004   0.000181   0.000604
     34      -0.000125  -0.000354   0.000156  -0.000010   0.000025  -0.000651
     35       0.009531   0.000185  -0.000089   0.000039   0.000138  -0.001314
     36       0.033156   0.030196   0.001375   0.001348   0.001962  -0.006018
     37       0.036827   0.944129   0.010845  -0.000959  -0.009986  -0.118519
     38       0.010659  -0.260656  -0.004024   0.000578   0.004466   0.043875
     39      -0.042582   0.058209  -0.017099  -0.017206   0.002318   0.286447
     40      -0.049310  -0.109861   0.029263   0.030654  -0.004994  -0.484349
     41       0.021663  -0.127309   0.042745   0.043289  -0.006552  -0.698323
     42       0.616033  -0.002457   0.004472   0.001360   0.001355  -0.003604
     43      -0.003944   0.000789  -0.001900  -0.000683  -0.000339   0.010205
     44       0.349191  -0.007693   0.000206  -0.000145   0.000164   0.008431
     45       0.479670  -0.001420   0.002250   0.000582   0.001037  -0.001876
     46      -0.254474   0.002883   0.000095   0.000369   0.000100  -0.001698
     47      -0.433752   0.008698  -0.001102  -0.000801  -0.001244   0.002870
                 42         43         44         45         46         47    
      0       0.006926  -0.000886  -0.010866  -0.081741  -0.000016  -0.000031
      1      -0.009244   0.007372  -0.075440  -0.017402   0.000021  -0.000006
      2       0.012759  -0.007405   0.050624  -0.040072  -0.000027  -0.000031
      3      -0.031667   0.016695   0.005577  -0.005041  -0.000024   0.000046
      4       0.039022  -0.029941  -0.013140   0.002332  -0.000059   0.000097
      5      -0.059040   0.031874   0.011334  -0.008502   0.000103  -0.000031
      6       0.000621  -0.002412  -0.008622  -0.012807   0.000013   0.000005
      7       0.101810  -0.066322   0.729814   0.070044  -0.000068   0.000054
      8      -0.017889   0.014044  -0.131245  -0.020060   0.000019  -0.000019
      9      -0.069127   0.039537  -0.230976   0.274321   0.000116   0.000200
     10       0.021437  -0.011830   0.063227  -0.096630  -0.000108  -0.000060
     11      -0.133622   0.075116  -0.448583   0.563205   0.000221   0.000373
     12      -0.016674  -0.027570   0.363859   0.713775  -0.000082  -0.000024
     13      -0.008865  -0.006044   0.108654   0.235990   0.000021   0.000084
     14       0.004056   0.000770  -0.021047  -0.063416   0.000028   0.000153
     15       0.010023   0.012657   0.000402   0.000680  -0.000090  -0.000015
     16      -0.038356  -0.071638  -0.002461  -0.000418   0.000254  -0.000033
     17      -0.014862  -0.013705  -0.000052  -0.000860   0.000009   0.000378
     18       0.375042  -0.194859  -0.063804   0.055510   0.000200  -0.000191
     19      -0.071456   0.036808   0.012569  -0.010058   0.000124  -0.000109
     20       0.619948  -0.317760  -0.108406   0.094582  -0.000140   0.000100
     21       0.000340   0.002456  -0.002810   0.000617   0.000028  -0.000031
     22      -0.399849   0.320523   0.138056  -0.020705   0.000522  -0.000518
     23       0.078877  -0.065697  -0.027029   0.004465  -0.000116   0.000145
     24       0.006425   0.007870  -0.000874   0.001164  -0.001332   0.000541
     25      -0.015042  -0.021753   0.001673  -0.002720  -0.003378  -0.000247
     26      -0.014191  -0.019301   0.002441  -0.002759   0.000204  -0.001524
     27       0.001097   0.005477   0.002979   0.000060  -0.000194   0.000319
     28       0.312355   0.653923   0.027102   0.000471   0.000004   0.000276
     29      -0.076856  -0.157861  -0.007296  -0.000485  -0.000197  -0.000190
     30      -0.117568  -0.153284  -0.004262  -0.004150   0.001895   0.001740
     31       0.149560   0.195307   0.005453   0.005335  -0.001290  -0.000334
     32       0.253256   0.330364   0.007190   0.008718  -0.000693   0.000357
     33      -0.000169  -0.000169   0.000021  -0.000081   0.048722  -0.017923
     34       0.000214   0.000545  -0.000002   0.000073  -0.031070  -0.019760
     35       0.000397   0.000512  -0.000156   0.000204  -0.007789  -0.076130
     36       0.001939   0.000144  -0.000990   0.000435  -0.003435   0.000583
     37       0.047797   0.082390   0.000486   0.007638   0.007023   0.000244
     38      -0.014982  -0.027552   0.000129  -0.002614  -0.000698   0.000833
     39      -0.072601  -0.098382   0.013151  -0.014354  -0.000975  -0.003232
     40       0.126858   0.171738  -0.020845   0.024367   0.006456   0.005411
     41       0.182716   0.247206  -0.029175   0.035679   0.006052   0.008181
     42      -0.001483  -0.001987  -0.000016  -0.000252  -0.288532  -0.238038
     43      -0.002367  -0.004136   0.000520  -0.000645   0.423276   0.346937
     44      -0.002532  -0.003373   0.000615  -0.000712   0.594211   0.445133
     45      -0.000428   0.000270  -0.000150   0.000057  -0.368638   0.481271
     46       0.001203   0.001807  -0.000145   0.000153   0.033444  -0.075157
     47      -0.000835  -0.000648   0.000272  -0.000282  -0.493890   0.617202


-----------
IR SPECTRUM
-----------

 Mode   freq       eps      Int      T**2         TX        TY        TZ
       cm**-1   L/(mol*cm) km/mol    a.u.
----------------------------------------------------------------------------
  6:     96.99   0.000851    4.30  0.002737  ( 0.021133 -0.009395 -0.046925)
  7:    130.63   0.000051    0.26  0.000122  ( 0.008220  0.004937  0.005459)
  8:    222.55   0.000429    2.17  0.000602  (-0.002588 -0.005438 -0.023775)
  9:    266.93   0.006846   34.60  0.008003  (-0.030813 -0.028359 -0.079055)
 10:    292.82   0.000282    1.43  0.000301  ( 0.012978  0.006741  0.009327)
 11:    358.39   0.001899    9.59  0.001653  (-0.027180 -0.018442 -0.023964)
 12:    502.24   0.000748    3.78  0.000465  ( 0.016923  0.011133  0.007377)
 13:    753.20   0.000877    4.43  0.000364  ( 0.011303 -0.011298  0.010398)
 14:    797.44   0.005718   28.90  0.002238  ( 0.025547  0.038427 -0.010413)
 15:    841.09   0.022423  113.32  0.008320  (-0.046137 -0.072927  0.029540)
 16:    899.06   0.000218    1.10  0.000076  (-0.000089  0.003763 -0.007837)
 17:    963.85   0.000397    2.01  0.000129  (-0.007237  0.008708 -0.000582)
 18:    977.34   0.001655    8.36  0.000528  (-0.012635 -0.018834  0.003733)
 19:   1071.37   0.000181    0.92  0.000053  ( 0.004522  0.005572 -0.001131)
 20:   1107.62   0.000765    3.87  0.000216  ( 0.012855  0.006893  0.001700)
 21:   1145.51   0.002854   14.42  0.000777  ( 0.026506  0.008148 -0.002903)
 22:   1166.38   0.001282    6.48  0.000343  ( 0.001367 -0.017914  0.004483)
 23:   1204.03   0.000044    0.22  0.000011  ( 0.001735  0.002712  0.001009)
 24:   1266.81   0.000315    1.59  0.000078  ( 0.008058 -0.003523 -0.000535)
 25:   1312.43   0.000102    0.52  0.000024  ( 0.001426  0.002232  0.004155)
 26:   1333.30   0.000887    4.48  0.000208  ( 0.014308  0.001501  0.000853)
 27:   1354.92   0.000174    0.88  0.000040  ( 0.006240 -0.001111  0.000017)
 28:   1382.46   0.000094    0.47  0.000021  (-0.003970 -0.002218 -0.000732)
 29:   1419.30   0.001335    6.75  0.000293  (-0.011317  0.008557  0.009603)
 30:   1452.19   0.002194   11.09  0.000471  (-0.021565 -0.002518  0.000221)
 31:   1466.15   0.000248    1.25  0.000053  ( 0.004694  0.005510  0.000595)
 32:   1472.81   0.000169    0.86  0.000036  ( 0.002227  0.005505 -0.000775)
 33:   1480.66   0.001765    8.92  0.000372  ( 0.000793 -0.011354  0.015570)
 34:   1487.74   0.001247    6.30  0.000262  (-0.013026 -0.009476 -0.001459)
 35:   1505.73   0.000277    1.40  0.000057  ( 0.006626  0.001849  0.003186)
 36:   1644.91   0.005494   27.77  0.001042  ( 0.028659 -0.014493 -0.003305)
 37:   2970.68   0.016243   82.09  0.001706  (-0.011928 -0.034028  0.020152)
 38:   3056.73   0.005356   27.07  0.000547  (-0.014432 -0.012629  0.013380)
 39:   3062.96   0.008129   41.08  0.000828  (-0.007370  0.017611  0.021534)
 40:   3066.16   0.001906    9.63  0.000194  ( 0.007368  0.007736  0.008936)
 41:   3099.90   0.002625   13.26  0.000264  (-0.008090  0.005819  0.012843)
 42:   3113.77   0.004810   24.31  0.000482  (-0.001765 -0.006050 -0.021032)
 43:   3122.90   0.009528   48.15  0.000952  ( 0.011393 -0.028576 -0.002384)
 44:   3157.33   0.006201   31.34  0.000613  (-0.001193 -0.019707  0.014938)
 45:   3164.41   0.005709   28.85  0.000563  (-0.020605 -0.003594 -0.011202)
 46:   3561.85   0.000114    0.57  0.000010  (-0.000098  0.002854 -0.001342)
 47:   3647.01   0.000366    1.85  0.000031  ( 0.000964  0.000971  0.005429)

* The epsilon (eps) is given for a Dirac delta lineshape.
** The dipole moment derivative (T) already includes vibrational overlap.

The first frequency considered to be a vibration is 6
The total number of vibrations considered is 42


--------------------------
THERMOCHEMISTRY AT 298.15K
--------------------------

Temperature         ... 298.15 K
Pressure            ... 1.00 atm
Total Mass          ... 73.14 AMU

Throughout the following assumptions are being made:
  (1) The electronic state is orbitally nondegenerate
  (2) There are no thermally accessible electronically excited states
  (3) Hindered rotations indicated by low frequency modes are not
      treated as such but are treated as vibrations and this may
      cause some error
  (4) All equations used are the standard statistical mechanics
      equations for an ideal gas
  (5) All vibrations are strictly harmonic

freq.      96.99  E(vib)   ...       0.46 
freq.     130.63  E(vib)   ...       0.43 
freq.     222.55  E(vib)   ...       0.33 
freq.     266.93  E(vib)   ...       0.29 
freq.     292.82  E(vib)   ...       0.27 
freq.     358.39  E(vib)   ...       0.22 
freq.     502.24  E(vib)   ...       0.14 
freq.     753.20  E(vib)   ...       0.06 
freq.     797.44  E(vib)   ...       0.05 
freq.     841.09  E(vib)   ...       0.04 
freq.     899.06  E(vib)   ...       0.03 
freq.     963.85  E(vib)   ...       0.03 
freq.     977.34  E(vib)   ...       0.03 
freq.    1071.37  E(vib)   ...       0.02 
freq.    1107.62  E(vib)   ...       0.02 
freq.    1145.51  E(vib)   ...       0.01 
freq.    1166.38  E(vib)   ...       0.01 
freq.    1204.03  E(vib)   ...       0.01 
freq.    1266.81  E(vib)   ...       0.01 
freq.    1312.43  E(vib)   ...       0.01 
freq.    1333.30  E(vib)   ...       0.01 
freq.    1354.92  E(vib)   ...       0.01 
freq.    1382.46  E(vib)   ...       0.01 
freq.    1419.30  E(vib)   ...       0.00 
freq.    1452.19  E(vib)   ...       0.00 
freq.    1466.15  E(vib)   ...       0.00 
freq.    1472.81  E(vib)   ...       0.00 
freq.    1480.66  E(vib)   ...       0.00 
freq.    1487.74  E(vib)   ...       0.00 
freq.    1505.73  E(vib)   ...       0.00 
freq.    1644.91  E(vib)   ...       0.00 
freq.    2970.68  E(vib)   ...       0.00 
freq.    3056.73  E(vib)   ...       0.00 
freq.    3062.96  E(vib)   ...       0.00 
freq.    3066.16  E(vib)   ...       0.00 
freq.    3099.90  E(vib)   ...       0.00 
freq.    3113.77  E(vib)   ...       0.00 
freq.    3122.90  E(vib)   ...       0.00 
freq.    3157.33  E(vib)   ...       0.00 
freq.    3164.41  E(vib)   ...       0.00 
freq.    3561.85  E(vib)   ...       0.00 
freq.    3647.01  E(vib)   ...       0.00 

------------
INNER ENERGY
------------

The inner energy is: U= E(el) + E(ZPE) + E(vib) + E(rot) + E(trans)
    E(el)   - is the total energy from the electronic structure calculation
              = E(kin-el) + E(nuc-el) + E(el-el) + E(nuc-nuc)
    E(ZPE)  - the the zero temperature vibrational energy from the frequency calculation
    E(vib)  - the the finite temperature correction to E(ZPE) due to population
              of excited vibrational states
    E(rot)  - is the rotational thermal energy
    E(trans)- is the translational thermal energy

Summary of contributions to the inner energy U:
Electronic energy                ...   -213.58958015 Eh
Zero point energy                ...      0.15127151 Eh      94.92 kcal/mol
Thermal vibrational correction   ...      0.00398842 Eh       2.50 kcal/mol
Thermal rotational correction    ...      0.00141627 Eh       0.89 kcal/mol
Thermal translational correction ...      0.00141627 Eh       0.89 kcal/mol
-----------------------------------------------------------------------
Total thermal energy                   -213.43148767 Eh


Summary of corrections to the electronic energy:
(perhaps to be used in another calculation)
Total thermal correction                  0.00682097 Eh       4.28 kcal/mol
Non-thermal (ZPE) correction              0.15127151 Eh      94.92 kcal/mol
-----------------------------------------------------------------------
Total correction                          0.15809248 Eh      99.20 kcal/mol


--------
ENTHALPY
--------

The enthalpy is H = U + kB*T
                kB is Boltzmann's constant
Total free energy                 ...   -213.43148767 Eh 
Thermal Enthalpy correction       ...      0.00094421 Eh       0.59 kcal/mol
-----------------------------------------------------------------------
Total Enthalpy                    ...   -213.43054346 Eh


Note: Only C1 symmetry has been detected, increase convergence thresholds 
      if your molecule has a higher symmetry. Symmetry factor of 1.0 is   
      used for the rotational entropy correction. 
 

Note: Rotational entropy computed according to Herzberg 
Infrared and Raman Spectra, Chapter V,1, Van Nostrand Reinhold, 1945 
Point Group:  C1, Symmetry Number:   1  
Rotational constants in cm-1:     0.404394     0.077946     0.071400 

Vibrational entropy computed according to the QRRHO of S. Grimme
Chem.Eur.J. 2012 18 9955


-------
ENTROPY
-------

The entropy contributions are T*S = T*(S(el)+S(vib)+S(rot)+S(trans))
     S(el)   - electronic entropy
     S(vib)  - vibrational entropy
     S(rot)  - rotational entropy
     S(trans)- translational entropy
The entropies will be listed as multiplied by the temperature to get
units of energy

Electronic entropy                ...      0.00000000 Eh      0.00 kcal/mol
Vibrational entropy               ...      0.00680395 Eh      4.27 kcal/mol
Rotational entropy                ...      0.01238894 Eh      7.77 kcal/mol
Translational entropy             ...      0.01842822 Eh     11.56 kcal/mol
-----------------------------------------------------------------------
Final entropy term                ...      0.03762111 Eh     23.61 kcal/mol

In case the symmetry of your molecule has not been determined correctly
or in case you have a reason to use a different symmetry number we print 
out the resulting rotational entropy values for sn=1,12 :
 --------------------------------------------------------
|  sn= 1 | S(rot)=       0.01238894 Eh      7.77 kcal/mol|
|  sn= 2 | S(rot)=       0.01173449 Eh      7.36 kcal/mol|
|  sn= 3 | S(rot)=       0.01135165 Eh      7.12 kcal/mol|
|  sn= 4 | S(rot)=       0.01108003 Eh      6.95 kcal/mol|
|  sn= 5 | S(rot)=       0.01086934 Eh      6.82 kcal/mol|
|  sn= 6 | S(rot)=       0.01069720 Eh      6.71 kcal/mol|
|  sn= 7 | S(rot)=       0.01055165 Eh      6.62 kcal/mol|
|  sn= 8 | S(rot)=       0.01042557 Eh      6.54 kcal/mol|
|  sn= 9 | S(rot)=       0.01031436 Eh      6.47 kcal/mol|
|  sn=10 | S(rot)=       0.01021488 Eh      6.41 kcal/mol|
|  sn=11 | S(rot)=       0.01012489 Eh      6.35 kcal/mol|
|  sn=12 | S(rot)=       0.01004274 Eh      6.30 kcal/mol|
 --------------------------------------------------------


-------------------
GIBBS FREE ENERGY
-------------------

The Gibbs free energy is G = H - T*S

Total enthalpy                    ...   -213.43054346 Eh 
Total entropy correction          ...     -0.03762111 Eh    -23.61 kcal/mol
-----------------------------------------------------------------------
Final Gibbs free energy         ...   -213.46816457 Eh

For completeness - the Gibbs free energy minus the electronic energy
G-E(el)                           ...      0.12141558 Eh     76.19 kcal/mol


Timings for individual modules:

Sum of individual times         ...      236.845 sec (=   3.947 min)
GTO integral calculation        ...        5.721 sec (=   0.095 min)   2.4 %
SCF iterations                  ...      130.604 sec (=   2.177 min)  55.1 %
SCF Gradient evaluation         ...       31.975 sec (=   0.533 min)  13.5 %
Geometry relaxation             ...        0.498 sec (=   0.008 min)   0.2 %
Analytical frequency calculation...       68.048 sec (=   1.134 min)  28.7 %
                             ****ORCA TERMINATED NORMALLY****
TOTAL RUN TIME: 0 days 0 hours 4 minutes 0 seconds 49 msec
