
                                 *****************
                                 * O   R   C   A *
                                 *****************

                                            #,                                       
                                            ###                                      
                                            ####                                     
                                            #####                                    
                                            ######                                   
                                           ########,                                 
                                     ,,################,,,,,                         
                               ,,#################################,,                 
                          ,,##########################################,,             
                       ,#########################################, ''#####,          
                    ,#############################################,,   '####,        
                  ,##################################################,,,,####,       
                ,###########''''           ''''###############################       
              ,#####''   ,,,,##########,,,,          '''####'''          '####       
            ,##' ,,,,###########################,,,                        '##       
           ' ,,###''''                  '''############,,,                           
         ,,##''                                '''############,,,,        ,,,,,,###''
      ,#''                                            '''#######################'''  
     '                                                          ''''####''''         
             ,#######,   #######,   ,#######,      ##                                
            ,#'     '#,  ##    ##  ,#'     '#,    #''#        ######   ,####,        
            ##       ##  ##   ,#'  ##            #'  '#       #        #'  '#        
            ##       ##  #######   ##           ,######,      #####,   #    #        
            '#,     ,#'  ##    ##  '#,     ,#' ,#      #,         ##   #,  ,#        
             '#######'   ##     ##  '#######'  #'      '#     #####' # '####'        



                  #######################################################
                  #                        -***-                        #
                  #          Department of theory and spectroscopy      #
                  #    Directorship and core code : Frank Neese         #
                  #        Max Planck Institute fuer Kohlenforschung    #
                  #                Kaiser Wilhelm Platz 1               #
                  #                 D-45470 Muelheim/Ruhr               #
                  #                      Germany                        #
                  #                                                     #
                  #                  All rights reserved                #
                  #                        -***-                        #
                  #######################################################


                         Program Version 5.0.4 -  RELEASE  -


 With contributions from (in alphabetic order):
   Daniel Aravena         : Magnetic Suceptibility
   Michael Atanasov       : Ab Initio Ligand Field Theory (pilot matlab implementation)
   Alexander A. Auer      : GIAO ZORA, VPT2 properties, NMR spectrum
   Ute Becker             : Parallelization
   Giovanni Bistoni       : ED, misc. LED, open-shell LED, HFLD
   Martin Brehm           : Molecular dynamics
   Dmytro Bykov           : SCF Hessian
   Vijay G. Chilkuri      : MRCI spin determinant printing, contributions to CSF-ICE
   Dipayan Datta          : RHF DLPNO-CCSD density
   Achintya Kumar Dutta   : EOM-CC, STEOM-CC
   Dmitry Ganyushin       : Spin-Orbit,Spin-Spin,Magnetic field MRCI
   Miquel Garcia          : C-PCM and meta-GGA Hessian, CC/C-PCM, Gaussian charge scheme
   Yang Guo               : DLPNO-NEVPT2, F12-NEVPT2, CIM, IAO-localization
   Andreas Hansen         : Spin unrestricted coupled pair/coupled cluster methods
   Benjamin Helmich-Paris : MC-RPA, TRAH-SCF, COSX integrals
   Lee Huntington         : MR-EOM, pCC
   Robert Izsak           : Overlap fitted RIJCOSX, COSX-SCS-MP3, EOM
   Marcus Kettner         : VPT2
   Christian Kollmar      : KDIIS, OOCD, Brueckner-CCSD(T), CCSD density, CASPT2, CASPT2-K
   Simone Kossmann        : Meta GGA functionals, TD-DFT gradient, OOMP2, MP2 Hessian
   Martin Krupicka        : Initial AUTO-CI
   Lucas Lang             : DCDCAS
   Marvin Lechner         : AUTO-CI (C++ implementation), FIC-MRCC
   Dagmar Lenk            : GEPOL surface, SMD
   Dimitrios Liakos       : Extrapolation schemes; Compound Job, initial MDCI parallelization
   Dimitrios Manganas     : Further ROCIS development; embedding schemes
   Dimitrios Pantazis     : SARC Basis sets
   Anastasios Papadopoulos: AUTO-CI, single reference methods and gradients
   Taras Petrenko         : DFT Hessian,TD-DFT gradient, ASA, ECA, R-Raman, ABS, FL, XAS/XES, NRVS
   Peter Pinski           : DLPNO-MP2, DLPNO-MP2 Gradient
   Christoph Reimann      : Effective Core Potentials
   Marius Retegan         : Local ZFS, SOC
   Christoph Riplinger    : Optimizer, TS searches, QM/MM, DLPNO-CCSD(T), (RO)-DLPNO pert. Triples
   Tobias Risthaus        : Range-separated hybrids, TD-DFT gradient, RPA, STAB
   Michael Roemelt        : Original ROCIS implementation
   Masaaki Saitow         : Open-shell DLPNO-CCSD energy and density
   Barbara Sandhoefer     : DKH picture change effects
   Avijit Sen             : IP-ROCIS
   Kantharuban Sivalingam : CASSCF convergence, NEVPT2, FIC-MRCI
   Bernardo de Souza      : ESD, SOC TD-DFT
   Georgi Stoychev        : AutoAux, RI-MP2 NMR, DLPNO-MP2 response
   Willem Van den Heuvel  : Paramagnetic NMR
   Boris Wezisla          : Elementary symmetry handling
   Frank Wennmohs         : Technical directorship


 We gratefully acknowledge several colleagues who have allowed us to
 interface, adapt or use parts of their codes:
   Stefan Grimme, W. Hujo, H. Kruse, P. Pracht,  : VdW corrections, initial TS optimization,
                  C. Bannwarth, S. Ehlert          DFT functionals, gCP, sTDA/sTD-DF
   Ed Valeev, F. Pavosevic, A. Kumar             : LibInt (2-el integral package), F12 methods
   Garnet Chan, S. Sharma, J. Yang, R. Olivares  : DMRG
   Ulf Ekstrom                                   : XCFun DFT Library
   Mihaly Kallay                                 : mrcc  (arbitrary order and MRCC methods)
   Jiri Pittner, Ondrej Demel                    : Mk-CCSD
   Frank Weinhold                                : gennbo (NPA and NBO analysis)
   Christopher J. Cramer and Donald G. Truhlar   : smd solvation model
   Lars Goerigk                                  : TD-DFT with DH, B97 family of functionals
   V. Asgeirsson, H. Jonsson                     : NEB implementation
   FAccTs GmbH                                   : IRC, NEB, NEB-TS, DLPNO-Multilevel, CI-OPT
                                                   MM, QMMM, 2- and 3-layer-ONIOM, Crystal-QMMM,
                                                   LR-CPCM, SF, NACMEs, symmetry and pop. for TD-DFT,
                                                   nearIR, NL-DFT gradient (VV10), updates on ESD,
                                                   ML-optimized integration grids
   S Lehtola, MJT Oliveira, MAL Marques          : LibXC Library
   Liviu Ungur et al                             : ANISO software


 Your calculation uses the libint2 library for the computation of 2-el integrals
 For citations please refer to: http://libint.valeyev.net

 Your ORCA version has been built with support for libXC version: 5.1.0
 For citations please refer to: https://tddft.org/programs/libxc/

 This ORCA versions uses:
   CBLAS   interface :  Fast vector & matrix operations
   LAPACKE interface :  Fast linear algebra routines
   SCALAPACK package :  Parallel linear algebra routines
   Shared memory     :  Shared parallel matrices
   BLAS/LAPACK       :  OpenBLAS 0.3.15  USE64BITINT DYNAMIC_ARCH NO_AFFINITY SkylakeX SINGLE_THREADED
        Core in use  :  SkylakeX
   Copyright (c) 2011-2014, The OpenBLAS Project




***************************************
The coordinates will be read from file: butylamine_deprot_aq_4.xyz
***************************************


Your calculation utilizes the atom-pairwise dispersion correction
based on tight binding partial charges (D4)
Cite in your paper:
E.Caldeweyher, C.Bannwarth, S.Grimme, J.Chem.Phys., (2017), 147, 034112.
E.Caldeweyher, S.Ehlert, A.Hansen, H.Neugebauer, S.Grimme, J.Chem.Phys., (2018), in progress.
   

XCFun DFT library Copyright 2009-2010 Ulf Ekstrom and contributors.
See http://admol.org/xcfun for more information.
This is free software; see the source code for copying conditions.
There is ABSOLUTELY NO WARRANTY; not even for MERCHANTABILITY or FITNESS FOR A PARTICULAR PURPOSE.
For details see the documentation.
Scientific users of this library should cite U. Ekstrom, L. Visscher, R. Bast, A. J. Thorvaldsen and K. Ruud;
J.Chem.Theor.Comp. 2010, DOI: 10.1021/ct100117s
XCFun Version 0.99 

================================================================================

----- Orbital basis set information -----
Your calculation utilizes the basis: def2-SVP
   F. Weigend and R. Ahlrichs, Phys. Chem. Chem. Phys. 7, 3297 (2005).

----- AuxJ basis set information -----
Your calculation utilizes the auxiliary basis: def2/J
   F. Weigend, Phys. Chem. Chem. Phys. 8, 1057 (2006).

================================================================================
                                        WARNINGS
                       Please study these warnings very carefully!
================================================================================


WARNING: Geometry Optimization
  ===> : Switching off AutoStart
         For restart on a previous wavefunction, please use MOREAD

INFO   : the flag for use of the SHARK integral package has been found!

================================================================================
                                       INPUT FILE
================================================================================
NAME = butylamine_deprot_aq_4.inp
|  1> # ORCA 5.0.4 - /users/bwb16179/postgrad/2024_06/pKa_Reviewer_Comments/CREST_Confs/butylamine/butylamine_deprot_aq_4.inp # write input file
|  2> # Basic Mode
|  3> #
|  4> ! Opt Freq wB97X Def2-SVP D4 SlowConv TightSCF Defgrid2 Def2/J RIJCOSX 
|  5> 
|  6> %PAL NPROCS 4 END
|  7> 
|  8> %maxcore 4500
|  9> 
| 10> %geom
| 11> Maxiter 150
| 12> END
| 13> 
| 14> * xyzfile 0 1 butylamine_deprot_aq_4.xyz
| 15> 
| 16>                          ****END OF INPUT****
================================================================================

                       *****************************
                       * Geometry Optimization Run *
                       *****************************

Geometry optimization settings:
Update method            Update   .... BFGS
Choice of coordinates    CoordSys .... Z-matrix Internals
Initial Hessian          InHess   .... Almoef's Model

Convergence Tolerances:
Energy Change            TolE     ....  5.0000e-06 Eh
Max. Gradient            TolMAXG  ....  3.0000e-04 Eh/bohr
RMS Gradient             TolRMSG  ....  1.0000e-04 Eh/bohr
Max. Displacement        TolMAXD  ....  4.0000e-03 bohr
RMS Displacement         TolRMSD  ....  2.0000e-03 bohr
Strict Convergence                ....  False
------------------------------------------------------------------------------
                        ORCA OPTIMIZATION COORDINATE SETUP
------------------------------------------------------------------------------

The optimization will be done in new redundant internal coordinates
Making redundant internal coordinates   ...  (new redundants) done
Evaluating the initial hessian          ...  (Almloef) done
Evaluating the coordinates              ...  done
Calculating the B-matrix                .... done
Calculating the G-matrix                .... done
Diagonalizing the G-matrix              .... done
The first mode is                       ....   33
The number of degrees of freedom        ....   42

    -----------------------------------------------------------------
                    Redundant Internal Coordinates


    -----------------------------------------------------------------
         Definition                    Initial Value    Approx d2E/dq
    -----------------------------------------------------------------
      1. B(C   1,C   0)                  1.5246         0.381005   
      2. B(H   2,C   0)                  1.0871         0.363992   
      3. B(H   3,C   0)                  1.0878         0.363016   
      4. B(H   4,C   0)                  1.0877         0.363166   
      5. B(C   5,C   1)                  1.5304         0.373067   
      6. B(H   6,C   1)                  1.0932         0.355835   
      7. B(H   7,C   1)                  1.0928         0.356361   
      8. B(C   8,C   5)                  1.5378         0.363088   
      9. B(H   9,C   5)                  1.0942         0.354598   
     10. B(H  10,C   5)                  1.0919         0.357594   
     11. B(N  11,C   8)                  1.4542         0.442082   
     12. B(H  12,C   8)                  1.0945         0.354165   
     13. B(H  13,C   8)                  1.0922         0.357142   
     14. B(H  14,N  11)                  1.0147         0.425318   
     15. B(H  15,N  11)                  1.0141         0.426257   
     16. A(H   3,C   0,H   4)          108.4294         0.291597   
     17. A(C   1,C   0,H   4)          110.2039         0.325824   
     18. A(C   1,C   0,H   2)          111.2033         0.325946   
     19. A(H   2,C   0,H   3)          108.4118         0.291701   
     20. A(H   2,C   0,H   4)          108.1211         0.291720   
     21. A(C   1,C   0,H   3)          110.3873         0.325802   
     22. A(C   0,C   1,C   5)          113.2537         0.364492   
     23. A(H   6,C   1,H   7)          107.0775         0.289821   
     24. A(C   5,C   1,H   7)          108.2144         0.323691   
     25. A(C   0,C   1,H   7)          108.8836         0.324812   
     26. A(C   5,C   1,H   6)          109.7811         0.323613   
     27. A(C   0,C   1,H   6)          109.4340         0.324734   
     28. A(C   8,C   5,H   9)          108.4499         0.321994   
     29. A(C   1,C   5,H   9)          108.7479         0.323428   
     30. A(C   1,C   5,C   8)          114.3704         0.361505   
     31. A(H   9,C   5,H  10)          107.6525         0.289820   
     32. A(C   8,C   5,H  10)          108.2874         0.322438   
     33. A(C   1,C   5,H  10)          109.1310         0.323875   
     34. A(H  12,C   8,H  13)          107.6048         0.289707   
     35. A(N  11,C   8,H  13)          107.5444         0.330996   
     36. A(C   5,C   8,H  13)          109.9984         0.322371   
     37. A(N  11,C   8,H  12)          107.1633         0.330538   
     38. A(C   5,C   8,H  12)          108.4824         0.321929   
     39. A(C   5,C   8,N  11)          115.7395         0.369848   
     40. A(H  14,N  11,H  15)          107.3700         0.301699   
     41. A(C   8,N  11,H  15)          109.7997         0.337947   
     42. A(C   8,N  11,H  14)          109.6018         0.337823   
     43. D(H   6,C   1,C   0,H   4)     61.5887         0.011566   
     44. D(C   5,C   1,C   0,H   3)    -55.8316         0.011566   
     45. D(H   7,C   1,C   0,H   3)     64.6025         0.011566   
     46. D(H   6,C   1,C   0,H   2)    -58.2954         0.011566   
     47. D(C   5,C   1,C   0,H   4)   -175.5767         0.011566   
     48. D(H   6,C   1,C   0,H   3)   -178.6662         0.011566   
     49. D(H   7,C   1,C   0,H   4)    -55.1426         0.011566   
     50. D(C   5,C   1,C   0,H   2)     64.5392         0.011566   
     51. D(H   7,C   1,C   0,H   2)   -175.0267         0.011566   
     52. D(H   9,C   5,C   1,H   6)    -64.8004         0.011115   
     53. D(C   8,C   5,C   1,H   7)    173.1200         0.011115   
     54. D(C   8,C   5,C   1,H   6)     56.5757         0.011115   
     55. D(C   8,C   5,C   1,C   0)    -66.0666         0.011115   
     56. D(H   9,C   5,C   1,H   7)     51.7438         0.011115   
     57. D(H  10,C   5,C   1,H   7)    -65.4301         0.011115   
     58. D(H  10,C   5,C   1,H   6)    178.0257         0.011115   
     59. D(H  10,C   5,C   1,C   0)     55.3834         0.011115   
     60. D(H   9,C   5,C   1,C   0)    172.5573         0.011115   
     61. D(H  13,C   8,C   5,H   9)   -178.8710         0.010564   
     62. D(H  13,C   8,C   5,C   1)     59.5890         0.010564   
     63. D(H  12,C   8,C   5,H  10)     55.1283         0.010564   
     64. D(H  12,C   8,C   5,H   9)    -61.4188         0.010564   
     65. D(H  12,C   8,C   5,C   1)    177.0412         0.010564   
     66. D(N  11,C   8,C   5,H  10)    175.5636         0.010564   
     67. D(N  11,C   8,C   5,H   9)     59.0166         0.010564   
     68. D(H  13,C   8,C   5,H  10)    -62.3239         0.010564   
     69. D(N  11,C   8,C   5,C   1)    -62.5235         0.010564   
     70. D(H  15,N  11,C   8,C   5)     62.4275         0.016666   
     71. D(H  14,N  11,C   8,H  13)   -178.6933         0.016666   
     72. D(H  14,N  11,C   8,H  12)     65.8625         0.016666   
     73. D(H  14,N  11,C   8,C   5)    -55.2845         0.016666   
     74. D(H  15,N  11,C   8,H  13)    -60.9813         0.016666   
     75. D(H  15,N  11,C   8,H  12)   -176.4255         0.016666   
    -----------------------------------------------------------------

Number of atoms                         .... 16
Number of degrees of freedom            .... 75

         *************************************************************
         *                GEOMETRY OPTIMIZATION CYCLE   1            *
         *************************************************************
---------------------------------
CARTESIAN COORDINATES (ANGSTROEM)
---------------------------------
  C     -1.916415    0.731249    0.166709
  C     -1.127275   -0.342022   -0.574824
  H     -1.284672    1.578579    0.420996
  H     -2.335082    0.326824    1.085663
  H     -2.733562    1.092620   -0.453579
  C     -0.024407   -0.976797    0.275338
  H     -0.694222    0.086759   -1.482455
  H     -1.813789   -1.132116   -0.889072
  C      1.114781   -0.016787    0.656536
  H      0.403069   -1.819942   -0.275683
  H     -0.462960   -1.370238    1.194645
  N      1.880940    0.526447   -0.453643
  H      1.817651   -0.551713    1.302918
  H      0.717880    0.826250    1.226412
  H      2.247384   -0.232889   -1.018196
  H      1.276430    1.081896   -1.048976

----------------------------
CARTESIAN COORDINATES (A.U.)
----------------------------
  NO LB      ZA    FRAG     MASS         X           Y           Z
   0 C     6.0000    0    12.011   -3.621499    1.381861    0.315035
   1 C     6.0000    0    12.011   -2.130241   -0.646327   -1.086260
   2 H     1.0000    0     1.008   -2.427678    2.983082    0.795567
   3 H     1.0000    0     1.008   -4.412665    0.617608    2.051606
   4 H     1.0000    0     1.008   -5.165683    2.064752   -0.857140
   5 C     6.0000    0    12.011   -0.046122   -1.845878    0.520314
   6 H     1.0000    0     1.008   -1.311889    0.163951   -2.801433
   7 H     1.0000    0     1.008   -3.427564   -2.139389   -1.680103
   8 C     6.0000    0    12.011    2.106631   -0.031723    1.240672
   9 H     1.0000    0     1.008    0.761690   -3.439191   -0.520965
  10 H     1.0000    0     1.008   -0.874867   -2.589375    2.257551
  11 N     7.0000    0    14.007    3.554461    0.994842   -0.857260
  12 H     1.0000    0     1.008    3.434863   -1.042587    2.462157
  13 H     1.0000    0     1.008    1.356596    1.561385    2.317582
  14 H     1.0000    0     1.008    4.246941   -0.440096   -1.924112
  15 H     1.0000    0     1.008    2.412103    2.044486   -1.982277

--------------------------------
INTERNAL COORDINATES (ANGSTROEM)
--------------------------------
 C      0   0   0     0.000000000000     0.00000000     0.00000000
 C      1   0   0     1.524639099619     0.00000000     0.00000000
 H      1   2   0     1.087073600884   111.20327163     0.00000000
 H      1   2   3     1.087804406999   110.38725387   239.62921735
 H      1   2   3     1.087692467805   110.20389589   119.88412118
 C      2   1   3     1.530370527025   113.25367529    64.53920197
 H      2   1   3     1.093243271993   109.43401634   301.70455333
 H      2   1   3     1.092841237984   108.88356257   184.97331375
 C      6   2   1     1.537750921761   114.37040780   293.93340092
 H      6   2   1     1.094190879655   108.74794661   172.55728103
 H      6   2   1     1.091901324899   109.13102535    55.38335483
 N      9   6   2     1.454165976154   115.73946339   297.47649912
 H      9   6   2     1.094523970094   108.48236613   177.04117699
 H      9   6   2     1.092245300694   109.99840394    59.58899687
 H     12   9   6     1.014689323795   109.60183742   304.71549318
 H     12   9   6     1.014088898383   109.79969950    62.42748356

---------------------------
INTERNAL COORDINATES (A.U.)
---------------------------
 C      0   0   0     0.000000000000     0.00000000     0.00000000
 C      1   0   0     2.881150351349     0.00000000     0.00000000
 H      1   2   0     2.054271393086   111.20327163     0.00000000
 H      1   2   3     2.055652416501   110.38725387   239.62921735
 H      1   2   3     2.055440882080   110.20389589   119.88412118
 C      2   1   3     2.891981179502   113.25367529    64.53920197
 H      2   1   3     2.065930381819   109.43401634   301.70455333
 H      2   1   3     2.065170647646   108.88356257   184.97331375
 C      6   2   1     2.905928104313   114.37040780   293.93340092
 H      6   2   1     2.067721100782   108.74794661   172.55728103
 H      6   2   1     2.063394469325   109.13102535    55.38335483
 N      9   6   2     2.747975448197   115.73946339   297.47649912
 H      9   6   2     2.068350550489   108.48236613   177.04117699
 H      9   6   2     2.064044489374   109.99840394    59.58899687
 H     12   9   6     1.917484932987   109.60183742   304.71549318
 H     12   9   6     1.916350293394   109.79969950    62.42748356

---------------------
BASIS SET INFORMATION
---------------------
There are 3 groups of distinct atoms

 Group   1 Type C   : 7s4p1d contracted to 3s2p1d pattern {511/31/1}
 Group   2 Type H   : 4s1p contracted to 2s1p pattern {31/1}
 Group   3 Type N   : 7s4p1d contracted to 3s2p1d pattern {511/31/1}

Atom   0C    basis set group =>   1
Atom   1C    basis set group =>   1
Atom   2H    basis set group =>   2
Atom   3H    basis set group =>   2
Atom   4H    basis set group =>   2
Atom   5C    basis set group =>   1
Atom   6H    basis set group =>   2
Atom   7H    basis set group =>   2
Atom   8C    basis set group =>   1
Atom   9H    basis set group =>   2
Atom  10H    basis set group =>   2
Atom  11N    basis set group =>   3
Atom  12H    basis set group =>   2
Atom  13H    basis set group =>   2
Atom  14H    basis set group =>   2
Atom  15H    basis set group =>   2
---------------------------------
AUXILIARY/J BASIS SET INFORMATION
---------------------------------
There are 3 groups of distinct atoms

 Group   1 Type C   : 12s5p4d2f1g contracted to 6s4p3d1f1g pattern {711111/2111/211/2/1}
 Group   2 Type H   : 5s2p1d contracted to 3s1p1d pattern {311/2/1}
 Group   3 Type N   : 12s5p4d2f1g contracted to 6s4p3d1f1g pattern {711111/2111/211/2/1}

Atom   0C    basis set group =>   1
Atom   1C    basis set group =>   1
Atom   2H    basis set group =>   2
Atom   3H    basis set group =>   2
Atom   4H    basis set group =>   2
Atom   5C    basis set group =>   1
Atom   6H    basis set group =>   2
Atom   7H    basis set group =>   2
Atom   8C    basis set group =>   1
Atom   9H    basis set group =>   2
Atom  10H    basis set group =>   2
Atom  11N    basis set group =>   3
Atom  12H    basis set group =>   2
Atom  13H    basis set group =>   2
Atom  14H    basis set group =>   2
Atom  15H    basis set group =>   2


           ************************************************************
           *        Program running with 4 parallel MPI-processes     *
           *              working on a common directory               *
           ************************************************************
------------------------------------------------------------------------------
                           ORCA GTO INTEGRAL CALCULATION
                           -- RI-GTO INTEGRALS CHOSEN --
------------------------------------------------------------------------------
------------------------------------------------------------------------------
                   ___                                                        
                  /   \      - P O W E R E D   B Y -                         
                 /     \                                                     
                 |  |  |   _    _      __       _____    __    __             
                 |  |  |  | |  | |    /  \     |  _  \  |  |  /  |          
                  \  \/   | |  | |   /    \    | | | |  |  | /  /          
                 / \  \   | |__| |  /  /\  \   | |_| |  |  |/  /          
                |  |  |   |  __  | /  /__\  \  |    /   |      \           
                |  |  |   | |  | | |   __   |  |    \   |  |\   \          
                \     /   | |  | | |  |  |  |  | |\  \  |  | \   \       
                 \___/    |_|  |_| |__|  |__|  |_| \__\ |__|  \__/        
                                                                              
                      - O R C A' S   B I G   F R I E N D -                    
                                      &                                       
                       - I N T E G R A L  F E E D E R -                       
                                                                              
 v1 FN, 2020, v2 2021                                                         
------------------------------------------------------------------------------


Reading SHARK input file butylamine_deprot_aq_4.SHARKINP.tmp ... ok
----------------------
SHARK INTEGRAL PACKAGE
----------------------

Number of atoms                             ...     16
Number of basis functions                   ...    125
Number of shells                            ...     63
Maximum angular momentum                    ...      2
Integral batch strategy                     ... SHARK/LIBINT Hybrid
RI-J (if used) integral strategy            ... SPLIT-RIJ (Revised 2003 algorithm where possible)
Printlevel                                  ...      1
Contraction scheme used                     ... SEGMENTED contraction
Coulomb Range Separation                    ... NOT USED
Exchange Range Separation                   ... Long Range
   Mu parameter                             ...  0.300000
   Scaling (regular/separated)              ...  0.157706  0.842294
Finite Nucleus Model                        ... NOT USED
Auxiliary Coulomb fitting basis             ... AVAILABLE
   # of basis functions in Aux-J            ...    366
   # of shells in Aux-J                     ...    130
   Maximum angular momentum in Aux-J        ...      4
Auxiliary J/K fitting basis                 ... NOT available
Auxiliary Correlation fitting basis         ... NOT available
Auxiliary 'external' fitting basis          ... NOT available
Integral threshold                          ...     2.500000e-11
Primitive cut-off                           ...     2.500000e-12
Primitive pair pre-selection threshold      ...     2.500000e-12

Calculating pre-screening integrals         ... done (  0.0 sec) Dimension = 63
Organizing shell pair data                  ... done (  0.0 sec)
Shell pair information
Total number of shell pairs                 ...      2016
Shell pairs after pre-screening             ...      1984
Total number of primitive shell pairs       ...      6768
Primitive shell pairs kept                  ...      5317
          la=0 lb=0:    693 shell pairs
          la=1 lb=0:    763 shell pairs
          la=1 lb=1:    227 shell pairs
          la=2 lb=0:    183 shell pairs
          la=2 lb=1:    103 shell pairs
          la=2 lb=2:     15 shell pairs

Calculating one electron integrals          ... done (  0.0 sec)
Calculating RI/J V-Matrix + Cholesky decomp.... done (  0.0 sec)
Calculating Nuclear repulsion               ... done (  0.0 sec) ENN=    192.065737020553 Eh

SHARK setup successfully completed in   0.2 seconds

Maximum memory used throughout the entire GTOINT-calculation: 10.7 MB


           ************************************************************
           *        Program running with 4 parallel MPI-processes     *
           *              working on a common directory               *
           ************************************************************
-------------------------------------------------------------------------------
                                 ORCA SCF
-------------------------------------------------------------------------------

------------
SCF SETTINGS
------------
Hamiltonian:
 Density Functional     Method          .... DFT(GTOs)
 Exchange Functional    Exchange        .... WB97X
 Correlation Functional Correlation     .... WB97X
 Gradients option       PostSCFGGA      .... off
 Hybrid DFT is turned on
   Fraction HF Exchange ScalHFX         ....  0.157706
   Scaling of DF-GGA-X  ScalDFX         ....  0.000000
   Scaling of DF-GGA-C  ScalDFC         ....  1.000000
   Scaling of DF-LDA-C  ScalLDAC        ....  1.000000
   Perturbative correction              ....  0.000000
   Density functional embedding theory  .... OFF
 Long-range corrected/Screened/Range-Separated Hybrid DFT is turned on
   Amount of maximum screened exact exchange              ....  0.842294
   Range separation parameter mu (erf(mu*r12)/r12)        ....  0.300000
 RI-approximation to the Coulomb term is turned on
   Number of AuxJ basis functions       .... 366
   RIJ-COSX (HFX calculated with COS-X)).... on


General Settings:
 Integral files         IntName         .... butylamine_deprot_aq_4
 Hartree-Fock type      HFTyp           .... RHF
 Total Charge           Charge          ....    0
 Multiplicity           Mult            ....    1
 Number of Electrons    NEL             ....   42
 Basis Dimension        Dim             ....  125
 Nuclear Repulsion      ENuc            ....    192.0657370206 Eh

Convergence Acceleration:
 DIIS                   CNVDIIS         .... on
   Start iteration      DIISMaxIt       ....     0
   Startup error        DIISStart       ....  0.200000
   # of expansion vecs  DIISMaxEq       ....     5
   Bias factor          DIISBfac        ....   1.050
   Max. coefficient     DIISMaxC        ....  10.000
 Trust-Rad. Augm. Hess. CNVTRAH         .... auto
   Auto Start mean grad. ratio tolernc. ....  1.125000
   Auto Start start iteration           ....    20
   Auto Start num. interpolation iter.  ....    10
   Max. Number of Micro iterations      ....    16
   Max. Number of Macro iterations      .... Maxiter - #DIIS iter
   Number of Davidson start vectors     ....     2
   Converg. threshold I  (grad. norm)   ....   1.000e-05
   Converg. threshold II (energy diff.) ....   1.000e-08
   Grad. Scal. Fac. for Micro threshold ....   0.100
   Minimum threshold for Micro iter.    ....   0.010
   NR start threshold (gradient norm)   ....   0.001
   Initial trust radius                 ....   0.400
   Minimum AH scaling param. (alpha)    ....   1.000
   Maximum AH scaling param. (alpha)    .... 1000.000
   Orbital update algorithm             .... Taylor
   White noise on init. David. guess    .... on
   Maximum white noise                  ....   0.010
   Quad. conv. algorithm                .... NR
 SOSCF                  CNVSOSCF        .... on
   Start iteration      SOSCFMaxIt      ....   150
   Startup grad/error   SOSCFStart      ....  0.001000
 Level Shifting         CNVShift        .... on
   Level shift para.    LevelShift      ....    0.2500
   Turn off err/grad.   ShiftErr        ....    0.0000
 Zerner damping         CNVZerner       .... off
 Static damping         CNVDamp         .... on
   Fraction old density DampFac         ....    0.8500
   Max. Damping (<1)    DampMax         ....    0.9800
   Min. Damping (>=0)   DampMin         ....    0.0000
   Turn off err/grad.   DampErr         ....    0.0300
 Fernandez-Rico         CNVRico         .... off

SCF Procedure:
 Maximum # iterations   MaxIter         ....   125
 SCF integral mode      SCFMode         .... Direct
   Integral package                     .... SHARK and LIBINT hybrid scheme
 Reset frequency        DirectResetFreq ....    20
 Integral Threshold     Thresh          ....  2.500e-11 Eh
 Primitive CutOff       TCut            ....  2.500e-12 Eh

Convergence Tolerance:
 Convergence Check Mode ConvCheckMode   .... Total+1el-Energy
 Convergence forced     ConvForced      .... 0
 Energy Change          TolE            ....  1.000e-08 Eh
 1-El. energy change                    ....  1.000e-05 Eh
 Orbital Gradient       TolG            ....  1.000e-05
 Orbital Rotation angle TolX            ....  1.000e-05
 DIIS Error             TolErr          ....  5.000e-07


Diagonalization of the overlap matrix:
Smallest eigenvalue                        ... 2.426e-03
Time for diagonalization                   ...    0.003 sec
Threshold for overlap eigenvalues          ... 1.000e-08
Number of eigenvalues below threshold      ... 0
Time for construction of square roots      ...    0.002 sec
Total time needed                          ...    0.006 sec

Time for model grid setup =    0.078 sec

------------------------------
INITIAL GUESS: MODEL POTENTIAL
------------------------------
Loading Hartree-Fock densities                     ... done
Calculating cut-offs                               ... done
Initializing the effective Hamiltonian             ... done
Setting up the integral package (SHARK)            ... done
Starting the Coulomb interaction                   ... done (   0.0 sec)
Reading the grid                                   ... done
Mapping shells                                     ... done
Starting the XC term evaluation                    ... done (   0.1 sec)
  promolecular density results
     # of electrons  =     41.997974569
     EX              =    -30.245326569
     EC              =     -1.357504581
     EX+EC           =    -31.602831150
Transforming the Hamiltonian                       ... done (   0.0 sec)
Diagonalizing the Hamiltonian                      ... done (   0.0 sec)
Back transforming the eigenvectors                 ... done (   0.0 sec)
Now organizing SCF variables                       ... done
                      ------------------
                      INITIAL GUESS DONE (   0.2 sec)
                      ------------------
-------------------
DFT GRID GENERATION
-------------------

General Integration Accuracy     IntAcc      ... 4.388
Radial Grid Type                 RadialGrid  ... OptM3 with GC (2021)
Angular Grid (max. ang.)         AngularGrid ... 4 (Lebedev-302)
Angular grid pruning method      GridPruning ... 4 (adaptive)
Weight generation scheme         WeightScheme... Becke
Basis function cutoff            BFCut       ... 1.0000e-11
Integration weight cutoff        WCut        ... 1.0000e-14
Angular grids for H and He will be reduced by one unit
Partially contracted basis set               ... off
Rotationally invariant grid construction     ... off

Total number of grid points                  ...    65478
Total number of batches                      ...     1032
Average number of points per batch           ...       63
Average number of grid points per atom       ...     4092
Time for grid setup =    0.335 sec

--------------------
COSX GRID GENERATION
--------------------

GRIDX 1
-------
General Integration Accuracy     IntAcc      ... 3.816
Radial Grid Type                 RadialGrid  ... OptM3 with GC (2021)
Angular Grid (max. ang.)         AngularGrid ... 1 (Lebedev-50)
Angular grid pruning method      GridPruning ... 4 (adaptive)
Weight generation scheme         WeightScheme... Becke
Basis function cutoff            BFCut       ... 1.0000e-11
Integration weight cutoff        WCut        ... 1.0000e-14
Angular grids for H and He will be reduced by one unit
Partially contracted basis set               ... on
Rotationally invariant grid construction     ... off

Total number of grid points                  ...     8434
Total number of batches                      ...      144
Average number of points per batch           ...       58
Average number of grid points per atom       ...      527
UseSFitting                                  ... on

GRIDX 2
-------
General Integration Accuracy     IntAcc      ... 4.020
Radial Grid Type                 RadialGrid  ... OptM3 with GC (2021)
Angular Grid (max. ang.)         AngularGrid ... 2 (Lebedev-110)
Angular grid pruning method      GridPruning ... 4 (adaptive)
Weight generation scheme         WeightScheme... Becke
Basis function cutoff            BFCut       ... 1.0000e-11
Integration weight cutoff        WCut        ... 1.0000e-14
Angular grids for H and He will be reduced by one unit
Partially contracted basis set               ... on
Rotationally invariant grid construction     ... off

Total number of grid points                  ...    17347
Total number of batches                      ...      280
Average number of points per batch           ...       61
Average number of grid points per atom       ...     1084
UseSFitting                                  ... on

GRIDX 3
-------
General Integration Accuracy     IntAcc      ... 4.338
Radial Grid Type                 RadialGrid  ... OptM3 with GC (2021)
Angular Grid (max. ang.)         AngularGrid ... 3 (Lebedev-194)
Angular grid pruning method      GridPruning ... 4 (adaptive)
Weight generation scheme         WeightScheme... Becke
Basis function cutoff            BFCut       ... 1.0000e-11
Integration weight cutoff        WCut        ... 1.0000e-14
Angular grids for H and He will be reduced by one unit
Partially contracted basis set               ... on
Rotationally invariant grid construction     ... off

Total number of grid points                  ...    37876
Total number of batches                      ...      601
Average number of points per batch           ...       63
Average number of grid points per atom       ...     2367
UseSFitting                                  ... on

Time for X-Grid setup             =    0.308 sec

--------------
SCF ITERATIONS
--------------
ITER       Energy         Delta-E        Max-DP      RMS-DP      [F,P]     Damp
               ***  Starting incremental Fock matrix formation  ***
  0   -213.3823517155   0.000000000000 0.03888922  0.00115077  0.2277152 0.8500
  1   -213.4274449457  -0.045093230206 0.03338875  0.00109594  0.1760317 0.8500
                               ***Turning on DIIS***
  2   -213.4605857944  -0.033140848763 0.02482322  0.00087902  0.1286142 0.8500
  3   -213.4844768750  -0.023891080528 0.01435475  0.00057266  0.0925322 0.8500
  4   -213.5025722333  -0.018095358314 0.00954800  0.00040886  0.0724482 0.8500
  5   -213.5166562582  -0.014084024910 0.00713775  0.00032286  0.0598797 0.8500
  6   -213.5280483330  -0.011392074762 0.00569808  0.00026785  0.0504794 0.8500
  7   -213.5374545723  -0.009406239394 0.00479207  0.00023056  0.0428180 0.8500
  8   -213.5453162828  -0.007861710413 0.00407910  0.00019868  0.0360903 0.8500
  9   -213.5518998613  -0.006583578580 0.00345475  0.00016993  0.0303268 0.8500
 10   -213.5574190307  -0.005519169315 0.01937792  0.00096432  0.0255005 0.0000
 11   -213.5874320309  -0.030013000269 0.00111126  0.00003858  0.0014329 0.0000
                      *** Initiating the SOSCF procedure ***
                           *** Shutting down DIIS ***
                      *** Re-Reading the Fockian *** 
                      *** Removing any level shift *** 
ITER      Energy       Delta-E        Grad      Rot      Max-DP    RMS-DP
 12   -213.58744080  -0.0000087675  0.000068  0.000068  0.000312  0.000013
               *** Restarting incremental Fock matrix formation ***
 13   -213.58739654   0.0000442541  0.000039  0.000063  0.000357  0.000012
 14   -213.58739666  -0.0000001198  0.000014  0.000035  0.000156  0.000005
 15   -213.58739668  -0.0000000128  0.000012  0.000006  0.000032  0.000001
                  ***Gradient check signals convergence***
              ***Rediagonalizing the Fockian in SOSCF/NRSCF***

               *****************************************************
               *                     SUCCESS                       *
               *           SCF CONVERGED AFTER  16 CYCLES          *
               *****************************************************

Old exchange energy                            =    -10.443021829 Eh
New exchange energy                            =    -10.442988143 Eh
Exchange energy change after final integration =      0.000033686 Eh
Total energy after final integration           =   -213.587362993 Eh
Final COS-X integration done in                =     3.190 sec

----------------
TOTAL SCF ENERGY
----------------

Total Energy       :         -213.58736299 Eh           -5812.00762 eV

Components:
Nuclear Repulsion  :          192.06573702 Eh            5226.37441 eV
Electronic Energy  :         -405.65310001 Eh          -11038.38203 eV
One Electron Energy:         -666.75305457 Eh          -18143.27300 eV
Two Electron Energy:          261.09995456 Eh            7104.89097 eV
Max COSX asymmetry :            0.00000317 Eh               0.00009 eV

Virial components:
Potential Energy   :         -424.60664771 Eh          -11554.13429 eV
Kinetic Energy     :          211.01928472 Eh            5742.12666 eV
Virial Ratio       :            2.01216987


DFT components:
N(Alpha)           :       21.000012539312 electrons
N(Beta)            :       21.000012539312 electrons
N(Total)           :       42.000025078625 electrons
E(XC)              :      -22.250130303817 Eh       
DFET-embed. en.    :        0.000000000000 Eh       

---------------
SCF CONVERGENCE
---------------

  Last Energy change         ...   -3.0297e-09  Tolerance :   1.0000e-08
  Last MAX-Density change    ...    3.9968e-15  Tolerance :   1.0000e-07
  Last RMS-Density change    ...    5.1905e-17  Tolerance :   5.0000e-09
  Last Orbital Gradient      ...    1.7523e-06  Tolerance :   1.0000e-05
  Last Orbital Rotation      ...    1.3509e-06  Tolerance :   1.0000e-05

             **** THE GBW FILE WAS UPDATED (butylamine_deprot_aq_4.gbw) ****
             **** DENSITY butylamine_deprot_aq_4.scfp WAS UPDATED ****
             **** ENERGY FILE WAS UPDATED (butylamine_deprot_aq_4.en.tmp) ****
             **** THE GBW FILE WAS UPDATED (butylamine_deprot_aq_4.gbw) ****
             **** DENSITY butylamine_deprot_aq_4.scfp WAS UPDATED ****
----------------
ORBITAL ENERGIES
----------------

  NO   OCC          E(Eh)            E(eV) 
   0   2.0000     -14.375450      -391.1759 
   1   2.0000     -10.282420      -279.7989 
   2   2.0000     -10.264864      -279.3211 
   3   2.0000     -10.259093      -279.1641 
   4   2.0000     -10.258695      -279.1533 
   5   2.0000      -0.999621       -27.2011 
   6   2.0000      -0.909919       -24.7602 
   7   2.0000      -0.824575       -22.4378 
   8   2.0000      -0.752178       -20.4678 
   9   2.0000      -0.680145       -18.5077 
  10   2.0000      -0.611418       -16.6375 
  11   2.0000      -0.575926       -15.6717 
  12   2.0000      -0.551290       -15.0014 
  13   2.0000      -0.536897       -14.6097 
  14   2.0000      -0.501698       -13.6519 
  15   2.0000      -0.487489       -13.2652 
  16   2.0000      -0.473745       -12.8913 
  17   2.0000      -0.437434       -11.9032 
  18   2.0000      -0.431096       -11.7307 
  19   2.0000      -0.422093       -11.4857 
  20   2.0000      -0.331840        -9.0298 
  21   0.0000       0.133577         3.6348 
  22   0.0000       0.170489         4.6393 
  23   0.0000       0.172328         4.6893 
  24   0.0000       0.187755         5.1091 
  25   0.0000       0.212820         5.7911 
  26   0.0000       0.226082         6.1520 
  27   0.0000       0.234931         6.3928 
  28   0.0000       0.247477         6.7342 
  29   0.0000       0.255629         6.9560 
  30   0.0000       0.270343         7.3564 
  31   0.0000       0.284725         7.7478 
  32   0.0000       0.321373         8.7450 
  33   0.0000       0.327484         8.9113 
  34   0.0000       0.338484         9.2106 
  35   0.0000       0.381232        10.3739 
  36   0.0000       0.506381        13.7793 
  37   0.0000       0.521729        14.1970 
  38   0.0000       0.534427        14.5425 
  39   0.0000       0.566438        15.4136 
  40   0.0000       0.585247        15.9254 
  41   0.0000       0.599106        16.3025 
  42   0.0000       0.630182        17.1481 
  43   0.0000       0.692875        18.8541 
  44   0.0000       0.720761        19.6129 
  45   0.0000       0.738191        20.0872 
  46   0.0000       0.754254        20.5243 
  47   0.0000       0.768499        20.9119 
  48   0.0000       0.772197        21.0125 
  49   0.0000       0.776505        21.1298 
  50   0.0000       0.789069        21.4717 
  51   0.0000       0.793443        21.5907 
  52   0.0000       0.803549        21.8657 
  53   0.0000       0.807998        21.9867 
  54   0.0000       0.816869        22.2281 
  55   0.0000       0.827216        22.5097 
  56   0.0000       0.833740        22.6872 
  57   0.0000       0.848560        23.0905 
  58   0.0000       0.858875        23.3712 
  59   0.0000       0.894864        24.3505 
  60   0.0000       0.965976        26.2856 
  61   0.0000       0.973911        26.5015 
  62   0.0000       1.073313        29.2063 
  63   0.0000       1.090315        29.6690 
  64   0.0000       1.116398        30.3787 
  65   0.0000       1.232599        33.5407 
  66   0.0000       1.248995        33.9869 
  67   0.0000       1.295743        35.2590 
  68   0.0000       1.328464        36.1494 
  69   0.0000       1.368485        37.2384 
  70   0.0000       1.399954        38.0947 
  71   0.0000       1.466412        39.9031 
  72   0.0000       1.502882        40.8955 
  73   0.0000       1.558993        42.4223 
  74   0.0000       1.646243        44.7966 
  75   0.0000       1.662910        45.2501 
  76   0.0000       1.750280        47.6275 
  77   0.0000       1.814731        49.3813 
  78   0.0000       1.846786        50.2536 
  79   0.0000       1.855736        50.4971 
  80   0.0000       1.876197        51.0539 
  81   0.0000       1.893801        51.5330 
  82   0.0000       1.897345        51.6294 
  83   0.0000       1.912137        52.0319 
  84   0.0000       1.916883        52.1610 
  85   0.0000       1.934747        52.6471 
  86   0.0000       1.952407        53.1277 
  87   0.0000       1.960066        53.3361 
  88   0.0000       1.971357        53.6434 
  89   0.0000       1.993351        54.2418 
  90   0.0000       2.001019        54.4505 
  91   0.0000       2.028796        55.2064 
  92   0.0000       2.039946        55.5098 
  93   0.0000       2.053414        55.8762 
  94   0.0000       2.088778        56.8386 
  95   0.0000       2.139295        58.2132 
  96   0.0000       2.190543        59.6077 
  97   0.0000       2.202508        59.9333 
  98   0.0000       2.241274        60.9882 
  99   0.0000       2.302233        62.6470 
 100   0.0000       2.376406        64.6653 
 101   0.0000       2.392671        65.1079 
 102   0.0000       2.433666        66.2234 
 103   0.0000       2.486415        67.6588 
 104   0.0000       2.528173        68.7951 
 105   0.0000       2.598455        70.7076 
 106   0.0000       2.620387        71.3044 
 107   0.0000       2.635246        71.7087 
 108   0.0000       2.702245        73.5318 
 109   0.0000       2.704490        73.5929 
 110   0.0000       2.737362        74.4874 
 111   0.0000       2.831368        77.0454 
 112   0.0000       2.877269        78.2945 
 113   0.0000       2.914565        79.3094 
 114   0.0000       2.960313        80.5542 
 115   0.0000       3.010629        81.9234 
 116   0.0000       3.033467        82.5448 
 117   0.0000       3.051656        83.0398 
 118   0.0000       3.096822        84.2688 
 119   0.0000       3.135204        85.3132 
 120   0.0000       3.168923        86.2308 
 121   0.0000       3.211077        87.3779 
 122   0.0000       3.216638        87.5292 
 123   0.0000       3.357307        91.3570 
 124   0.0000       3.524509        95.9068 

                    ********************************
                    * MULLIKEN POPULATION ANALYSIS *
                    ********************************

-----------------------
MULLIKEN ATOMIC CHARGES
-----------------------
   0 C :   -0.032581
   1 C :   -0.061572
   2 H :    0.021465
   3 H :    0.021388
   4 H :    0.028014
   5 C :   -0.040101
   6 H :   -0.004173
   7 H :    0.020834
   8 C :    0.062003
   9 H :    0.006276
  10 H :    0.007956
  11 N :   -0.247745
  12 H :    0.019988
  13 H :    0.015306
  14 H :    0.091690
  15 H :    0.091249
Sum of atomic charges:    0.0000000

--------------------------------
MULLIKEN REDUCED ORBITAL CHARGES
--------------------------------
  0 C s       :     2.996525  s :     2.996525
      pz      :     1.005463  p :     3.007617
      px      :     1.006286
      py      :     0.995868
      dz2     :     0.004495  d :     0.028439
      dxz     :     0.007222
      dyz     :     0.005595
      dx2y2   :     0.003353
      dxy     :     0.007773
  1 C s       :     3.035267  s :     3.035267
      pz      :     1.008598  p :     2.989516
      px      :     0.986202
      py      :     0.994716
      dz2     :     0.006168  d :     0.036789
      dxz     :     0.008175
      dyz     :     0.007653
      dx2y2   :     0.004301
      dxy     :     0.010491
  2 H s       :     0.954159  s :     0.954159
      pz      :     0.005429  p :     0.024376
      px      :     0.008224
      py      :     0.010722
  3 H s       :     0.954573  s :     0.954573
      pz      :     0.012004  p :     0.024039
      px      :     0.006191
      py      :     0.005845
  4 H s       :     0.947997  s :     0.947997
      pz      :     0.007950  p :     0.023989
      px      :     0.010395
      py      :     0.005644
  5 C s       :     3.028613  s :     3.028613
      pz      :     0.996716  p :     2.976415
      px      :     0.973228
      py      :     1.006470
      dz2     :     0.004978  d :     0.035073
      dxz     :     0.008208
      dyz     :     0.007590
      dx2y2   :     0.005630
      dxy     :     0.008667
  6 H s       :     0.981231  s :     0.981231
      pz      :     0.011184  p :     0.022941
      px      :     0.005930
      py      :     0.005827
  7 H s       :     0.956529  s :     0.956529
      pz      :     0.005058  p :     0.022636
      px      :     0.008092
      py      :     0.009486
  8 C s       :     3.005459  s :     3.005459
      pz      :     0.930994  p :     2.880242
      px      :     0.954891
      py      :     0.994357
      dz2     :     0.009429  d :     0.052296
      dxz     :     0.012774
      dyz     :     0.011604
      dx2y2   :     0.005549
      dxy     :     0.012940
  9 H s       :     0.971215  s :     0.971215
      pz      :     0.006961  p :     0.022509
      px      :     0.005356
      py      :     0.010193
 10 H s       :     0.969233  s :     0.969233
      pz      :     0.011702  p :     0.022811
      px      :     0.005602
      py      :     0.005507
 11 N s       :     3.397472  s :     3.397472
      pz      :     1.123568  p :     3.830185
      px      :     1.440661
      py      :     1.265956
      dz2     :     0.001255  d :     0.020088
      dxz     :     0.006203
      dyz     :     0.006714
      dx2y2   :     0.002629
      dxy     :     0.003288
 12 H s       :     0.958571  s :     0.958571
      pz      :     0.006815  p :     0.021441
      px      :     0.008019
      py      :     0.006606
 13 H s       :     0.962776  s :     0.962776
      pz      :     0.006176  p :     0.021917
      px      :     0.005362
      py      :     0.010378
 14 H s       :     0.862700  s :     0.862700
      pz      :     0.013004  p :     0.045610
      px      :     0.015272
      py      :     0.017333
 15 H s       :     0.862556  s :     0.862556
      pz      :     0.013605  p :     0.046195
      px      :     0.015644
      py      :     0.016946


                     *******************************
                     * LOEWDIN POPULATION ANALYSIS *
                     *******************************

----------------------
LOEWDIN ATOMIC CHARGES
----------------------
   0 C :   -0.060413
   1 C :   -0.046335
   2 H :    0.019104
   3 H :    0.022931
   4 H :    0.025508
   5 C :   -0.058061
   6 H :    0.010002
   7 H :    0.023002
   8 C :    0.011254
   9 H :    0.016251
  10 H :    0.020090
  11 N :   -0.114403
  12 H :    0.019564
  13 H :    0.015583
  14 H :    0.049772
  15 H :    0.046151

-------------------------------
LOEWDIN REDUCED ORBITAL CHARGES
-------------------------------
  0 C s       :     2.825531  s :     2.825531
      pz      :     1.059376  p :     3.161689
      px      :     1.053213
      py      :     1.049100
      dz2     :     0.011111  d :     0.073193
      dxz     :     0.018752
      dyz     :     0.014757
      dx2y2   :     0.007338
      dxy     :     0.021234
  1 C s       :     2.829242  s :     2.829242
      pz      :     1.047582  p :     3.126913
      px      :     1.035798
      py      :     1.043534
      dz2     :     0.013486  d :     0.090180
      dxz     :     0.021458
      dyz     :     0.019422
      dx2y2   :     0.008946
      dxy     :     0.026867
  2 H s       :     0.913642  s :     0.913642
      pz      :     0.014781  p :     0.067254
      px      :     0.022686
      py      :     0.029787
  3 H s       :     0.910611  s :     0.910611
      pz      :     0.032629  p :     0.066458
      px      :     0.017028
      py      :     0.016801
  4 H s       :     0.907998  s :     0.907998
      pz      :     0.021774  p :     0.066494
      px      :     0.028333
      py      :     0.016387
  5 C s       :     2.842161  s :     2.842161
      pz      :     1.050294  p :     3.127660
      px      :     1.032638
      py      :     1.044728
      dz2     :     0.012319  d :     0.088240
      dxz     :     0.021376
      dyz     :     0.019172
      dx2y2   :     0.011740
      dxy     :     0.023633
  6 H s       :     0.922852  s :     0.922852
      pz      :     0.031580  p :     0.067146
      px      :     0.018131
      py      :     0.017436
  7 H s       :     0.910606  s :     0.910606
      pz      :     0.015646  p :     0.066393
      px      :     0.023763
      py      :     0.026983
  8 C s       :     2.828328  s :     2.828328
      pz      :     0.975359  p :     3.039957
      px      :     1.017902
      py      :     1.046696
      dz2     :     0.019991  d :     0.120462
      dxz     :     0.029488
      dyz     :     0.026563
      dx2y2   :     0.010832
      dxy     :     0.033588
  9 H s       :     0.917356  s :     0.917356
      pz      :     0.019751  p :     0.066393
      px      :     0.017196
      py      :     0.029446
 10 H s       :     0.912742  s :     0.912742
      pz      :     0.032092  p :     0.067169
      px      :     0.018024
      py      :     0.017052
 11 N s       :     3.117595  s :     3.117595
      pz      :     1.193421  p :     3.952421
      px      :     1.444582
      py      :     1.314418
      dz2     :     0.003164  d :     0.044387
      dxz     :     0.013617
      dyz     :     0.015862
      dx2y2   :     0.004013
      dxy     :     0.007731
 12 H s       :     0.916635  s :     0.916635
      pz      :     0.021554  p :     0.063801
      px      :     0.023719
      py      :     0.018527
 13 H s       :     0.919625  s :     0.919625
      pz      :     0.019601  p :     0.064792
      px      :     0.015779
      py      :     0.029412
 14 H s       :     0.828281  s :     0.828281
      pz      :     0.034712  p :     0.121947
      px      :     0.039227
      py      :     0.048008
 15 H s       :     0.830135  s :     0.830135
      pz      :     0.036288  p :     0.123714
      px      :     0.046219
      py      :     0.041207


                      *****************************
                      * MAYER POPULATION ANALYSIS *
                      *****************************

  NA   - Mulliken gross atomic population
  ZA   - Total nuclear charge
  QA   - Mulliken gross atomic charge
  VA   - Mayer's total valence
  BVA  - Mayer's bonded valence
  FA   - Mayer's free valence

  ATOM       NA         ZA         QA         VA         BVA        FA
  0 C      6.0326     6.0000    -0.0326     3.9975     3.9975     0.0000
  1 C      6.0616     6.0000    -0.0616     4.0650     4.0650     0.0000
  2 H      0.9785     1.0000     0.0215     0.9960     0.9960    -0.0000
  3 H      0.9786     1.0000     0.0214     0.9919     0.9919    -0.0000
  4 H      0.9720     1.0000     0.0280     0.9878     0.9878     0.0000
  5 C      6.0401     6.0000    -0.0401     4.0062     4.0062     0.0000
  6 H      1.0042     1.0000    -0.0042     0.9992     0.9992     0.0000
  7 H      0.9792     1.0000     0.0208     0.9782     0.9782    -0.0000
  8 C      5.9380     6.0000     0.0620     4.0614     4.0614     0.0000
  9 H      0.9937     1.0000     0.0063     0.9853     0.9853     0.0000
 10 H      0.9920     1.0000     0.0080     0.9856     0.9856     0.0000
 11 N      7.2477     7.0000    -0.2477     3.0884     3.0884     0.0000
 12 H      0.9800     1.0000     0.0200     0.9831     0.9831     0.0000
 13 H      0.9847     1.0000     0.0153     0.9923     0.9923     0.0000
 14 H      0.9083     1.0000     0.0917     1.0009     1.0009     0.0000
 15 H      0.9088     1.0000     0.0912     1.0099     1.0099     0.0000

  Mayer bond orders larger than 0.100000
B(  0-C ,  1-C ) :   1.0776 B(  0-C ,  2-H ) :   0.9760 B(  0-C ,  3-H ) :   0.9755 
B(  0-C ,  4-H ) :   0.9730 B(  1-C ,  5-C ) :   1.0642 B(  1-C ,  6-H ) :   0.9507 
B(  1-C ,  7-H ) :   0.9563 B(  5-C ,  8-C ) :   1.0439 B(  5-C ,  9-H ) :   0.9496 
B(  5-C , 10-H ) :   0.9431 B(  8-C , 11-N ) :   1.0814 B(  8-C , 12-H ) :   0.9599 
B(  8-C , 13-H ) :   0.9618 B( 11-N , 14-H ) :   0.9806 B( 11-N , 15-H ) :   0.9858 


-------
TIMINGS
-------

Total SCF time: 0 days 0 hours 0 min 25 sec 

Total time                  ....      25.832 sec
Sum of individual times     ....      25.179 sec  ( 97.5%)

Fock matrix formation       ....      24.219 sec  ( 93.8%)
  Split-RI-J                ....       1.217 sec  (  5.0% of F)
  Chain of spheres X        ....      18.482 sec  ( 76.3% of F)
  XC integration            ....       4.132 sec  ( 17.1% of F)
    Basis function eval.    ....       1.328 sec  ( 32.1% of XC)
    Density eval.           ....       0.671 sec  ( 16.2% of XC)
    XC-Functional eval.     ....       0.626 sec  ( 15.1% of XC)
    XC-Potential eval.      ....       0.784 sec  ( 19.0% of XC)
Diagonalization             ....       0.055 sec  (  0.2%)
Density matrix formation    ....       0.003 sec  (  0.0%)
Population analysis         ....       0.013 sec  (  0.1%)
Initial guess               ....       0.106 sec  (  0.4%)
Orbital Transformation      ....       0.000 sec  (  0.0%)
Orbital Orthonormalization  ....       0.000 sec  (  0.0%)
DIIS solution               ....       0.047 sec  (  0.2%)
SOSCF solution              ....       0.015 sec  (  0.1%)
Grid generation             ....       0.721 sec  (  2.8%)

Maximum memory used throughout the entire SCF-calculation: 49.8 MB


-------------------------------------------------------------------------------
                          DFT DISPERSION CORRECTION                            
                                                                               
                                 DFTD4 V2.5                                    
-------------------------------------------------------------------------------
The WB97X functional is recognized
Active option DFTDOPT                   ...         5   

Starting D4
-------------------------   ----------------
Dispersion correction           -0.001446863
-------------------------   ----------------


-------------------------   --------------------
FINAL SINGLE POINT ENERGY      -213.588809856274
-------------------------   --------------------



           ************************************************************
           *        Program running with 4 parallel MPI-processes     *
           *              working on a common directory               *
           ************************************************************
------------------------------------------------------------------------------
                         ORCA SCF GRADIENT CALCULATION
------------------------------------------------------------------------------

 ... reading COSX grid (gridx3)
Gradient of the Kohn-Sham DFT energy:
Kohn-Sham wavefunction type      ... RKS
Hartree-Fock exchange scaling    ...    0.158
Number of operators              ...    1
Number of atoms                  ...   16
Basis set dimensions             ...  125
Integral neglect threshold       ... 2.5e-11
Integral primitive cutoff        ... 2.5e-12
SHARK Integral package           ... ON

Nuc. rep. gradient       (SHARK) ... done (  0.0 sec)
HCore & Overlap gradient (SHARK) ... done (  0.0 sec)
RI-J gradient            (SHARK) ... done (  0.2 sec)
COSX-gradient                    ... done (  3.5 sec)
Exchange-correlation gradient    ... done
Dispersion correction            ... Starting D4
Starting D4
Starting D4


------------------- 
Dispersion Gradient 
------------------- 
   1  :   -0.000025818    0.000013319    0.000005531
   2  :   -0.000011651   -0.000005198   -0.000011115
   3  :   -0.000007312   -0.000001687   -0.000001501
   4  :   -0.000006204    0.000001747   -0.000002277
   5  :   -0.000007581    0.000001831   -0.000000154
   6  :    0.000000790   -0.000015538    0.000005051
   7  :   -0.000003308   -0.000001453    0.000005071
   8  :   -0.000004271    0.000000748    0.000000726
   9  :    0.000007475   -0.000003863    0.000014685
  10  :    0.000001090    0.000001509    0.000001043
  11  :    0.000000271    0.000000221   -0.000002203
  12  :    0.000034644    0.000012277   -0.000005275
  13  :    0.000005832    0.000001164   -0.000002187
  14  :    0.000006340   -0.000002908   -0.000004612
  15  :    0.000005469   -0.000001946   -0.000002243
  16  :    0.000004236   -0.000000222   -0.000000537

  |G| =    0.000053558

Starting D4
done

------------------
CARTESIAN GRADIENT
------------------

   1   C   :   -0.005124078    0.007657087    0.008241634
   2   C   :   -0.001023274   -0.000069565   -0.012051085
   3   H   :   -0.004277352   -0.008363868   -0.003344448
   4   H   :    0.004232255    0.002061869   -0.008438538
   5   H   :    0.007172757   -0.004491291    0.003465516
   6   C   :   -0.002631617   -0.013175673    0.004457521
   7   H   :   -0.002676693   -0.000942526    0.007019345
   8   H   :    0.003717234    0.004104438    0.004186229
   9   C   :   -0.000368700    0.005646170    0.010552283
  10   H   :   -0.003078309    0.006526700    0.001690119
  11   H   :    0.003551935    0.005139139   -0.006335938
  12   N   :    0.001615683   -0.000732821   -0.004699059
  13   H   :   -0.001998567    0.001259358   -0.006159111
  14   H   :    0.001833509   -0.004244141   -0.006258269
  15   H   :   -0.001074214    0.001137309    0.003716463
  16   H   :    0.000035920   -0.001691735    0.003964260

Difference to translation invariance:
           :   -0.0000935098   -0.0001795506    0.0000069225

Difference to rotation invariance:
           :    0.0007471483    0.0000437316    0.0004712046

Norm of the cartesian gradient     ...    0.0363734150
RMS gradient                       ...    0.0052500502
MAX gradient                       ...    0.0131756730

-------
TIMINGS
-------

Total SCF gradient time            ...        5.146 sec

One electron gradient       ....       0.039 sec  (  0.8%)
RI-J Coulomb gradient       ....       0.224 sec  (  4.3%)
COSX gradient               ....       3.538 sec  ( 68.7%)
XC gradient                 ....       1.052 sec  ( 20.4%)

Maximum memory used throughout the entire SCFGRAD-calculation: 38.4 MB
------------------------------------------------------------------------------
                         ORCA GEOMETRY RELAXATION STEP
------------------------------------------------------------------------------

Reading the OPT-File                    .... done
Getting information on internals        .... done
Copying old internal coords+grads       .... done
Making the new internal coordinates     .... (new redundants).... done
Validating the new internal coordinates .... (new redundants).... done
Calculating the B-matrix                .... done
Calculating the G,G- and P matrices     .... done
Transforming gradient to internals      .... done
Projecting the internal gradient        .... done
Number of atoms                         ....  16
Number of internal coordinates          ....  75
Current Energy                          ....  -213.588809856 Eh
Current gradient norm                   ....     0.036373415 Eh/bohr
Maximum allowed component of the step   ....  0.300
Current trust radius                    ....  0.300
Evaluating the initial hessian          ....  (Almloef) done
Projecting the Hessian                  .... done
Forming the augmented Hessian           .... done
Diagonalizing the augmented Hessian     .... done
Last element of RFO vector              ....  0.993743709
Lowest eigenvalues of augmented Hessian:
 -0.002206924  0.010592463  0.011136079  0.011570361  0.016671025
Length of the computed step             ....  0.112387689
The final length of the internal step   ....  0.112387689
Converting the step to cartesian space:
 Initial RMS(Int)=    0.0129774125
Transforming coordinates:
 Iter   0:  RMS(Cart)=    0.0260978895 RMS(Int)=    0.0129819416
 Iter   1:  RMS(Cart)=    0.0002844588 RMS(Int)=    0.0001832107
 Iter   2:  RMS(Cart)=    0.0000057256 RMS(Int)=    0.0000035629
 Iter   3:  RMS(Cart)=    0.0000001469 RMS(Int)=    0.0000001047
 Iter   4:  RMS(Cart)=    0.0000000033 RMS(Int)=    0.0000000024
done
Storing new coordinates                 .... done

                                .--------------------.
          ----------------------|Geometry convergence|-------------------------
          Item                value                   Tolerance       Converged
          ---------------------------------------------------------------------
          RMS gradient        0.0030471455            0.0001000000      NO
          MAX gradient        0.0097684137            0.0003000000      NO
          RMS step            0.0129774125            0.0020000000      NO
          MAX step            0.0306058804            0.0040000000      NO
          ........................................................
          Max(Bonds)      0.0141      Max(Angles)    0.96
          Max(Dihed)        1.75      Max(Improp)    0.00
          ---------------------------------------------------------------------

The optimization has not yet converged - more geometry cycles are needed


    ---------------------------------------------------------------------------
                         Redundant Internal Coordinates
                            (Angstroem and degrees)

        Definition                    Value    dE/dq     Step     New-Value
    ----------------------------------------------------------------------------
     1. B(C   1,C   0)                1.5246 -0.003262  0.0045    1.5291   
     2. B(H   2,C   0)                1.0871 -0.009768  0.0141    1.1012   
     3. B(H   3,C   0)                1.0878 -0.009544  0.0138    1.1016   
     4. B(H   4,C   0)                1.0877 -0.008851  0.0128    1.1005   
     5. B(C   5,C   1)                1.5304 -0.000941  0.0013    1.5317   
     6. B(H   6,C   1)                1.0932 -0.007258  0.0107    1.1040   
     7. B(H   7,C   1)                1.0928 -0.006515  0.0096    1.1025   
     8. B(C   8,C   5)                1.5378  0.001212 -0.0018    1.5360   
     9. B(H   9,C   5)                1.0942 -0.007100  0.0105    1.1047   
    10. B(H  10,C   5)                1.0919 -0.008607  0.0127    1.1046   
    11. B(N  11,C   8)                1.4542 -0.002432  0.0029    1.4571   
    12. B(H  12,C   8)                1.0945 -0.005540  0.0082    1.1028   
    13. B(H  13,C   8)                1.0922 -0.007198  0.0106    1.1028   
    14. B(H  14,N  11)                1.0147 -0.003296  0.0041    1.0188   
    15. B(H  15,N  11)                1.0141 -0.003277  0.0040    1.0181   
    16. A(H   3,C   0,H   4)          108.43  0.001900   -0.32    108.10   
    17. A(C   1,C   0,H   4)          110.20 -0.002581    0.50    110.71   
    18. A(C   1,C   0,H   2)          111.20 -0.001809    0.32    111.53   
    19. A(H   2,C   0,H   3)          108.41  0.001901   -0.42    107.99   
    20. A(H   2,C   0,H   4)          108.12  0.002123   -0.35    107.77   
    21. A(C   1,C   0,H   3)          110.39 -0.001307    0.23    110.61   
    22. A(C   0,C   1,C   5)          113.25 -0.001925    0.54    113.79   
    23. A(H   6,C   1,H   7)          107.08  0.000868   -0.72    106.35   
    24. A(C   5,C   1,H   7)          108.21 -0.000243    0.27    108.48   
    25. A(C   0,C   1,H   7)          108.88  0.000249    0.21    109.09   
    26. A(C   5,C   1,H   6)          109.78  0.001370   -0.38    109.40   
    27. A(C   0,C   1,H   6)          109.43 -0.000175    0.02    109.46   
    28. A(C   8,C   5,H   9)          108.45  0.000602   -0.12    108.33   
    29. A(C   1,C   5,H   9)          108.75 -0.000679    0.18    108.93   
    30. A(C   1,C   5,C   8)          114.37 -0.000495    0.26    114.63   
    31. A(H   9,C   5,H  10)          107.65  0.001013   -0.65    107.00   
    32. A(C   8,C   5,H  10)          108.29 -0.000662    0.24    108.53   
    33. A(C   1,C   5,H  10)          109.13  0.000323    0.03    109.16   
    34. A(H  12,C   8,H  13)          107.60  0.001766   -0.96    106.65   
    35. A(N  11,C   8,H  13)          107.54 -0.000591    0.17    107.71   
    36. A(C   5,C   8,H  13)          110.00  0.000114   -0.15    109.85   
    37. A(N  11,C   8,H  12)          107.16 -0.001571    0.61    107.77   
    38. A(C   5,C   8,H  12)          108.48  0.000187    0.04    108.52   
    39. A(C   5,C   8,N  11)          115.74  0.000206    0.22    115.96   
    40. A(H  14,N  11,H  15)          107.37  0.002764   -0.42    106.95   
    41. A(C   8,N  11,H  15)          109.80 -0.003779    0.68    110.48   
    42. A(C   8,N  11,H  14)          109.60 -0.002471    0.46    110.06   
    43. D(H   6,C   1,C   0,H   4)     61.59  0.000306   -0.51     61.08   
    44. D(C   5,C   1,C   0,H   3)    -55.83  0.000486   -0.55    -56.38   
    45. D(H   7,C   1,C   0,H   3)     64.60 -0.000897    0.29     64.89   
    46. D(H   6,C   1,C   0,H   2)    -58.30  0.000517   -0.62    -58.91   
    47. D(C   5,C   1,C   0,H   4)   -175.58  0.000604   -0.61   -176.18   
    48. D(H   6,C   1,C   0,H   3)   -178.67  0.000188   -0.45   -179.12   
    49. D(H   7,C   1,C   0,H   4)    -55.14 -0.000779    0.23    -54.91   
    50. D(C   5,C   1,C   0,H   2)     64.54  0.000816   -0.71     63.83   
    51. D(H   7,C   1,C   0,H   2)   -175.03 -0.000567    0.12   -174.90   
    52. D(H   9,C   5,C   1,H   6)    -64.80 -0.000556    0.82    -63.98   
    53. D(C   8,C   5,C   1,H   7)    173.12  0.001037    0.06    173.18   
    54. D(C   8,C   5,C   1,H   6)     56.58 -0.000613    0.98     57.55   
    55. D(C   8,C   5,C   1,C   0)    -66.07 -0.000048    0.85    -65.22   
    56. D(H   9,C   5,C   1,H   7)     51.74  0.001095   -0.10     51.65   
    57. D(H  10,C   5,C   1,H   7)    -65.43  0.000084    0.57    -64.86   
    58. D(H  10,C   5,C   1,H   6)    178.03 -0.001567    1.48    179.51   
    59. D(H  10,C   5,C   1,C   0)     55.38 -0.001002    1.36     56.74   
    60. D(H   9,C   5,C   1,C   0)    172.56  0.000009    0.70    173.25   
    61. D(H  13,C   8,C   5,H   9)   -178.87 -0.001796    1.75   -177.12   
    62. D(H  13,C   8,C   5,C   1)     59.59 -0.001036    1.44     61.03   
    63. D(H  12,C   8,C   5,H  10)     55.13  0.001672   -0.17     54.96   
    64. D(H  12,C   8,C   5,H   9)    -61.42  0.000507    0.54    -60.88   
    65. D(H  12,C   8,C   5,C   1)    177.04  0.001267    0.22    177.26   
    66. D(N  11,C   8,C   5,H  10)    175.56 -0.000087    0.79    176.35   
    67. D(N  11,C   8,C   5,H   9)     59.02 -0.001252    1.49     60.51   
    68. D(H  13,C   8,C   5,H  10)    -62.32 -0.000631    1.05    -61.27   
    69. D(N  11,C   8,C   5,C   1)    -62.52 -0.000492    1.18    -61.35   
    70. D(H  15,N  11,C   8,C   5)     62.43 -0.000083    0.27     62.70   
    71. D(H  14,N  11,C   8,H  13)   -178.69  0.000427    0.03   -178.67   
    72. D(H  14,N  11,C   8,H  12)     65.86 -0.000547    0.75     66.62   
    73. D(H  14,N  11,C   8,C   5)    -55.28  0.000256    0.11    -55.17   
    74. D(H  15,N  11,C   8,H  13)    -60.98  0.000088    0.19    -60.79   
    75. D(H  15,N  11,C   8,H  12)   -176.43 -0.000887    0.91   -175.51   
    ----------------------------------------------------------------------------

         *************************************************************
         *                GEOMETRY OPTIMIZATION CYCLE   2            *
         *************************************************************
---------------------------------
CARTESIAN COORDINATES (ANGSTROEM)
---------------------------------
  C     -1.914291    0.739964    0.155842
  C     -1.128246   -0.352959   -0.569370
  H     -1.272912    1.598523    0.409075
  H     -2.346835    0.350770    1.091272
  H     -2.737669    1.109911   -0.473692
  C     -0.020514   -0.984003    0.279635
  H     -0.690542    0.061110   -1.494416
  H     -1.823506   -1.148576   -0.884039
  C      1.119763   -0.027041    0.658151
  H      0.411428   -1.837989   -0.272219
  H     -0.461484   -1.389005    1.207845
  N      1.872352    0.539430   -0.453494
  H      1.830599   -0.567837    1.304922
  H      0.722844    0.810426    1.255957
  H      2.238020   -0.206024   -1.043811
  H      1.266746    1.111421   -1.038871

----------------------------
CARTESIAN COORDINATES (A.U.)
----------------------------
  NO LB      ZA    FRAG     MASS         X           Y           Z
   0 C     6.0000    0    12.011   -3.617486    1.398329    0.294499
   1 C     6.0000    0    12.011   -2.132076   -0.666996   -1.075953
   2 H     1.0000    0     1.008   -2.405456    3.020772    0.773041
   3 H     1.0000    0     1.008   -4.434875    0.662859    2.062206
   4 H     1.0000    0     1.008   -5.173445    2.097429   -0.895149
   5 C     6.0000    0    12.011   -0.038766   -1.859496    0.528434
   6 H     1.0000    0     1.008   -1.304935    0.115480   -2.824038
   7 H     1.0000    0     1.008   -3.445927   -2.170494   -1.670592
   8 C     6.0000    0    12.011    2.116046   -0.051100    1.243726
   9 H     1.0000    0     1.008    0.777487   -3.473296   -0.514419
  10 H     1.0000    0     1.008   -0.872078   -2.624840    2.282496
  11 N     7.0000    0    14.007    3.538233    1.019374   -0.856979
  12 H     1.0000    0     1.008    3.459331   -1.073057    2.465945
  13 H     1.0000    0     1.008    1.365977    1.531482    2.373416
  14 H     1.0000    0     1.008    4.229245   -0.389329   -1.972517
  15 H     1.0000    0     1.008    2.393802    2.100282   -1.963181

--------------------------------
INTERNAL COORDINATES (ANGSTROEM)
--------------------------------
 C      0   0   0     0.000000000000     0.00000000     0.00000000
 C      1   0   0     1.529143738408     0.00000000     0.00000000
 H      1   2   0     1.101189480497   111.52528326     0.00000000
 H      1   2   3     1.101632921630   110.61192023   239.79617809
 H      1   2   3     1.100511739309   110.70540977   119.98987269
 C      2   1   3     1.531697161846   113.78726618    63.82660307
 H      2   1   3     1.103969707666   109.45882536   301.08727590
 H      2   1   3     1.102456162986   109.08617861   185.09623579
 C      6   2   1     1.535995794777   114.63276339   294.78310733
 H      6   2   1     1.104721302360   108.92692846   173.25346729
 H      6   2   1     1.104560521289   109.15550479    56.74134717
 N      9   6   2     1.457063227014   115.95392468   298.65451388
 H      9   6   2     1.102751014553   108.51372017   177.26018819
 H      9   6   2     1.102845422535   109.84652496    61.02538426
 H     12   9   6     1.018768461718   110.05936328   304.82447487
 H     12   9   6     1.018135594236   110.47720153    62.69889476

---------------------------
INTERNAL COORDINATES (A.U.)
---------------------------
 C      0   0   0     0.000000000000     0.00000000     0.00000000
 C      1   0   0     2.889662884991     0.00000000     0.00000000
 H      1   2   0     2.080946539694   111.52528326     0.00000000
 H      1   2   3     2.081784521991   110.61192023   239.79617809
 H      1   2   3     2.079665794459   110.70540977   119.98987269
 C      2   1   3     2.894488155993   113.78726618    63.82660307
 H      2   1   3     2.086200407633   109.45882536   301.08727590
 H      2   1   3     2.083340222697   109.08617861   185.09623579
 C      6   2   1     2.902611394984   114.63276339   294.78310733
 H      6   2   1     2.087620715769   108.92692846   173.25346729
 H      6   2   1     2.087316883577   109.15550479    56.74134717
 N      9   6   2     2.753450458864   115.95392468   298.65451388
 H      9   6   2     2.083897411410   108.51372017   177.26018819
 H      9   6   2     2.084075816639   109.84652496    61.02538426
 H     12   9   6     1.925193386523   110.05936328   304.82447487
 H     12   9   6     1.923997440304   110.47720153    62.69889476



           ************************************************************
           *        Program running with 4 parallel MPI-processes     *
           *              working on a common directory               *
           ************************************************************
------------------------------------------------------------------------------
                   ___                                                        
                  /   \      - P O W E R E D   B Y -                         
                 /     \                                                     
                 |  |  |   _    _      __       _____    __    __             
                 |  |  |  | |  | |    /  \     |  _  \  |  |  /  |          
                  \  \/   | |  | |   /    \    | | | |  |  | /  /          
                 / \  \   | |__| |  /  /\  \   | |_| |  |  |/  /          
                |  |  |   |  __  | /  /__\  \  |    /   |      \           
                |  |  |   | |  | | |   __   |  |    \   |  |\   \          
                \     /   | |  | | |  |  |  |  | |\  \  |  | \   \       
                 \___/    |_|  |_| |__|  |__|  |_| \__\ |__|  \__/        
[...]
     37       0.197725   0.073520  -0.299449   0.007989   0.195405  -0.183325
     38      -0.015332   0.197577  -0.345375   0.023947   0.291609  -0.202306
     39       0.086735   0.134828  -0.218549   0.008071   0.211589  -0.146882
     40       0.018310  -0.065103   0.234542  -0.016771  -0.151910   0.116138
     41       0.043192   0.129617  -0.370027   0.026276   0.268363  -0.194417
     42       0.014475  -0.023980  -0.008788  -0.001983  -0.008245   0.003602
     43       0.050026  -0.025279  -0.007328   0.000527  -0.022065  -0.005584
     44      -0.059751   0.021123   0.010095  -0.002945   0.019554   0.007899
     45      -0.002276   0.028295   0.025713  -0.023304  -0.008719  -0.008461
     46      -0.014279   0.014541   0.011508  -0.017585  -0.000612   0.000749
     47      -0.003866  -0.032614  -0.025715   0.011388   0.005172   0.010050
                 36         37         38         39         40         41    
      0      -0.000091   0.000267  -0.022720   0.000512   0.007337   0.001428
      1      -0.001240  -0.000882   0.036075  -0.003423  -0.006838   0.001613
      2      -0.000915  -0.001434   0.027035  -0.007967  -0.009335   0.001438
      3      -0.000533   0.003856   0.002068   0.001564  -0.000984  -0.012930
      4      -0.000098   0.007161   0.000506   0.008692   0.001613  -0.014892
      5      -0.001814   0.010627   0.012316   0.063164   0.027041  -0.005506
      6      -0.010633   0.012022  -0.351528   0.041205   0.071757  -0.015741
      7       0.003214   0.015664  -0.433116   0.054021   0.088393  -0.019578
      8       0.012495   0.003275  -0.105555   0.011638   0.020450  -0.004771
      9       0.008912  -0.007518   0.232243  -0.037260  -0.069432   0.000075
     10       0.010994  -0.007780   0.184207  -0.027698  -0.054187   0.002683
     11       0.007906   0.017344  -0.511914   0.078537   0.151397  -0.002135
     12       0.004307  -0.005350   0.378322  -0.007057  -0.082724  -0.006728
     13       0.002545   0.002296  -0.165719   0.004873   0.039269   0.002424
     14      -0.004541  -0.005151   0.300273  -0.002787  -0.064182  -0.005281
     15      -0.004884   0.001564   0.000119   0.006840  -0.003285   0.043270
     16      -0.003029  -0.066409   0.002453   0.003579   0.016634  -0.018889
     17      -0.002094   0.016277  -0.000122  -0.016289   0.002249  -0.072569
     18       0.008718   0.046946   0.060009   0.299896   0.128745   0.001570
     19       0.004199   0.038562   0.052330   0.246887   0.105744  -0.001747
     20       0.002322  -0.094408  -0.127636  -0.634993  -0.272623  -0.001910
     21      -0.001446  -0.101383  -0.071406  -0.311458  -0.112087   0.157898
     22      -0.004411  -0.116428  -0.074349  -0.339440  -0.119971   0.174111
     23       0.011579  -0.034870  -0.022860  -0.105058  -0.038040   0.060710
     24       0.029570  -0.006289  -0.001996   0.007778  -0.017351  -0.017944
     25       0.023351   0.004299  -0.003947   0.004308  -0.012438   0.016952
     26       0.002931  -0.009881  -0.011464   0.027201  -0.058646  -0.008680
     27      -0.002895  -0.281170   0.009468  -0.012169   0.080733  -0.242932
     28      -0.003497   0.544675  -0.018874   0.033638  -0.155316   0.485402
     29       0.001019   0.357990  -0.013360   0.021746  -0.097311   0.302202
     30       0.004871   0.262642  -0.010292  -0.076793  -0.040405  -0.271864
     31      -0.005262   0.231806  -0.007233  -0.073682  -0.034446  -0.258075
     32       0.002190  -0.548537   0.015651   0.166410   0.072797   0.568208
     33      -0.019415  -0.000038  -0.000116  -0.000555   0.000420   0.000279
     34      -0.022840  -0.000027   0.000129   0.000029   0.000433  -0.000281
     35       0.074194  -0.000091  -0.000034  -0.000782   0.000703   0.000506
     36      -0.050231   0.105271   0.070614  -0.193842   0.414194   0.182511
     37      -0.044610  -0.084846  -0.053730   0.148934  -0.310107  -0.135447
     38       0.036752   0.086856   0.055163  -0.153334   0.325195   0.148488
     39      -0.048048  -0.022143  -0.048740   0.102661  -0.224137   0.033262
     40      -0.041076   0.040833   0.097993  -0.204929   0.450834  -0.065955
     41       0.033840   0.031119   0.080307  -0.166015   0.364045  -0.056409
     42      -0.210031  -0.001266   0.000549  -0.000710   0.001870  -0.002698
     43       0.418747  -0.000064  -0.001073   0.002012  -0.006038   0.000515
     44      -0.524545   0.002521  -0.001248   0.003274  -0.006759   0.002425
     45       0.279543  -0.000361   0.000835   0.004311  -0.004165  -0.003948
     46      -0.249672   0.000929  -0.000322  -0.001786   0.002069   0.000867
     47      -0.587460  -0.000625   0.000804   0.003728  -0.003697  -0.001935
                 42         43         44         45         46         47    
      0       0.015584   0.003878  -0.052166  -0.061122   0.000120  -0.000076
      1       0.015511   0.000308  -0.061459   0.006894   0.000190  -0.000129
      2      -0.006626   0.001001   0.041077  -0.069975  -0.000008  -0.000039
      3      -0.059369   0.009808  -0.015029  -0.002810  -0.000064  -0.000023
      4      -0.059953   0.009885  -0.014943  -0.003440  -0.000022  -0.000012
      5       0.019926  -0.006108   0.007316  -0.003788   0.000167  -0.000160
      6      -0.118966  -0.009233   0.412901   0.237866  -0.001493   0.001347
      7      -0.145606  -0.011637   0.518471   0.309899  -0.001728   0.001334
      8      -0.038254  -0.003091   0.137951   0.066310  -0.000597   0.000576
      9      -0.056384  -0.007379   0.266176  -0.141797  -0.000175   0.000225
     10      -0.046682  -0.004648   0.201643  -0.102014  -0.000373   0.000181
     11       0.132313   0.015676  -0.597645   0.282094   0.000213  -0.000128
     12      -0.011038  -0.028996  -0.053604   0.630071   0.000244  -0.000273
     13       0.010149   0.014264   0.011093  -0.286544  -0.000100  -0.000035
     14      -0.014340  -0.022238  -0.029487   0.488385   0.000086  -0.000089
     15      -0.006711   0.013754  -0.000578   0.000813   0.000272   0.000051
     16      -0.003797  -0.010540  -0.000774  -0.000891  -0.000149  -0.000209
     17       0.013887  -0.021452   0.001419  -0.000601  -0.000411  -0.000127
     18       0.196319  -0.044187   0.060778  -0.010339   0.000726  -0.001650
     19       0.161853  -0.036904   0.046779  -0.007456   0.001306  -0.001211
     20      -0.440732   0.098758  -0.129758   0.021796  -0.002392   0.002114
     21       0.507584  -0.075143   0.116064   0.041990  -0.000020   0.000331
     22       0.553807  -0.081858   0.129995   0.047309   0.000061   0.000211
     23       0.196606  -0.029129   0.045424   0.017014  -0.000249   0.000211
     24       0.012801   0.056359   0.003344   0.001991   0.002272  -0.001398
     25      -0.013344  -0.068412  -0.004990  -0.002696   0.002061   0.001478
     26       0.002633  -0.006430  -0.001585  -0.000994   0.000582   0.000230
     27       0.013565  -0.091230   0.001050  -0.005155  -0.002435  -0.001719
     28      -0.025825   0.185720   0.000062   0.009179   0.000484   0.000385
     29      -0.016456   0.117351  -0.000578   0.006141   0.000940   0.000703
     30       0.067502  -0.067834   0.006258  -0.001118   0.001437   0.000167
     31       0.064529  -0.063957   0.009271  -0.002663   0.000611   0.000085
     32      -0.144874   0.141037  -0.018889   0.004246  -0.001009  -0.000313
     33      -0.000548  -0.001260  -0.000022  -0.000049   0.006169  -0.048470
     34       0.000324   0.001361   0.000085   0.000038   0.005785   0.064622
     35      -0.000501   0.000420   0.000032   0.000118   0.056990   0.002431
     36      -0.110940  -0.425757  -0.020607  -0.011555  -0.006727   0.006961
     37       0.081273   0.311874   0.015603   0.008523   0.003569  -0.006122
     38      -0.089352  -0.343956  -0.016345  -0.008938  -0.002096   0.004831
     39      -0.036838  -0.240835  -0.021952  -0.011166   0.002686   0.005312
     40       0.077370   0.501410   0.044537   0.024962  -0.007924  -0.008060
     41       0.064464   0.413595   0.036628   0.020307  -0.003659  -0.005617
     42       0.000643  -0.000293   0.000397   0.000083   0.282079   0.219585
     43      -0.001273  -0.010878  -0.001082  -0.000583  -0.517159  -0.442454
     44      -0.000110  -0.004082  -0.000701  -0.000171  -0.471378  -0.422983
     45       0.005325   0.009870   0.000565   0.000167  -0.393041   0.460461
     46      -0.000300  -0.002996   0.001509   0.000441   0.416080  -0.455740
     47       0.002380   0.003343  -0.001702  -0.000891  -0.315718   0.388062


-----------
IR SPECTRUM
-----------

 Mode   freq       eps      Int      T**2         TX        TY        TZ
       cm**-1   L/(mol*cm) km/mol    a.u.
----------------------------------------------------------------------------
  6:     64.21   0.000028    0.14  0.000135  ( 0.008346 -0.007875 -0.001937)
  7:    162.16   0.000471    2.38  0.000906  (-0.013872  0.024244  0.011228)
  8:    244.04   0.002176   11.00  0.002782  ( 0.029197 -0.043926  0.000382)
  9:    273.65   0.000237    1.20  0.000270  (-0.009838  0.004473  0.012376)
 10:    308.53   0.006305   31.86  0.006377  ( 0.042067 -0.067787 -0.003585)
 11:    398.28   0.000724    3.66  0.000567  (-0.021615 -0.001099  0.009929)
 12:    508.04   0.002035   10.29  0.001250  (-0.019878 -0.023928  0.016806)
 13:    729.13   0.002828   14.29  0.001210  ( 0.032627  0.011737 -0.002857)
 14:    798.76   0.010839   54.77  0.004234  ( 0.054556  0.031869 -0.015571)
 15:    859.59   0.017008   85.95  0.006175  ( 0.067050  0.040770 -0.004101)
 16:    866.85   0.012107   61.18  0.004359  ( 0.052921  0.037731 -0.011587)
 17:    932.05   0.000350    1.77  0.000117  ( 0.006327  0.008302  0.002885)
 18:    970.29   0.001784    9.01  0.000574  ( 0.016124  0.017389 -0.003368)
 19:   1051.33   0.000591    2.98  0.000175  (-0.005465 -0.008789  0.008258)
 20:   1061.81   0.001161    5.87  0.000341  (-0.013747 -0.012324  0.000586)
 21:   1131.85   0.001592    8.05  0.000439  (-0.016872 -0.012397 -0.000780)
 22:   1171.44   0.001786    9.03  0.000476  ( 0.003970  0.006892 -0.020311)
 23:   1195.43   0.000625    3.16  0.000163  ( 0.011902 -0.001396  0.004409)
 24:   1262.41   0.000288    1.45  0.000071  (-0.005544 -0.003266 -0.005454)
 25:   1311.22   0.000142    0.72  0.000034  (-0.001934  0.005476  0.000084)
 26:   1358.25   0.000971    4.91  0.000223  ( 0.013880  0.003580 -0.004191)
 27:   1373.18   0.000170    0.86  0.000039  (-0.006055 -0.000916 -0.001054)
 28:   1398.42   0.002422   12.24  0.000540  (-0.016871 -0.008370  0.013631)
 29:   1404.97   0.000381    1.92  0.000085  (-0.002493 -0.008634  0.001945)
 30:   1418.92   0.001096    5.54  0.000241  ( 0.006053 -0.013893 -0.003379)
 31:   1457.08   0.000432    2.18  0.000093  (-0.002676  0.009152 -0.001261)
 32:   1471.98   0.001363    6.89  0.000289  (-0.001724  0.009311 -0.014116)
 33:   1472.15   0.000404    2.04  0.000086  ( 0.001377 -0.002775  0.008715)
 34:   1479.64   0.002332   11.78  0.000492  ( 0.015386  0.014067  0.007561)
 35:   1487.70   0.000738    3.73  0.000155  ( 0.005934 -0.005611  0.009390)
 36:   1645.11   0.003542   17.90  0.000672  (-0.000427  0.003092 -0.025733)
 37:   3049.64   0.005158   26.07  0.000528  ( 0.001927 -0.022097  0.005986)
 38:   3060.95   0.004150   20.97  0.000423  (-0.010448  0.015298  0.008937)
 39:   3066.26   0.008022   40.54  0.000816  ( 0.006868  0.005840  0.027114)
 40:   3071.72   0.003095   15.64  0.000314  (-0.005078  0.001701 -0.016904)
 41:   3103.33   0.006691   33.81  0.000673  ( 0.004135 -0.004143 -0.025270)
 42:   3117.43   0.004171   21.08  0.000418  (-0.009530 -0.016164  0.008091)
 43:   3123.73   0.008775   44.34  0.000877  ( 0.022778 -0.017459 -0.007280)
 44:   3154.35   0.006739   34.06  0.000667  (-0.015491 -0.017777  0.010523)
 45:   3162.72   0.004714   23.82  0.000465  (-0.014788  0.000646 -0.015684)
 46:   3558.19   0.000021    0.11  0.000002  (-0.000170 -0.000693 -0.001158)
 47:   3642.80   0.000321    1.62  0.000027  ( 0.002701 -0.004476 -0.000395)

* The epsilon (eps) is given for a Dirac delta lineshape.
** The dipole moment derivative (T) already includes vibrational overlap.

The first frequency considered to be a vibration is 6
The total number of vibrations considered is 42


--------------------------
THERMOCHEMISTRY AT 298.15K
--------------------------

Temperature         ... 298.15 K
Pressure            ... 1.00 atm
Total Mass          ... 73.14 AMU

Throughout the following assumptions are being made:
  (1) The electronic state is orbitally nondegenerate
  (2) There are no thermally accessible electronically excited states
  (3) Hindered rotations indicated by low frequency modes are not
      treated as such but are treated as vibrations and this may
      cause some error
  (4) All equations used are the standard statistical mechanics
      equations for an ideal gas
  (5) All vibrations are strictly harmonic

freq.      64.21  E(vib)   ...       0.51 
freq.     162.16  E(vib)   ...       0.39 
freq.     244.04  E(vib)   ...       0.31 
freq.     273.65  E(vib)   ...       0.28 
freq.     308.53  E(vib)   ...       0.26 
freq.     398.28  E(vib)   ...       0.20 
freq.     508.04  E(vib)   ...       0.14 
freq.     729.13  E(vib)   ...       0.06 
freq.     798.76  E(vib)   ...       0.05 
freq.     859.59  E(vib)   ...       0.04 
freq.     866.85  E(vib)   ...       0.04 
freq.     932.05  E(vib)   ...       0.03 
freq.     970.29  E(vib)   ...       0.03 
freq.    1051.33  E(vib)   ...       0.02 
freq.    1061.81  E(vib)   ...       0.02 
freq.    1131.85  E(vib)   ...       0.01 
freq.    1171.44  E(vib)   ...       0.01 
freq.    1195.43  E(vib)   ...       0.01 
freq.    1262.41  E(vib)   ...       0.01 
freq.    1311.22  E(vib)   ...       0.01 
freq.    1358.25  E(vib)   ...       0.01 
freq.    1373.18  E(vib)   ...       0.01 
freq.    1398.42  E(vib)   ...       0.00 
freq.    1404.97  E(vib)   ...       0.00 
freq.    1418.92  E(vib)   ...       0.00 
freq.    1457.08  E(vib)   ...       0.00 
freq.    1471.98  E(vib)   ...       0.00 
freq.    1472.15  E(vib)   ...       0.00 
freq.    1479.64  E(vib)   ...       0.00 
freq.    1487.70  E(vib)   ...       0.00 
freq.    1645.11  E(vib)   ...       0.00 
freq.    3049.64  E(vib)   ...       0.00 
freq.    3060.95  E(vib)   ...       0.00 
freq.    3066.26  E(vib)   ...       0.00 
freq.    3071.72  E(vib)   ...       0.00 
freq.    3103.33  E(vib)   ...       0.00 
freq.    3117.43  E(vib)   ...       0.00 
freq.    3123.73  E(vib)   ...       0.00 
freq.    3154.35  E(vib)   ...       0.00 
freq.    3162.72  E(vib)   ...       0.00 
freq.    3558.19  E(vib)   ...       0.00 
freq.    3642.80  E(vib)   ...       0.00 

------------
INNER ENERGY
------------

The inner energy is: U= E(el) + E(ZPE) + E(vib) + E(rot) + E(trans)
    E(el)   - is the total energy from the electronic structure calculation
              = E(kin-el) + E(nuc-el) + E(el-el) + E(nuc-nuc)
    E(ZPE)  - the the zero temperature vibrational energy from the frequency calculation
    E(vib)  - the the finite temperature correction to E(ZPE) due to population
              of excited vibrational states
    E(rot)  - is the rotational thermal energy
    E(trans)- is the translational thermal energy

Summary of contributions to the inner energy U:
Electronic energy                ...   -213.59031170 Eh
Zero point energy                ...      0.15122382 Eh      94.89 kcal/mol
Thermal vibrational correction   ...      0.00391904 Eh       2.46 kcal/mol
Thermal rotational correction    ...      0.00141627 Eh       0.89 kcal/mol
Thermal translational correction ...      0.00141627 Eh       0.89 kcal/mol
-----------------------------------------------------------------------
Total thermal energy                   -213.43233630 Eh


Summary of corrections to the electronic energy:
(perhaps to be used in another calculation)
Total thermal correction                  0.00675158 Eh       4.24 kcal/mol
Non-thermal (ZPE) correction              0.15122382 Eh      94.89 kcal/mol
-----------------------------------------------------------------------
Total correction                          0.15797541 Eh      99.13 kcal/mol


--------
ENTHALPY
--------

The enthalpy is H = U + kB*T
                kB is Boltzmann's constant
Total free energy                 ...   -213.43233630 Eh 
Thermal Enthalpy correction       ...      0.00094421 Eh       0.59 kcal/mol
-----------------------------------------------------------------------
Total Enthalpy                    ...   -213.43139209 Eh


Note: Only C1 symmetry has been detected, increase convergence thresholds 
      if your molecule has a higher symmetry. Symmetry factor of 1.0 is   
      used for the rotational entropy correction. 
 

Note: Rotational entropy computed according to Herzberg 
Infrared and Raman Spectra, Chapter V,1, Van Nostrand Reinhold, 1945 
Point Group:  C1, Symmetry Number:   1  
Rotational constants in cm-1:     0.264049     0.099084     0.090049 

Vibrational entropy computed according to the QRRHO of S. Grimme
Chem.Eur.J. 2012 18 9955


-------
ENTROPY
-------

The entropy contributions are T*S = T*(S(el)+S(vib)+S(rot)+S(trans))
     S(el)   - electronic entropy
     S(vib)  - vibrational entropy
     S(rot)  - rotational entropy
     S(trans)- translational entropy
The entropies will be listed as multiplied by the temperature to get
units of energy

Electronic entropy                ...      0.00000000 Eh      0.00 kcal/mol
Vibrational entropy               ...      0.00657680 Eh      4.13 kcal/mol
Rotational entropy                ...      0.01236734 Eh      7.76 kcal/mol
Translational entropy             ...      0.01842822 Eh     11.56 kcal/mol
-----------------------------------------------------------------------
Final entropy term                ...      0.03737236 Eh     23.45 kcal/mol

In case the symmetry of your molecule has not been determined correctly
or in case you have a reason to use a different symmetry number we print 
out the resulting rotational entropy values for sn=1,12 :
 --------------------------------------------------------
|  sn= 1 | S(rot)=       0.01236734 Eh      7.76 kcal/mol|
|  sn= 2 | S(rot)=       0.01171288 Eh      7.35 kcal/mol|
|  sn= 3 | S(rot)=       0.01133005 Eh      7.11 kcal/mol|
|  sn= 4 | S(rot)=       0.01105843 Eh      6.94 kcal/mol|
|  sn= 5 | S(rot)=       0.01084774 Eh      6.81 kcal/mol|
|  sn= 6 | S(rot)=       0.01067559 Eh      6.70 kcal/mol|
|  sn= 7 | S(rot)=       0.01053005 Eh      6.61 kcal/mol|
|  sn= 8 | S(rot)=       0.01040397 Eh      6.53 kcal/mol|
|  sn= 9 | S(rot)=       0.01029276 Eh      6.46 kcal/mol|
|  sn=10 | S(rot)=       0.01019328 Eh      6.40 kcal/mol|
|  sn=11 | S(rot)=       0.01010329 Eh      6.34 kcal/mol|
|  sn=12 | S(rot)=       0.01002114 Eh      6.29 kcal/mol|
 --------------------------------------------------------


-------------------
GIBBS FREE ENERGY
-------------------

The Gibbs free energy is G = H - T*S

Total enthalpy                    ...   -213.43139209 Eh 
Total entropy correction          ...     -0.03737236 Eh    -23.45 kcal/mol
-----------------------------------------------------------------------
Final Gibbs free energy         ...   -213.46876445 Eh

For completeness - the Gibbs free energy minus the electronic energy
G-E(el)                           ...      0.12154726 Eh     76.27 kcal/mol


Timings for individual modules:

Sum of individual times         ...      234.245 sec (=   3.904 min)
GTO integral calculation        ...        3.499 sec (=   0.058 min)   1.5 %
SCF iterations                  ...      123.506 sec (=   2.058 min)  52.7 %
SCF Gradient evaluation         ...       32.310 sec (=   0.538 min)  13.8 %
Geometry relaxation             ...        0.252 sec (=   0.004 min)   0.1 %
Analytical frequency calculation...       74.678 sec (=   1.245 min)  31.9 %
                             ****ORCA TERMINATED NORMALLY****
TOTAL RUN TIME: 0 days 0 hours 3 minutes 56 seconds 739 msec
